 500 500   0   0
  0.1910214E+02  0.2121700E-08  0.2121700E-08  0.2121700E-08  0.5000000E-15
  1.000000000000000E-004
  CAR 
 Li                                      
      3.68063761     -3.35153127  301      0.54908843      1.00000000
     -3.352  0.0000E+00  0.0000E+00
     -3.328  0.0000E+00  0.0000E+00
     -3.305  0.0000E+00  0.0000E+00
     -3.281  0.0000E+00  0.0000E+00
     -3.258  0.0000E+00  0.0000E+00
     -3.234  0.0000E+00  0.0000E+00
     -3.211  0.0000E+00  0.0000E+00
     -3.187  0.8857E-11  0.2076E-12
     -3.164  0.1880E-07  0.4408E-09
     -3.141  0.1209E-04  0.2838E-06
     -3.117  0.2378E-02  0.5603E-04
     -3.094  0.1450E+00  0.3456E-02
     -3.070  0.2792E+01  0.6891E-01
     -3.047  0.1733E+02  0.4752E+00
     -3.023  0.3536E+02  0.1304E+01
     -3.000  0.2397E+02  0.1866E+01
     -2.976  0.6401E+01  0.2016E+01
     -2.953  0.1195E+02  0.2296E+01
     -2.930  0.4864E+02  0.3437E+01
     -2.906  0.8680E+02  0.5471E+01
     -2.883  0.7315E+02  0.7186E+01
     -2.859  0.3006E+02  0.7890E+01
     -2.836  0.1320E+02  0.8200E+01
     -2.812  0.3925E+02  0.9120E+01
     -2.789  0.8007E+02  0.1100E+02
     -2.766  0.7961E+02  0.1286E+02
     -2.742  0.3994E+02  0.1380E+02
     -2.719  0.1736E+02  0.1421E+02
     -2.695  0.4268E+02  0.1521E+02
     -2.672  0.9446E+02  0.1742E+02
     -2.648  0.1111E+03  0.2002E+02
     -2.625  0.6684E+02  0.2159E+02
     -2.601  0.2844E+02  0.2226E+02
     -2.578  0.5170E+02  0.2347E+02
     -2.555  0.1146E+03  0.2616E+02
     -2.531  0.1568E+03  0.2983E+02
     -2.508  0.1195E+03  0.3263E+02
     -2.484  0.4886E+02  0.3378E+02
     -2.461  0.2316E+02  0.3432E+02
     -2.437  0.5998E+02  0.3573E+02
     -2.414  0.9971E+02  0.3806E+02
     -2.390  0.6535E+02  0.3960E+02
     -2.367  0.2047E+02  0.4008E+02
     -2.344  0.3235E+02  0.4083E+02
     -2.320  0.9376E+02  0.4303E+02
     -2.297  0.1485E+03  0.4651E+02
     -2.273  0.1402E+03  0.4980E+02
     -2.250  0.8066E+02  0.5169E+02
     -2.226  0.6112E+02  0.5312E+02
     -2.203  0.1200E+03  0.5593E+02
     -2.180  0.1880E+03  0.6034E+02
     -2.156  0.1999E+03  0.6503E+02
     -2.133  0.1389E+03  0.6828E+02
     -2.109  0.6338E+02  0.6977E+02
     -2.086  0.3903E+02  0.7068E+02
     -2.062  0.6288E+02  0.7216E+02
     -2.039  0.8122E+02  0.7406E+02
     -2.015  0.6073E+02  0.7548E+02
     -1.992  0.3592E+02  0.7633E+02
     -1.969  0.6935E+02  0.7795E+02
     -1.945  0.1454E+03  0.8136E+02
     -1.922  0.1793E+03  0.8556E+02
     -1.898  0.1307E+03  0.8862E+02
     -1.875  0.6471E+02  0.9014E+02
     -1.851  0.7418E+02  0.9188E+02
     -1.828  0.1530E+03  0.9547E+02
     -1.804  0.2108E+03  0.1004E+03
     -1.781  0.1904E+03  0.1049E+03
     -1.758  0.1049E+03  0.1073E+03
     -1.734  0.4758E+02  0.1084E+03
     -1.711  0.8183E+02  0.1104E+03
     -1.687  0.1438E+03  0.1137E+03
     -1.664  0.1465E+03  0.1172E+03
     -1.640  0.9408E+02  0.1194E+03
     -1.617  0.6773E+02  0.1210E+03
     -1.593  0.1276E+03  0.1239E+03
     -1.570  0.1995E+03  0.1286E+03
     -1.547  0.2028E+03  0.1334E+03
     -1.523  0.1423E+03  0.1367E+03
     -1.500  0.8438E+02  0.1387E+03
     -1.476  0.1093E+03  0.1413E+03
     -1.453  0.1793E+03  0.1455E+03
     -1.429  0.2032E+03  0.1502E+03
     -1.406  0.1520E+03  0.1538E+03
     -1.383  0.8360E+02  0.1557E+03
     -1.359  0.7217E+02  0.1574E+03
     -1.336  0.1161E+03  0.1602E+03
     -1.312  0.1450E+03  0.1636E+03
     -1.289  0.1218E+03  0.1664E+03
     -1.265  0.7957E+02  0.1683E+03
     -1.242  0.8754E+02  0.1703E+03
     -1.218  0.1164E+03  0.1731E+03
     -1.195  0.1239E+03  0.1760E+03
     -1.172  0.1135E+03  0.1786E+03
     -1.148  0.9656E+02  0.1809E+03
     -1.125  0.1449E+03  0.1843E+03
     -1.101  0.2291E+03  0.1896E+03
     -1.078  0.2752E+03  0.1961E+03
     -1.054  0.2684E+03  0.2024E+03
     -1.031  0.2083E+03  0.2073E+03
     -1.007  0.1496E+03  0.2108E+03
     -0.984  0.1614E+03  0.2146E+03
     -0.961  0.1926E+03  0.2191E+03
     -0.937  0.1841E+03  0.2234E+03
     -0.914  0.1359E+03  0.2266E+03
     -0.890  0.8183E+02  0.2285E+03
     -0.867  0.9175E+02  0.2307E+03
     -0.843  0.1426E+03  0.2340E+03
     -0.820  0.1704E+03  0.2380E+03
     -0.797  0.1566E+03  0.2417E+03
     -0.773  0.1583E+03  0.2454E+03
     -0.750  0.1867E+03  0.2497E+03
     -0.726  0.2128E+03  0.2547E+03
     -0.703  0.2250E+03  0.2600E+03
     -0.679  0.1713E+03  0.2640E+03
     -0.656  0.7811E+02  0.2659E+03
     -0.632  0.5190E+02  0.2671E+03
     -0.609  0.8622E+02  0.2691E+03
     -0.586  0.8767E+02  0.2711E+03
     -0.562  0.7522E+02  0.2729E+03
     -0.539  0.1379E+03  0.2761E+03
     -0.515  0.2172E+03  0.2812E+03
     -0.492  0.2455E+03  0.2870E+03
     -0.468  0.2580E+03  0.2930E+03
     -0.445  0.2531E+03  0.2990E+03
     -0.421  0.2300E+03  0.3044E+03
     -0.398  0.2109E+03  0.3093E+03
     -0.375  0.2180E+03  0.3144E+03
     -0.351  0.2450E+03  0.3202E+03
     -0.328  0.2402E+03  0.3258E+03
     -0.304  0.2111E+03  0.3307E+03
     -0.281  0.1686E+03  0.3347E+03
     -0.257  0.1359E+03  0.3379E+03
     -0.234  0.1378E+03  0.3411E+03
     -0.210  0.1463E+03  0.3445E+03
     -0.187  0.1546E+03  0.3482E+03
     -0.164  0.1670E+03  0.3521E+03
     -0.140  0.1828E+03  0.3564E+03
     -0.117  0.1908E+03  0.3608E+03
     -0.093  0.1827E+03  0.3651E+03
     -0.070  0.1827E+03  0.3694E+03
     -0.046  0.2044E+03  0.3742E+03
     -0.023  0.2210E+03  0.3794E+03
      0.000  0.2324E+03  0.3848E+03
      0.024  0.2371E+03  0.3904E+03
      0.047  0.2177E+03  0.3955E+03
      0.071  0.1973E+03  0.4001E+03
      0.094  0.2020E+03  0.4048E+03
      0.118  0.1965E+03  0.4094E+03
      0.141  0.1738E+03  0.4135E+03
      0.165  0.1575E+03  0.4172E+03
      0.188  0.1800E+03  0.4214E+03
      0.211  0.2144E+03  0.4264E+03
      0.235  0.2141E+03  0.4315E+03
      0.258  0.2169E+03  0.4366E+03
      0.282  0.2208E+03  0.4417E+03
      0.305  0.2066E+03  0.4466E+03
      0.329  0.1959E+03  0.4512E+03
      0.352  0.2022E+03  0.4559E+03
      0.376  0.2092E+03  0.4608E+03
      0.399  0.2052E+03  0.4656E+03
      0.422  0.2045E+03  0.4704E+03
      0.446  0.2150E+03  0.4754E+03
      0.469  0.2248E+03  0.4807E+03
      0.493  0.2367E+03  0.4863E+03
      0.516  0.2429E+03  0.4920E+03
      0.540  0.2432E+03  0.4977E+03
      0.563  0.2469E+03  0.5034E+03
      0.586  0.2420E+03  0.5091E+03
      0.610  0.2351E+03  0.5146E+03
      0.633  0.2357E+03  0.5202E+03
      0.657  0.2387E+03  0.5258E+03
      0.680  0.2470E+03  0.5315E+03
      0.704  0.2581E+03  0.5376E+03
      0.727  0.2647E+03  0.5438E+03
      0.751  0.2713E+03  0.5502E+03
      0.774  0.2740E+03  0.5566E+03
      0.797  0.2785E+03  0.5631E+03
      0.821  0.2727E+03  0.5695E+03
      0.844  0.2566E+03  0.5755E+03
      0.868  0.2440E+03  0.5812E+03
      0.891  0.2441E+03  0.5870E+03
      0.915  0.2388E+03  0.5925E+03
      0.938  0.2222E+03  0.5978E+03
      0.962  0.2119E+03  0.6027E+03
      0.985  0.1963E+03  0.6073E+03
      1.008  0.1764E+03  0.6115E+03
      1.032  0.1731E+03  0.6155E+03
      1.055  0.1842E+03  0.6198E+03
      1.079  0.1801E+03  0.6241E+03
      1.102  0.1665E+03  0.6280E+03
      1.126  0.1762E+03  0.6321E+03
      1.149  0.1865E+03  0.6365E+03
      1.172  0.1930E+03  0.6410E+03
      1.196  0.1967E+03  0.6456E+03
      1.219  0.2013E+03  0.6503E+03
      1.243  0.2191E+03  0.6554E+03
      1.266  0.2356E+03  0.6610E+03
      1.290  0.2438E+03  0.6667E+03
      1.313  0.2334E+03  0.6722E+03
      1.337  0.2257E+03  0.6774E+03
      1.360  0.2317E+03  0.6829E+03
      1.383  0.2279E+03  0.6882E+03
      1.407  0.2194E+03  0.6934E+03
      1.430  0.2207E+03  0.6985E+03
      1.454  0.2151E+03  0.7036E+03
      1.477  0.2066E+03  0.7084E+03
      1.501  0.1969E+03  0.7130E+03
      1.524  0.1914E+03  0.7175E+03
      1.548  0.1969E+03  0.7221E+03
      1.571  0.1939E+03  0.7267E+03
      1.594  0.1853E+03  0.7310E+03
      1.618  0.1823E+03  0.7353E+03
      1.641  0.1923E+03  0.7398E+03
      1.665  0.2037E+03  0.7446E+03
      1.688  0.1886E+03  0.7490E+03
      1.712  0.1702E+03  0.7530E+03
      1.735  0.1766E+03  0.7571E+03
      1.759  0.1844E+03  0.7615E+03
      1.782  0.1863E+03  0.7658E+03
      1.805  0.1855E+03  0.7702E+03
      1.829  0.1786E+03  0.7744E+03
      1.852  0.1652E+03  0.7782E+03
      1.876  0.1599E+03  0.7820E+03
      1.899  0.1535E+03  0.7856E+03
      1.923  0.1464E+03  0.7890E+03
      1.946  0.1477E+03  0.7925E+03
      1.969  0.1536E+03  0.7961E+03
      1.993  0.1621E+03  0.7999E+03
      2.016  0.1758E+03  0.8040E+03
      2.040  0.1909E+03  0.8085E+03
      2.063  0.1958E+03  0.8131E+03
      2.087  0.2015E+03  0.8178E+03
      2.110  0.2063E+03  0.8226E+03
      2.134  0.2034E+03  0.8274E+03
      2.157  0.1999E+03  0.8321E+03
      2.180  0.1987E+03  0.8367E+03
      2.204  0.1954E+03  0.8413E+03
      2.227  0.1847E+03  0.8456E+03
      2.251  0.1740E+03  0.8497E+03
      2.274  0.1672E+03  0.8536E+03
      2.298  0.1625E+03  0.8574E+03
      2.321  0.1533E+03  0.8610E+03
      2.345  0.1463E+03  0.8645E+03
      2.368  0.1384E+03  0.8677E+03
      2.391  0.1335E+03  0.8708E+03
      2.415  0.1403E+03  0.8741E+03
      2.438  0.1531E+03  0.8777E+03
      2.462  0.1509E+03  0.8813E+03
      2.485  0.1505E+03  0.8848E+03
      2.509  0.1638E+03  0.8886E+03
      2.532  0.1584E+03  0.8923E+03
      2.555  0.1434E+03  0.8957E+03
      2.579  0.1433E+03  0.8991E+03
      2.602  0.1447E+03  0.9024E+03
      2.626  0.1391E+03  0.9057E+03
      2.649  0.1326E+03  0.9088E+03
      2.673  0.1251E+03  0.9117E+03
      2.696  0.1371E+03  0.9150E+03
      2.720  0.1515E+03  0.9185E+03
      2.743  0.1455E+03  0.9219E+03
      2.766  0.1438E+03  0.9253E+03
      2.790  0.1389E+03  0.9286E+03
      2.813  0.1380E+03  0.9318E+03
      2.837  0.1518E+03  0.9353E+03
      2.860  0.1492E+03  0.9388E+03
      2.884  0.1452E+03  0.9422E+03
      2.907  0.1498E+03  0.9458E+03
      2.931  0.1481E+03  0.9492E+03
      2.954  0.1458E+03  0.9526E+03
      2.977  0.1426E+03  0.9560E+03
      3.001  0.1365E+03  0.9592E+03
      3.024  0.1322E+03  0.9623E+03
      3.048  0.1381E+03  0.9655E+03
      3.071  0.1454E+03  0.9689E+03
      3.095  0.1459E+03  0.9724E+03
      3.118  0.1401E+03  0.9756E+03
      3.142  0.1373E+03  0.9789E+03
      3.165  0.1279E+03  0.9819E+03
      3.188  0.1170E+03  0.9846E+03
      3.212  0.1054E+03  0.9871E+03
      3.235  0.9855E+02  0.9894E+03
      3.259  0.9276E+02  0.9916E+03
      3.282  0.1016E+03  0.9939E+03
      3.306  0.1147E+03  0.9966E+03
      3.329  0.1073E+03  0.9991E+03
      3.352  0.7788E+02  0.1001E+04
      3.376  0.3503E+02  0.1002E+04
      3.399  0.8278E+01  0.1002E+04
      3.423  0.9208E+00  0.1002E+04
      3.446  0.4116E-01  0.1002E+04
      3.470  0.6428E-03  0.1002E+04
      3.493  0.3235E-05  0.1002E+04
      3.517  0.5050E-08  0.1002E+04
      3.540  0.2399E-11  0.1002E+04
      3.563  0.0000E+00  0.1002E+04
      3.587  0.0000E+00  0.1002E+04
      3.610  0.0000E+00  0.1002E+04
      3.634  0.0000E+00  0.1002E+04
      3.657  0.0000E+00  0.1002E+04
      3.681  0.0000E+00  0.1002E+04
