       N       E                     dE             d eps       ncg     rms          rms(c)
DAV:   1    -0.232788303496E+03   -0.23279E+03   -0.12356E+05  4008   0.662E+02
DAV:   2    -0.858851600061E+03   -0.62606E+03   -0.57185E+03  4612   0.691E+01
DAV:   3    -0.904014751557E+03   -0.45163E+02   -0.41283E+02  5208   0.147E+01
DAV:   4    -0.905534371684E+03   -0.15196E+01   -0.14975E+01  4744   0.295E+00
DAV:   5    -0.905571607954E+03   -0.37236E-01   -0.37161E-01  4912   0.478E-01    0.116E+01
DAV:   6    -0.896942825960E+03    0.86288E+01   -0.18630E+01  4696   0.586E+00    0.880E+00
DAV:   7    -0.890900932005E+03    0.60419E+01   -0.14814E+01  4800   0.549E+00    0.643E+00
DAV:   8    -0.885795969844E+03    0.51050E+01   -0.72417E+00  4800   0.330E+00    0.338E+00
DAV:   9    -0.884886460968E+03    0.90951E+00   -0.39079E+00  4544   0.170E+00    0.175E+00
DAV:  10    -0.885027122800E+03   -0.14066E+00   -0.11870E+00  4840   0.113E+00    0.167E+00
DAV:  11    -0.884728425125E+03    0.29870E+00   -0.49824E-01  4712   0.741E-01    0.755E-01
DAV:  12    -0.884723431984E+03    0.49931E-02   -0.13816E-01  4664   0.326E-01    0.468E-01
DAV:  13    -0.884713812738E+03    0.96192E-02   -0.52542E-02  4832   0.249E-01    0.324E-01
DAV:  14    -0.884707237656E+03    0.65751E-02   -0.13605E-02  4696   0.132E-01    0.162E-01
DAV:  15    -0.884706136433E+03    0.11012E-02   -0.49028E-03  4616   0.746E-02    0.906E-02
DAV:  16    -0.884706325181E+03   -0.18875E-03   -0.19948E-03  4824   0.536E-02    0.807E-02
DAV:  17    -0.884705574870E+03    0.75031E-03   -0.10203E-03  4688   0.350E-02    0.247E-02
DAV:  18    -0.884705590574E+03   -0.15704E-04   -0.30778E-04  4632   0.166E-02    0.200E-02
DAV:  19    -0.884705555241E+03    0.35333E-04   -0.11642E-04  4656   0.114E-02    0.120E-02
DAV:  20    -0.884705538309E+03    0.16932E-04   -0.24087E-05  3464   0.560E-03    0.637E-03
DAV:  21    -0.884705531278E+03    0.70309E-05   -0.11553E-05  2256   0.333E-03
   1 F= -.88470553E+03 E0= -.88464990E+03  d E =-.111257E+00
