Li                                      
           1
    21.217000    0.000000    0.000000
     0.000000   21.217000    0.000000
    -0.000000   -0.000000   21.217000
   Li
   500
Direct configuration=     1
   0.99731939  0.00065417  0.98482177
   0.02731027  0.10222151  0.10466971
   0.01455056  0.19135542  0.18796758
   0.01994598  0.28305810  0.31798517
   0.02056926  0.40489877  0.39957914
   0.99153673  0.51342182  0.52209106
   0.00088503  0.59163526  0.63601910
   0.01639678  0.69688333  0.70792802
   0.99324921  0.79552234  0.76833813
   0.96999607  0.88881536  0.86547628
   0.11164142  0.99385175  0.07844914
   0.11093834  0.08329565  0.19645365
   0.12342622  0.17735989  0.29849602
   0.09811972  0.29332748  0.39545885
   0.11903165  0.42189990  0.51522570
   0.06145370  0.48494869  0.62339709
   0.08697807  0.59460784  0.68726273
   0.09645540  0.67626020  0.80478820
   0.09109784  0.80148402  0.90917375
   0.07962618  0.92003067  0.99126686
   0.20956681  0.97893471  0.18840293
   0.19201138  0.09215759  0.29458443
   0.19434094  0.20356642  0.39543931
   0.19238970  0.27662395  0.50135208
   0.21096931  0.38387632  0.60406722
   0.18673917  0.50710364  0.68024813
   0.20204525  0.58804664  0.78085885
   0.18375440  0.70585736  0.87678233
   0.18101256  0.79766327  0.99396599
   0.21937111  0.89795424  0.08738936
   0.30560336  0.01374959  0.29530515
   0.27356825  0.09792615  0.41337700
   0.28404958  0.19233958  0.51620547
   0.28612066  0.29916879  0.60487957
   0.29211999  0.41509402  0.68606324
   0.28643839  0.49478891  0.80372738
   0.28284335  0.58507365  0.90656121
   0.31833511  0.69738783  0.97463698
   0.30303852  0.77570387  0.08592353
   0.30170160  0.91082528  0.17859655
   0.40021120  0.98960236  0.39605527
   0.36988294  0.07820472  0.52593950
   0.40097172  0.20839639  0.58768610
   0.39574294  0.29966730  0.67050336
   0.38849478  0.41399727  0.78958166
   0.40271794  0.49546679  0.90772482
   0.39355963  0.61255280  0.98769027
   0.40639742  0.68926812  0.09910300
   0.40405813  0.81351280  0.20098630
   0.39317823  0.91196214  0.31019867
   0.51153210  0.01370055  0.53196444
   0.50634759  0.10519757  0.60491583
   0.53227557  0.20652948  0.68832280
   0.49508699  0.32426293  0.78890938
   0.50624282  0.39382114  0.91253959
   0.49071357  0.47702987  0.03385423
   0.51212735  0.59183078  0.09562410
   0.50630036  0.71954691  0.18826598
   0.50598154  0.82163832  0.30380715
   0.50084389  0.91704023  0.39829753
   0.59481180  0.01108313  0.61366002
   0.58582590  0.10958626  0.73117586
   0.59397171  0.20459153  0.80898601
   0.60307071  0.29727859  0.92518710
   0.59617969  0.40003137  0.02771280
   0.59565464  0.47036173  0.12239065
   0.60883433  0.61534527  0.18894365
   0.60469226  0.71282935  0.29502785
   0.62037513  0.80288583  0.42241297
   0.60787506  0.92589608  0.51475051
   0.68128095  0.01406029  0.68272352
   0.68006820  0.10511197  0.79051615
   0.68636977  0.20192816  0.90046532
   0.69090429  0.28708013  0.01224106
   0.71450183  0.39725450  0.11295578
   0.69975470  0.48066477  0.19447212
   0.71961803  0.61917062  0.30012584
   0.72161227  0.71705499  0.37985663
   0.70096126  0.79965130  0.47130641
   0.69050584  0.89847022  0.59240439
   0.77222491  0.02672195  0.77190439
   0.80275168  0.11563583  0.89103382
   0.79902448  0.21205612  0.98823837
   0.79795194  0.30033043  0.07763180
   0.78343929  0.39610839  0.20619807
   0.77257054  0.50643409  0.30743690
   0.81254438  0.60176889  0.40189789
   0.79228351  0.69265320  0.50189313
   0.77865054  0.78370454  0.60325515
   0.75256646  0.88168159  0.71767393
   0.88665171  0.02304651  0.90578566
   0.91092931  0.11371778  0.99873247
   0.93707100  0.20324853  0.09741901
   0.89595965  0.28191576  0.20953023
   0.90141438  0.40353626  0.32724063
   0.89816724  0.50510647  0.41295034
   0.93214004  0.60736760  0.50569274
   0.90874722  0.71196417  0.60797759
   0.88348628  0.78347956  0.71020280
   0.86559095  0.89372624  0.76462471
   0.10080717  0.12042154  0.97250676
   0.11752528  0.22339662  0.11383245
   0.09614876  0.29857140  0.23188770
   0.07185955  0.42005864  0.31273211
   0.09602406  0.51969845  0.39373528
   0.09492375  0.59488636  0.50392891
   0.09905745  0.69639431  0.60944143
   0.11674739  0.78649263  0.71127088
   0.10660916  0.89254868  0.77852322
   0.11231612  0.01009039  0.89394748
   0.20456033  0.12152286  0.08836903
   0.22169316  0.21326258  0.21501129
   0.19914433  0.32017504  0.30931076
   0.18412352  0.41581837  0.40392843
   0.17989223  0.51810122  0.50691149
   0.18622127  0.59537855  0.61736703
   0.18474372  0.69135536  0.71253471
   0.18996451  0.79658410  0.79659691
   0.22391533  0.89710879  0.88905082
   0.20349792  0.01797279  0.97304573
   0.31073505  0.07664034  0.18507635
   0.30249010  0.21280549  0.29836823
   0.28373152  0.30385652  0.41244587
   0.29629075  0.39566277  0.48471450
   0.30121805  0.49120610  0.59211013
   0.32339272  0.59958479  0.69402720
   0.27600684  0.68858766  0.78401710
   0.29783201  0.80414618  0.88700381
   0.29572588  0.90214483  0.97299216
   0.29900739  0.02006005  0.07448629
   0.38133760  0.09612070  0.31247168
   0.38160583  0.20978714  0.40694584
   0.38491820  0.30499624  0.49723801
   0.40919416  0.39374308  0.57465898
   0.39249598  0.50651037  0.68341670
   0.42154771  0.58361155  0.81565119
   0.40827414  0.70011395  0.88433629
   0.39390071  0.81829181  0.99404166
   0.37851145  0.92304947  0.07254005
   0.42122287  0.98074390  0.20444040
   0.48295814  0.08150006  0.41089646
   0.52110096  0.19680407  0.49199797
   0.49269117  0.30183264  0.59615696
   0.50149072  0.39912850  0.71278775
   0.51537311  0.50705635  0.79286213
   0.51341844  0.58565529  0.93795296
   0.48070952  0.70502568  0.99649561
   0.47344287  0.81125015  0.11535588
   0.51243408  0.91905246  0.18150485
   0.50654607  0.99928408  0.29666835
   0.62677515  0.06783579  0.48333287
   0.61395722  0.20231462  0.59855993
   0.59001549  0.32181877  0.72170449
   0.62623315  0.40385786  0.79944651
   0.61320458  0.49200898  0.93228397
   0.59537767  0.60869251  0.03210544
   0.59834356  0.70917966  0.10508828
   0.59079379  0.82476479  0.20142250
   0.58124749  0.88469571  0.29764463
   0.58133595  0.00142444  0.37122833
   0.67773878  0.10251002  0.60432372
   0.69696139  0.19474553  0.70424475
   0.68906786  0.30883402  0.80363675
   0.67932823  0.41876863  0.91764612
   0.70541964  0.51143130  0.02775685
   0.70986329  0.59030689  0.14150226
   0.70558561  0.71267356  0.19487986
   0.71014172  0.80615114  0.28698018
   0.69010155  0.91912297  0.38185084
   0.70589000  0.00453380  0.51917270
   0.79959655  0.11345099  0.68276438
   0.78302735  0.19992007  0.79561046
   0.76264118  0.30239538  0.89505679
   0.78887466  0.41345508  0.00032465
   0.81299286  0.49567960  0.09405050
   0.80468186  0.60176192  0.20291767
   0.79854980  0.72258275  0.30241675
   0.79713112  0.83272327  0.41026880
   0.79031346  0.89034101  0.52409251
   0.80644192  0.98356176  0.61709325
   0.90371184  0.10113314  0.78240505
   0.90260744  0.21417250  0.87961185
   0.89322843  0.30856162  0.98208555
   0.90290628  0.39638489  0.09953711
   0.89640483  0.49544855  0.21288093
   0.89139779  0.59508362  0.28830546
   0.89481160  0.70822706  0.40399976
   0.91101419  0.80472795  0.52513710
   0.90056143  0.87928875  0.62238132
   0.90780490  0.99615501  0.68832850
   0.00316438  0.10924008  0.90181019
   0.00244780  0.24196074  0.99589255
   0.00662761  0.31435171  0.11262826
   0.97869514  0.39079812  0.21425916
   0.98195182  0.54104118  0.30933167
   0.00162733  0.59866190  0.40598343
   0.98114057  0.70007795  0.52689071
   0.01301644  0.79338383  0.62695961
   0.00497124  0.89795341  0.68967797
   0.97277751  0.97215159  0.81159843
   0.21689514  0.22401228  0.98479577
   0.19745924  0.29972516  0.10564797
   0.21476473  0.38947767  0.20927851
   0.19433274  0.50112326  0.26782839
   0.20600089  0.60619119  0.39876314
   0.22032388  0.69341258  0.50022434
   0.21125675  0.80000164  0.59890155
   0.21634307  0.91531382  0.70336766
   0.21924540  0.99659265  0.78776949
   0.20602356  0.11774469  0.86751585
   0.27783054  0.19032882  0.10891002
   0.29175522  0.28017340  0.19722127
   0.30198001  0.40889230  0.29539012
   0.29567054  0.48291734  0.41794425
   0.29810238  0.58466882  0.52082302
   0.27875579  0.70696230  0.60505850
   0.30382512  0.78386643  0.70218705
   0.32171509  0.89681413  0.78948405
   0.31772805  0.03932494  0.88034643
   0.29903030  0.11126528  0.99587671
   0.41578843  0.19367340  0.18662678
   0.37351322  0.29038399  0.30392399
   0.39398937  0.39862521  0.38549677
   0.40185422  0.49579787  0.49659909
   0.38645609  0.59526810  0.58461308
   0.40242344  0.69987396  0.70726084
   0.41133810  0.78536113  0.80120336
   0.38721953  0.90570113  0.90687660
   0.40437238  0.03360383  0.00396799
   0.42191024  0.10256793  0.10791041
   0.49694633  0.18045475  0.32067463
   0.49044874  0.29667601  0.38756010
   0.51306726  0.39546715  0.48497454
   0.49380861  0.49922493  0.59066776
   0.49188576  0.60920392  0.69742319
   0.51095089  0.68536060  0.81890401
   0.48016437  0.80759338  0.89278314
   0.49280941  0.90701825  0.02413996
   0.51910749  0.99715269  0.12924534
   0.49315314  0.10796593  0.20231774
   0.62139175  0.17573329  0.37572447
   0.61224033  0.29636265  0.47857684
   0.59470482  0.38079279  0.60012361
   0.58952342  0.50338619  0.67661859
   0.60529841  0.59490384  0.79799139
   0.58997997  0.69174431  0.91931855
   0.59556914  0.78465697  0.00632457
   0.62916287  0.88801757  0.10042267
   0.62019849  0.98417807  0.21591146
   0.60529899  0.08268533  0.30950737
   0.69933848  0.19841056  0.51366984
   0.70799577  0.31328285  0.60904963
   0.69482273  0.41072197  0.68117269
   0.70573891  0.50814214  0.79487970
   0.68905041  0.60393630  0.91741745
   0.69786378  0.69692307  0.02047344
   0.68714927  0.79876520  0.10518861
   0.68612951  0.92459613  0.20786429
   0.71798405  0.00060315  0.28822182
   0.72584332  0.08170147  0.41568916
   0.78441303  0.20229058  0.58552179
   0.79947016  0.29586707  0.71548377
   0.77038698  0.40971824  0.82254698
   0.78683363  0.50063393  0.91404542
   0.80547006  0.58282345  0.01205589
   0.80174459  0.69031401  0.09997668
   0.79487209  0.82771325  0.17367738
   0.82136900  0.91484760  0.28871837
   0.81529856  0.99333368  0.40440411
   0.81467533  0.08677577  0.49890395
   0.89803225  0.22481280  0.70553546
   0.86986251  0.31975907  0.80248888
   0.88122542  0.42023115  0.90557404
   0.92441206  0.51094445  0.00717832
   0.88692625  0.60129766  0.10342976
   0.90065561  0.73008288  0.21161859
   0.88950360  0.79913189  0.32343960
   0.92084815  0.90073852  0.40925332
   0.91031497  0.97360647  0.51716731
   0.92190318  0.10115388  0.60394615
   0.99469223  0.22103728  0.80951950
   0.01029866  0.31800515  0.88695877
   0.01154613  0.37992344  0.99484147
   0.99897351  0.48503892  0.11212340
   0.98009524  0.60810559  0.17221560
   0.01244894  0.70489635  0.29207140
   0.01397282  0.81144043  0.41539652
   0.00598302  0.89960949  0.52542778
   0.00810735  0.98587780  0.61204211
   0.99932348  0.11491950  0.71509286
   0.08273489  0.22161979  0.90231845
   0.12147126  0.31357419  0.99069969
   0.09913097  0.38102395  0.11815766
   0.05967249  0.50747744  0.19846859
   0.12174555  0.59742656  0.28587393
   0.09726531  0.68731836  0.39051394
   0.10206340  0.80452241  0.49103535
   0.10769684  0.86852589  0.60093980
   0.08223316  0.00900187  0.72400305
   0.08690983  0.11635325  0.80729820
   0.31767026  0.28937138  0.00370748
   0.27977582  0.38317815  0.11031157
   0.31909512  0.50760706  0.19029191
   0.31033218  0.55689688  0.31641785
   0.32680905  0.69620620  0.40599607
   0.28324584  0.81180113  0.50345018
   0.26928145  0.90482615  0.61019455
   0.30126347  0.03879655  0.68285297
   0.33671989  0.10614231  0.76283195
   0.33823597  0.20365186  0.89931385
   0.39548670  0.27732057  0.09240068
   0.40779038  0.40021254  0.19637877
   0.39319503  0.47962099  0.29191468
   0.40377629  0.57368570  0.38856658
   0.40424593  0.71409061  0.49220771
   0.39350434  0.80163474  0.59000545
   0.38173065  0.90219785  0.67495626
   0.43868352  0.97374464  0.78217816
   0.44001594  0.11297720  0.86486928
   0.39607805  0.16750745  0.01765391
   0.49350616  0.30403664  0.23641218
   0.50326908  0.38690375  0.30073270
   0.49401646  0.50170138  0.37835832
   0.49154503  0.60427688  0.49479793
   0.49968794  0.69768481  0.58424638
   0.49410029  0.77564002  0.69544304
   0.51568128  0.86110445  0.80135119
   0.49615073  0.99434439  0.89616598
   0.50211991  0.09334114  0.98933833
   0.52883024  0.19210326  0.11138446
   0.60382983  0.28695864  0.29364716
   0.58647100  0.40377068  0.36296360
   0.58255801  0.50142405  0.48275970
   0.60393907  0.60384399  0.58493445
   0.61222317  0.68126237  0.69826809
   0.59051644  0.78300659  0.81155878
   0.60184096  0.90987200  0.91069976
   0.60474169  0.00284758  0.99897220
   0.59567149  0.08444013  0.11617739
   0.62495798  0.19903391  0.21145720
   0.69128566  0.29829077  0.38579381
   0.67940485  0.39880902  0.49496546
   0.68159787  0.47397732  0.59641767
   0.70123177  0.59867953  0.69997125
   0.68233859  0.66988536  0.82223894
   0.69516741  0.77738202  0.91370851
   0.71072813  0.90366274  0.98603756
   0.68969619  0.99784212  0.08141371
   0.70453638  0.07972670  0.18501587
   0.71908280  0.17564218  0.26707237
   0.77595835  0.29345496  0.48524196
   0.80423615  0.39308632  0.60439640
   0.79149193  0.49896381  0.70077995
   0.80301590  0.60553852  0.82505168
   0.79114470  0.67709654  0.92559399
   0.80243967  0.80666281  0.99930134
   0.79010843  0.90485263  0.08493949
   0.80313591  0.00666004  0.21456111
   0.83624642  0.09488635  0.31793184
   0.81259138  0.18482141  0.41593684
   0.86759932  0.29629257  0.57633687
   0.88286759  0.41069631  0.73173800
   0.87721730  0.52395559  0.79421410
   0.89726873  0.59830416  0.89327867
   0.89891785  0.69807520  0.97771750
   0.90246718  0.81236729  0.09619261
   0.90738873  0.87314242  0.19460403
   0.92758602  0.99182638  0.30455293
   0.91757464  0.08733942  0.41795996
   0.90963376  0.21203898  0.48318514
   0.96575750  0.32192801  0.69346031
   0.99310304  0.42698657  0.78462387
   0.99277181  0.50136488  0.90971385
   0.01944690  0.61397534  0.99644743
   0.97053921  0.72419279  0.08541576
   0.00800257  0.82211572  0.19486036
   0.01006114  0.88584785  0.30408385
   0.01446761  0.00567166  0.39332088
   0.00206717  0.09371956  0.50667259
   0.00374954  0.22664406  0.58501544
   0.09912690  0.31797304  0.80864402
   0.10462431  0.41355513  0.88118878
   0.10208077  0.47011545  0.01009473
   0.09506631  0.61165323  0.08044453
   0.10430640  0.70079778  0.17005733
   0.11694274  0.79371775  0.30423776
   0.09668821  0.90087522  0.40999836
   0.08307479  0.99428874  0.51235402
   0.08181418  0.10947774  0.62751624
   0.10715467  0.22619634  0.68424477
   0.18867746  0.31013373  0.86858398
   0.19967660  0.37354302  0.98776133
   0.19219642  0.47172857  0.09325394
   0.16999071  0.59913529  0.17276772
   0.23253181  0.69797692  0.30930235
   0.19946711  0.79300505  0.42024703
   0.18319964  0.90260415  0.49141574
   0.18449947  0.01621058  0.61672504
   0.19972001  0.08809997  0.70043044
   0.20161628  0.19015948  0.80080659
   0.39419355  0.39793502  0.00168216
   0.39410110  0.51759812  0.10478653
   0.40970082  0.62742840  0.21343417
   0.38609421  0.72428025  0.30864957
   0.41685492  0.82471963  0.40728141
   0.39238721  0.91447201  0.51271696
   0.42300789  0.99273783  0.59843980
   0.45176454  0.10949559  0.67140807
   0.43919091  0.18238731  0.78208001
   0.39601791  0.30076634  0.89715542
   0.48354900  0.37958077  0.14414293
   0.52009652  0.50033802  0.19930507
   0.49603832  0.60963199  0.29047238
   0.48833862  0.71924826  0.36848185
   0.50665185  0.80860054  0.48289186
   0.51028898  0.87918105  0.59804789
   0.52443243  0.98866451  0.70560394
   0.53234209  0.08088373  0.79764734
   0.50023310  0.22327226  0.91494185
   0.48338855  0.31903195  0.00146023
   0.61237614  0.36937209  0.22365246
   0.59742959  0.48876038  0.29852982
   0.60128807  0.60096211  0.38967344
   0.60708659  0.68561542  0.46554194
   0.60037766  0.78093441  0.57554771
   0.62569437  0.86046081  0.69835690
   0.60160689  0.99872994  0.80074670
   0.61546176  0.09923140  0.92212127
   0.60849729  0.17745497  0.00207114
   0.59785528  0.29382961  0.10918289
   0.73087759  0.37118364  0.29091100
   0.68327239  0.48426956  0.39182667
   0.70556762  0.59721643  0.49714828
   0.70554138  0.72025947  0.57088199
   0.68150632  0.78155439  0.72296697
   0.68851399  0.89817096  0.82696273
   0.70332952  0.02853288  0.88935250
   0.71527446  0.09561926  0.00514255
   0.71318548  0.20035571  0.10790616
   0.72706642  0.28558561  0.19590878
   0.79212377  0.37372296  0.40490533
   0.82218830  0.49946999  0.51781133
   0.81621605  0.60179707  0.61408202
   0.77402024  0.70890131  0.71446202
   0.76575431  0.75936031  0.82947880
   0.79104096  0.92621875  0.89108741
   0.79199368  0.01081210  0.00042263
   0.81250271  0.10980467  0.09307135
   0.81322762  0.17943461  0.19650012
   0.81890620  0.28077833  0.31028445
   0.89217758  0.39687020  0.49365975
   0.89493708  0.51950628  0.60571130
   0.89106868  0.60405978  0.69400677
   0.89877176  0.67921265  0.81022462
   0.89322059  0.80677997  0.90233351
   0.88829595  0.94340323  0.99139481
   0.90429425  0.00865308  0.11896990
   0.91369367  0.11073844  0.19587116
   0.91663243  0.19277570  0.30725648
   0.92630592  0.28829408  0.39601587
   0.95698218  0.39003266  0.59312174
   0.97126895  0.49320659  0.68186044
   0.99873173  0.58832885  0.79650944
   0.00001432  0.68867446  0.88886188
   0.99997201  0.79923355  0.00249142
   0.00091417  0.90872577  0.08394866
   0.01150145  0.97439409  0.21043753
   0.00411593  0.09640680  0.29144103
   0.03371238  0.19322133  0.41515888
   0.99906227  0.31520049  0.50339237
   0.08095922  0.39259604  0.70676548
   0.08782791  0.50301791  0.79381688
   0.10919363  0.57289996  0.90602895
   0.07802128  0.70376308  0.99288227
   0.11244764  0.80844149  0.07551242
   0.10592921  0.90195570  0.19385337
   0.12613208  0.99207675  0.31550893
   0.08731919  0.09668824  0.41545927
   0.11349480  0.19674424  0.50594095
   0.07925031  0.31388814  0.59657213
   0.21880235  0.43043749  0.78251219
   0.18607490  0.48884394  0.87503472
   0.20391455  0.60879598  0.98949790
   0.21105387  0.70673186  0.07810262
   0.21705486  0.80282878  0.20373298
   0.20372615  0.90675362  0.32671273
   0.17305679  0.02855541  0.42757131
   0.16722260  0.09878917  0.51422480
   0.19311953  0.18818336  0.60794054
   0.18916594  0.31543255  0.69612926
   0.28505731  0.38071960  0.88793516
   0.29533001  0.48420948  0.99700884
   0.29932325  0.60719752  0.09448943
   0.30736938  0.68293701  0.20607302
   0.29856366  0.79871352  0.30687477
   0.28963037  0.90250955  0.39835821
   0.28273838  0.99945953  0.53395473
   0.28098333  0.09122706  0.59939972
   0.29553361  0.18252537  0.68313883
   0.30636108  0.27730669  0.77198847
