 504 504   0   0
  0.2301818E+02  0.2235821E-08  0.2212889E-08  0.2344795E-08  0.5000000E-15
  1.000000000000000E-004
  CAR 
 Li                                      
      2.85408977     -3.57121553  301      0.08664281      1.00000000
     -3.571  0.0000E+00  0.0000E+00
     -3.550  0.0000E+00  0.0000E+00
     -3.528  0.0000E+00  0.0000E+00
     -3.507  0.0000E+00  0.0000E+00
     -3.486  0.0000E+00  0.0000E+00
     -3.464  0.0000E+00  0.0000E+00
     -3.443  0.2981E-13  0.6384E-15
     -3.421  0.6906E-10  0.1480E-11
     -3.400  0.6088E-07  0.1305E-08
     -3.378  0.1981E-04  0.4257E-06
     -3.357  0.2398E-02  0.5178E-04
     -3.336  0.1088E+00  0.2383E-02
     -3.314  0.1875E+01  0.4254E-01
     -3.293  0.1241E+02  0.3084E+00
     -3.271  0.3196E+02  0.9929E+00
     -3.250  0.3223E+02  0.1683E+01
     -3.229  0.1305E+02  0.1963E+01
     -3.207  0.6661E+01  0.2106E+01
     -3.186  0.2866E+02  0.2719E+01
     -3.164  0.7745E+02  0.4378E+01
     -3.143  0.9723E+02  0.6460E+01
     -3.121  0.5614E+02  0.7663E+01
     -3.100  0.1646E+02  0.8015E+01
     -3.079  0.1979E+02  0.8439E+01
     -3.057  0.6373E+02  0.9804E+01
     -3.036  0.9839E+02  0.1191E+02
     -3.014  0.7074E+02  0.1343E+02
     -2.993  0.2829E+02  0.1403E+02
     -2.972  0.2866E+02  0.1465E+02
     -2.950  0.6554E+02  0.1605E+02
     -2.929  0.1044E+03  0.1829E+02
     -2.907  0.1046E+03  0.2053E+02
     -2.886  0.5875E+02  0.2178E+02
     -2.864  0.4001E+02  0.2264E+02
     -2.843  0.8293E+02  0.2442E+02
     -2.822  0.1371E+03  0.2735E+02
     -2.800  0.1543E+03  0.3066E+02
     -2.779  0.1090E+03  0.3299E+02
     -2.757  0.4466E+02  0.3395E+02
     -2.736  0.3237E+02  0.3464E+02
     -2.715  0.6705E+02  0.3608E+02
     -2.693  0.9156E+02  0.3804E+02
     -2.672  0.7131E+02  0.3957E+02
     -2.650  0.4890E+02  0.4061E+02
     -2.629  0.6387E+02  0.4198E+02
     -2.607  0.9869E+02  0.4410E+02
     -2.586  0.1293E+03  0.4687E+02
     -2.565  0.1312E+03  0.4968E+02
     -2.543  0.1045E+03  0.5191E+02
     -2.522  0.1008E+03  0.5407E+02
     -2.500  0.1307E+03  0.5687E+02
     -2.479  0.1593E+03  0.6028E+02
     -2.457  0.1813E+03  0.6417E+02
     -2.436  0.1620E+03  0.6764E+02
     -2.415  0.1005E+03  0.6979E+02
     -2.393  0.6123E+02  0.7110E+02
     -2.372  0.5452E+02  0.7227E+02
     -2.350  0.6700E+02  0.7371E+02
     -2.329  0.7306E+02  0.7527E+02
     -2.308  0.6776E+02  0.7672E+02
     -2.286  0.9112E+02  0.7867E+02
     -2.265  0.1283E+03  0.8142E+02
     -2.243  0.1528E+03  0.8469E+02
     -2.222  0.1512E+03  0.8793E+02
     -2.200  0.1271E+03  0.9065E+02
     -2.179  0.1122E+03  0.9306E+02
     -2.158  0.1220E+03  0.9567E+02
     -2.136  0.1488E+03  0.9886E+02
     -2.115  0.1828E+03  0.1028E+03
     -2.093  0.1896E+03  0.1068E+03
     -2.072  0.1477E+03  0.1100E+03
     -2.051  0.7716E+02  0.1116E+03
     -2.029  0.4941E+02  0.1127E+03
     -2.008  0.9567E+02  0.1148E+03
     -1.986  0.1440E+03  0.1178E+03
     -1.965  0.1384E+03  0.1208E+03
     -1.943  0.1267E+03  0.1235E+03
     -1.922  0.1491E+03  0.1267E+03
     -1.901  0.1722E+03  0.1304E+03
     -1.879  0.1800E+03  0.1343E+03
     -1.858  0.1766E+03  0.1380E+03
     -1.836  0.1496E+03  0.1412E+03
     -1.815  0.1274E+03  0.1440E+03
     -1.794  0.1379E+03  0.1469E+03
     -1.772  0.1610E+03  0.1504E+03
     -1.751  0.1753E+03  0.1541E+03
     -1.729  0.1556E+03  0.1575E+03
     -1.708  0.1160E+03  0.1599E+03
     -1.686  0.9919E+02  0.1621E+03
     -1.665  0.1047E+03  0.1643E+03
     -1.644  0.1165E+03  0.1668E+03
     -1.622  0.1152E+03  0.1693E+03
     -1.601  0.1133E+03  0.1717E+03
     -1.579  0.1391E+03  0.1747E+03
     -1.558  0.1549E+03  0.1780E+03
     -1.537  0.1551E+03  0.1813E+03
     -1.515  0.1654E+03  0.1849E+03
     -1.494  0.1741E+03  0.1886E+03
     -1.472  0.1757E+03  0.1924E+03
     -1.451  0.1874E+03  0.1964E+03
     -1.429  0.2101E+03  0.2009E+03
     -1.408  0.2259E+03  0.2057E+03
     -1.387  0.2251E+03  0.2105E+03
     -1.365  0.2111E+03  0.2151E+03
     -1.344  0.1938E+03  0.2192E+03
     -1.322  0.1770E+03  0.2230E+03
     -1.301  0.1518E+03  0.2262E+03
     -1.280  0.1317E+03  0.2291E+03
     -1.258  0.1166E+03  0.2316E+03
     -1.237  0.1189E+03  0.2341E+03
     -1.215  0.1490E+03  0.2373E+03
     -1.194  0.1664E+03  0.2409E+03
     -1.172  0.1633E+03  0.2444E+03
     -1.151  0.1617E+03  0.2478E+03
     -1.130  0.1766E+03  0.2516E+03
     -1.108  0.1981E+03  0.2559E+03
     -1.087  0.2031E+03  0.2602E+03
     -1.065  0.1918E+03  0.2643E+03
     -1.044  0.1669E+03  0.2679E+03
     -1.023  0.1342E+03  0.2708E+03
     -1.001  0.1251E+03  0.2734E+03
     -0.980  0.1595E+03  0.2769E+03
     -0.958  0.1841E+03  0.2808E+03
     -0.937  0.1742E+03  0.2845E+03
     -0.915  0.1658E+03  0.2881E+03
     -0.894  0.1733E+03  0.2918E+03
     -0.873  0.2044E+03  0.2962E+03
     -0.851  0.2379E+03  0.3013E+03
     -0.830  0.2436E+03  0.3065E+03
     -0.808  0.2206E+03  0.3112E+03
     -0.787  0.2019E+03  0.3155E+03
     -0.765  0.2123E+03  0.3201E+03
     -0.744  0.2387E+03  0.3252E+03
     -0.723  0.2471E+03  0.3305E+03
     -0.701  0.2279E+03  0.3354E+03
     -0.680  0.1922E+03  0.3395E+03
     -0.658  0.1604E+03  0.3429E+03
     -0.637  0.1570E+03  0.3463E+03
     -0.616  0.1712E+03  0.3499E+03
     -0.594  0.1802E+03  0.3538E+03
     -0.573  0.1729E+03  0.3575E+03
     -0.551  0.1792E+03  0.3613E+03
     -0.530  0.1968E+03  0.3656E+03
     -0.508  0.2017E+03  0.3699E+03
     -0.487  0.1970E+03  0.3741E+03
     -0.466  0.1956E+03  0.3783E+03
     -0.444  0.2076E+03  0.3827E+03
     -0.423  0.2202E+03  0.3875E+03
     -0.401  0.2373E+03  0.3925E+03
     -0.380  0.2592E+03  0.3981E+03
     -0.359  0.2627E+03  0.4037E+03
     -0.337  0.2523E+03  0.4091E+03
     -0.316  0.2382E+03  0.4142E+03
     -0.294  0.2208E+03  0.4189E+03
     -0.273  0.2113E+03  0.4235E+03
     -0.251  0.2190E+03  0.4282E+03
     -0.230  0.2268E+03  0.4330E+03
     -0.209  0.2264E+03  0.4379E+03
     -0.187  0.2263E+03  0.4427E+03
     -0.166  0.2249E+03  0.4475E+03
     -0.144  0.2148E+03  0.4521E+03
     -0.123  0.1979E+03  0.4564E+03
     -0.102  0.1838E+03  0.4603E+03
     -0.080  0.1759E+03  0.4641E+03
     -0.059  0.1869E+03  0.4681E+03
     -0.037  0.2026E+03  0.4724E+03
     -0.016  0.2115E+03  0.4769E+03
      0.006  0.2302E+03  0.4819E+03
      0.027  0.2510E+03  0.4873E+03
      0.048  0.2684E+03  0.4930E+03
      0.070  0.2827E+03  0.4991E+03
      0.091  0.2943E+03  0.5054E+03
      0.113  0.2999E+03  0.5118E+03
      0.134  0.2977E+03  0.5182E+03
      0.155  0.3000E+03  0.5246E+03
      0.177  0.3061E+03  0.5311E+03
      0.198  0.2988E+03  0.5375E+03
      0.220  0.2909E+03  0.5438E+03
      0.241  0.2840E+03  0.5499E+03
      0.263  0.2781E+03  0.5558E+03
      0.284  0.2765E+03  0.5617E+03
      0.305  0.2719E+03  0.5676E+03
      0.327  0.2708E+03  0.5734E+03
      0.348  0.2633E+03  0.5790E+03
      0.370  0.2407E+03  0.5841E+03
      0.391  0.2210E+03  0.5889E+03
      0.412  0.2120E+03  0.5934E+03
      0.434  0.2115E+03  0.5980E+03
      0.455  0.2195E+03  0.6027E+03
      0.477  0.2222E+03  0.6074E+03
      0.498  0.2080E+03  0.6119E+03
      0.520  0.1989E+03  0.6161E+03
      0.541  0.2104E+03  0.6206E+03
      0.562  0.2211E+03  0.6254E+03
      0.584  0.2231E+03  0.6301E+03
      0.605  0.2282E+03  0.6350E+03
      0.627  0.2392E+03  0.6402E+03
      0.648  0.2529E+03  0.6456E+03
      0.669  0.2667E+03  0.6513E+03
      0.691  0.2750E+03  0.6572E+03
      0.712  0.2745E+03  0.6631E+03
      0.734  0.2701E+03  0.6688E+03
      0.755  0.2671E+03  0.6746E+03
      0.777  0.2572E+03  0.6801E+03
      0.798  0.2445E+03  0.6853E+03
      0.819  0.2460E+03  0.6906E+03
      0.841  0.2473E+03  0.6959E+03
      0.862  0.2334E+03  0.7009E+03
      0.884  0.2293E+03  0.7058E+03
      0.905  0.2434E+03  0.7110E+03
      0.926  0.2506E+03  0.7164E+03
      0.948  0.2474E+03  0.7217E+03
      0.969  0.2403E+03  0.7268E+03
      0.991  0.2270E+03  0.7317E+03
      1.012  0.2114E+03  0.7362E+03
      1.034  0.2034E+03  0.7406E+03
      1.055  0.2091E+03  0.7450E+03
      1.076  0.2255E+03  0.7499E+03
      1.098  0.2423E+03  0.7551E+03
      1.119  0.2428E+03  0.7602E+03
      1.141  0.2380E+03  0.7653E+03
      1.162  0.2391E+03  0.7705E+03
      1.184  0.2365E+03  0.7755E+03
      1.205  0.2414E+03  0.7807E+03
      1.226  0.2506E+03  0.7861E+03
      1.248  0.2484E+03  0.7914E+03
      1.269  0.2427E+03  0.7966E+03
      1.291  0.2388E+03  0.8017E+03
      1.312  0.2348E+03  0.8067E+03
      1.333  0.2342E+03  0.8117E+03
      1.355  0.2371E+03  0.8168E+03
      1.376  0.2485E+03  0.8221E+03
      1.398  0.2478E+03  0.8275E+03
      1.419  0.2300E+03  0.8324E+03
      1.441  0.2219E+03  0.8371E+03
      1.462  0.2246E+03  0.8419E+03
      1.483  0.2140E+03  0.8465E+03
      1.505  0.1952E+03  0.8507E+03
      1.526  0.1900E+03  0.8548E+03
      1.548  0.2025E+03  0.8591E+03
      1.569  0.2191E+03  0.8638E+03
      1.590  0.2136E+03  0.8684E+03
      1.612  0.1978E+03  0.8726E+03
      1.633  0.1988E+03  0.8769E+03
      1.655  0.2005E+03  0.8812E+03
      1.676  0.1900E+03  0.8852E+03
      1.698  0.1887E+03  0.8893E+03
      1.719  0.1935E+03  0.8934E+03
      1.740  0.1845E+03  0.8974E+03
      1.762  0.1747E+03  0.9011E+03
      1.783  0.1721E+03  0.9048E+03
      1.805  0.1666E+03  0.9084E+03
      1.826  0.1615E+03  0.9118E+03
      1.847  0.1633E+03  0.9153E+03
      1.869  0.1680E+03  0.9189E+03
      1.890  0.1743E+03  0.9227E+03
      1.912  0.1812E+03  0.9265E+03
      1.933  0.1760E+03  0.9303E+03
      1.955  0.1582E+03  0.9337E+03
      1.976  0.1412E+03  0.9367E+03
      1.997  0.1281E+03  0.9395E+03
      2.019  0.1267E+03  0.9422E+03
      2.040  0.1475E+03  0.9453E+03
      2.062  0.1686E+03  0.9490E+03
      2.083  0.1723E+03  0.9526E+03
      2.104  0.1654E+03  0.9562E+03
      2.126  0.1569E+03  0.9595E+03
      2.147  0.1536E+03  0.9628E+03
      2.169  0.1555E+03  0.9662E+03
      2.190  0.1569E+03  0.9695E+03
      2.212  0.1563E+03  0.9729E+03
      2.233  0.1475E+03  0.9760E+03
      2.254  0.1332E+03  0.9789E+03
      2.276  0.1286E+03  0.9816E+03
      2.297  0.1326E+03  0.9845E+03
      2.319  0.1216E+03  0.9871E+03
      2.340  0.1067E+03  0.9894E+03
      2.361  0.1105E+03  0.9917E+03
      2.383  0.1188E+03  0.9943E+03
      2.404  0.1152E+03  0.9967E+03
      2.426  0.1120E+03  0.9991E+03
      2.447  0.1152E+03  0.1002E+04
      2.469  0.9655E+02  0.1004E+04
      2.490  0.6576E+02  0.1005E+04
      2.511  0.5490E+02  0.1006E+04
      2.533  0.6150E+02  0.1008E+04
      2.554  0.6135E+02  0.1009E+04
      2.576  0.3830E+02  0.1010E+04
      2.597  0.1165E+02  0.1010E+04
      2.618  0.1510E+01  0.1010E+04
      2.640  0.7837E-01  0.1010E+04
      2.661  0.1578E-02  0.1010E+04
      2.683  0.1208E-04  0.1010E+04
      2.704  0.3473E-07  0.1010E+04
      2.726  0.3716E-10  0.1010E+04
      2.747  0.1296E-13  0.1010E+04
      2.768  0.0000E+00  0.1010E+04
      2.790  0.0000E+00  0.1010E+04
      2.811  0.0000E+00  0.1010E+04
      2.833  0.0000E+00  0.1010E+04
      2.854  0.0000E+00  0.1010E+04
