 running on   64 total cores
 distrk:  each k-point on   32 cores,    2 groups
 distr:  one band on   32 cores,    1 groups
 vasp.6.2.1 16May21 (build Nov 23 2021 15:40:41) complex                        
  
 POSCAR found type information on POSCAR Li
 POSCAR found :  1 types and     504 ions
 scaLAPACK will be used
 -----------------------------------------------------------------------------
|                                                                             |
|           W    W    AA    RRRRR   N    N  II  N    N   GGGG   !!!           |
|           W    W   A  A   R    R  NN   N  II  NN   N  G    G  !!!           |
|           W    W  A    A  R    R  N N  N  II  N N  N  G       !!!           |
|           W WW W  AAAAAA  RRRRR   N  N N  II  N  N N  G  GGG   !            |
|           WW  WW  A    A  R   R   N   NN  II  N   NN  G    G                |
|           W    W  A    A  R    R  N    N  II  N    N   GGGG   !!!           |
|                                                                             |
|     For optimal performance we recommend to set                             |
|       NCORE = 2 up to number-of-cores-per-socket                            |
|     NCORE specifies how many cores store one orbital (NPAR=cpu/NCORE).      |
|     This setting can greatly improve the performance of VASP for DFT.       |
|     The default, NCORE=1 might be grossly inefficient on modern             |
|     multi-core architectures or massively parallel machines. Do your        |
|     own testing! More info at https://www.vasp.at/wiki/index.php/NCORE      |
|     Unfortunately you need to use the default for GW and RPA                |
|     calculations (for HF NCORE is supported but not extensively tested      |
|     yet).                                                                   |
|                                                                             |
 -----------------------------------------------------------------------------

 -----------------------------------------------------------------------------
|                                                                             |
|               ----> ADVICE to this user running VASP <----                  |
|                                                                             |
|     You have a (more or less) 'large supercell' and for larger cells it     |
|     might be more efficient to use real-space projection operators.         |
|     Therefore, try LREAL= Auto in the INCAR file.                           |
|     Mind: If you want to do very accurate calculations, keep the            |
|     reciprocal projection scheme (i.e. LREAL=.FALSE.).                      |
|                                                                             |
 -----------------------------------------------------------------------------

 LDA part: xc-table for Pade appr. of Perdew
 POSCAR found type information on POSCAR Li
 POSCAR found :  1 types and     504 ions
 POSCAR, INCAR and KPOINTS ok, starting setup
 FFT: planning ...
 WAVECAR not read
 entering main loop
       N       E                     dE             d eps       ncg     rms          rms(c)
DAV:   1    -0.326805303077E+03   -0.32681E+03   -0.11795E+05  4040   0.644E+02
DAV:   2    -0.888423591202E+03   -0.56162E+03   -0.51426E+03  4652   0.638E+01
DAV:   3    -0.929239906508E+03   -0.40816E+02   -0.37365E+02  5216   0.136E+01
DAV:   4    -0.930683774258E+03   -0.14439E+01   -0.14206E+01  4720   0.278E+00
DAV:   5    -0.930717271967E+03   -0.33498E-01   -0.33432E-01  4880   0.452E-01    0.821E+00
DAV:   6    -0.930091252361E+03    0.62602E+00   -0.78695E+00  4736   0.400E+00    0.741E+00
DAV:   7    -0.922724983524E+03    0.73663E+01   -0.78417E+00  4872   0.396E+00    0.441E+00
DAV:   8    -0.920763628694E+03    0.19614E+01   -0.48300E+00  4632   0.205E+00    0.245E+00
DAV:   9    -0.920453880364E+03    0.30975E+00   -0.24971E+00  4536   0.142E+00    0.161E+00
DAV:  10    -0.920291837325E+03    0.16204E+00   -0.90883E-01  4568   0.948E-01    0.109E+00
DAV:  11    -0.920203717862E+03    0.88119E-01   -0.29074E-01  4496   0.488E-01    0.595E-01
DAV:  12    -0.920228487314E+03   -0.24769E-01   -0.71924E-02  4864   0.321E-01    0.578E-01
DAV:  13    -0.920187881636E+03    0.40606E-01   -0.43729E-02  4800   0.251E-01    0.255E-01
DAV:  14    -0.920192179570E+03   -0.42979E-02   -0.15220E-02  4648   0.137E-01    0.214E-01
DAV:  15    -0.920186543122E+03    0.56364E-02   -0.99536E-03  4600   0.109E-01    0.928E-02
DAV:  16    -0.920186134625E+03    0.40850E-03   -0.24058E-03  4488   0.479E-02    0.568E-02
DAV:  17    -0.920186006155E+03    0.12847E-03   -0.83478E-04  4480   0.281E-02    0.331E-02
DAV:  18    -0.920185931048E+03    0.75107E-04   -0.26150E-04  4608   0.188E-02    0.225E-02
DAV:  19    -0.920185883773E+03    0.47275E-04   -0.97305E-05  4504   0.106E-02    0.108E-02
DAV:  20    -0.920185874000E+03    0.97724E-05   -0.41092E-05  4408   0.630E-03
   1 F= -.92018587E+03 E0= -.92011902E+03  d E =-.133716E+00
