Li                                      
           1
   -11.179105   19.362778   -0.000000
   -19.164180  -11.064444   -0.000000
     0.000000   -0.000000   23.447950
   Li
   504
Direct configuration=     1
   0.97296360  0.00213857  0.00653349
   0.93277518  0.03678723  0.65006611
   0.85692769  0.08521317  0.33231018
   0.77431592  0.11587723  0.98927243
   0.70838383  0.17938371  0.64026230
   0.64367596  0.21580622  0.32241479
   0.57814432  0.25886173  0.98855821
   0.49731985  0.28774244  0.64227293
   0.41959560  0.32771969  0.30975172
   0.35720330  0.36203492  0.00282281
   0.27567084  0.41946983  0.67166160
   0.22085889  0.46107308  0.34023890
   0.06440449  0.03940789  0.66783832
   0.00001360  0.08137044  0.33097039
   0.92208271  0.13247096  0.00412781
   0.85419578  0.15981940  0.65803125
   0.78840278  0.21811686  0.31959091
   0.72250914  0.25071731  0.99343936
   0.64328381  0.29688047  0.65653210
   0.56424071  0.34080646  0.32471934
   0.50028629  0.38408414  0.97002120
   0.41723261  0.42170916  0.65889998
   0.36716983  0.45394917  0.32143448
   0.29157612  0.49105034  0.00238096
   0.13166002  0.08331599  0.32744899
   0.05742531  0.12463761  0.00710455
   0.99693205  0.15070792  0.64912792
   0.92493746  0.20822754  0.32429401
   0.85747230  0.25363653  0.99719670
   0.76687742  0.28775371  0.66823050
   0.71331462  0.33127267  0.33257882
   0.65266859  0.37626444  0.99930590
   0.56216506  0.42323356  0.64687111
   0.51036662  0.45263233  0.33015648
   0.42979136  0.49352055  0.00140823
   0.35610469  0.53635058  0.66187833
   0.20669943  0.12691408  0.98844311
   0.13150911  0.17502702  0.66253096
   0.07019212  0.20670837  0.31789660
   0.00082362  0.25613541  0.00761228
   0.91431615  0.28882992  0.66935802
   0.85775622  0.32732340  0.32398604
   0.78839759  0.37417270  0.00528038
   0.71290355  0.41149485  0.67016069
   0.63767104  0.46190775  0.33201623
   0.58417788  0.49336730  0.00057352
   0.50339067  0.53933404  0.66260839
   0.43260689  0.57530056  0.31064529
   0.28490431  0.16921747  0.65696130
   0.21110567  0.20566328  0.33375004
   0.13352454  0.24120030  0.00721857
   0.05779772  0.29502541  0.65328014
   0.99355253  0.33064125  0.34396651
   0.94363685  0.37912052  0.02199809
   0.84962378  0.41882326  0.68675922
   0.78454979  0.45817696  0.33835402
   0.72013306  0.50490789  0.01813027
   0.63135060  0.54380652  0.67406708
   0.56588586  0.58125483  0.32284685
   0.50763513  0.63522218  0.99011963
   0.35166700  0.21778873  0.32193498
   0.28287640  0.24405554  0.98372255
   0.21530276  0.29354004  0.67759201
   0.13912793  0.32892414  0.34260283
   0.07715074  0.38393374  0.01032237
   0.98620183  0.41428403  0.66996070
   0.93104177  0.46068300  0.34527776
   0.85919966  0.50686062  0.02997553
   0.78624641  0.54784597  0.68465374
   0.71715428  0.58476201  0.35040695
   0.64377759  0.61657166  0.98559700
   0.55810615  0.66427223  0.65523281
   0.43119718  0.24692191  0.00928819
   0.35158177  0.29753560  0.67345286
   0.27700363  0.33593649  0.32712845
   0.21128278  0.38206829  0.00243076
   0.13447344  0.41454686  0.67424849
   0.06639527  0.46237496  0.34183521
   0.00264921  0.50243498  0.01247011
   0.92654647  0.53836080  0.67495655
   0.85410751  0.58546663  0.33942931
   0.78698584  0.62427541  0.00043258
   0.72013825  0.67105340  0.66292196
   0.62985070  0.70871818  0.33009728
   0.15083149  0.51430960  0.01243900
   0.07201179  0.51965711  0.66878796
   0.00531127  0.57924461  0.35739872
   0.92881651  0.62655667  0.01972267
   0.87096677  0.66102164  0.67394334
   0.77623550  0.70661656  0.34333280
   0.70120560  0.74992289  0.99811521
   0.21571315  0.53313359  0.65284278
   0.14801602  0.57811504  0.34367688
   0.06704235  0.63125233  0.00013498
   0.00863036  0.66505917  0.66930535
   0.92511401  0.70170260  0.34595363
   0.84897361  0.75472349  0.01088985
   0.80184719  0.79755191  0.68171685
   0.28470979  0.56441142  0.32701092
   0.22550406  0.63404312  0.99520317
   0.14302921  0.65565378  0.66545730
   0.06606751  0.69710730  0.34676081
   0.99152790  0.76456715  0.00752798
   0.94142474  0.78824591  0.65156739
   0.84863826  0.83081318  0.31660160
   0.35906089  0.63138496  0.98880952
   0.28436902  0.65258631  0.66306413
   0.21054254  0.68888925  0.32776870
   0.14846772  0.75337406  0.00353300
   0.06640572  0.77992040  0.66282901
   0.01282500  0.81582872  0.32562587
   0.91476398  0.88178517  0.02727963
   0.42385725  0.67011849  0.63713725
   0.35092221  0.70988555  0.34787485
   0.28783273  0.75709973  0.98593464
   0.21175083  0.79530940  0.67207867
   0.13935834  0.83020433  0.34749670
   0.06542699  0.87544767  0.01336232
   0.00218898  0.91594292  0.65957929
   0.93086311  0.95913298  0.33168214
   0.84404720  0.00535777  0.00516706
   0.79571048  0.03602966  0.66437224
   0.72410307  0.08802193  0.31719302
   0.63971568  0.11363124  0.97326385
   0.57031347  0.17185511  0.65090434
   0.48747187  0.21319382  0.33722826
   0.07104937  0.96095078  0.33875241
   0.13695618  0.00842014  0.00236910
   0.21901274  0.04053543  0.66294542
   0.27290201  0.08490220  0.33065079
   0.36888701  0.12250545  0.00410950
   0.42657766  0.16250559  0.68018188
   0.86205482  0.91297797  0.66421297
   0.78309070  0.96401010  0.33847134
   0.69933261  0.99493113  0.00152103
   0.64408783  0.04178241  0.66748474
   0.56986225  0.09524372  0.31246625
   0.50521599  0.12255204  0.01510269
   0.14029199  0.91831961  0.66989584
   0.20957381  0.96627191  0.32346191
   0.28447641  0.99637630  0.98301029
   0.35114993  0.04330795  0.66628671
   0.41724097  0.08810578  0.33834788
   0.77592368  0.88299696  0.00701516
   0.72498119  0.90929417  0.68324906
   0.63601621  0.96145949  0.33089692
   0.56909296  0.99624726  0.00450573
   0.49190645  0.04784060  0.65155642
   0.21732065  0.87968454  0.97528206
   0.28310741  0.92161301  0.65554099
   0.34950242  0.95994524  0.33961944
   0.44220621  0.99699620  0.00806641
   0.70366815  0.82551219  0.34859780
   0.60931221  0.87839660  0.00387402
   0.56784348  0.92411287  0.68152913
   0.49040836  0.96492665  0.33175497
   0.28278827  0.83173765  0.33424323
   0.35354677  0.87936583  0.99006819
   0.41739631  0.93176075  0.66113386
   0.64355222  0.80043847  0.65418070
   0.56204730  0.83287800  0.32797528
   0.49299913  0.88237320  0.99715556
   0.36023291  0.80059573  0.66141784
   0.41236851  0.83622898  0.32286601
   0.56897519  0.75591121  0.00393314
   0.49862731  0.80522539  0.65181502
   0.42446802  0.75684736  0.98836573
   0.49677684  0.70837688  0.33147128
   0.98999292  0.97791995  0.79016735
   0.94353063  0.04628362  0.43805034
   0.86402825  0.05506277  0.10018038
   0.76790335  0.13278861  0.75323218
   0.72518527  0.15918501  0.43844750
   0.63095563  0.20767881  0.10386872
   0.57518136  0.26549688  0.77456540
   0.50636730  0.30604928  0.44538923
   0.41496897  0.34645179  0.09771422
   0.36368539  0.37077271  0.77658389
   0.30567626  0.41679952  0.44978398
   0.20839417  0.45746456  0.12237533
   0.06364728  0.03900278  0.43772010
   0.01989560  0.07555620  0.11013792
   0.91737723  0.13018350  0.78081721
   0.86530354  0.15569271  0.44343102
   0.78492407  0.20606037  0.08473279
   0.69171146  0.25021064  0.76448878
   0.66019790  0.29314544  0.45102923
   0.57041874  0.33203558  0.10584245
   0.51292325  0.38734624  0.78102937
   0.43247956  0.41172381  0.46329496
   0.35509257  0.46065565  0.09517899
   0.29209196  0.51470810  0.79674651
   0.15321108  0.09646322  0.11393892
   0.06290203  0.10990760  0.78078226
   0.00170811  0.17073011  0.44147820
   0.92152310  0.19921207  0.11777369
   0.83321574  0.25221988  0.74917900
   0.79354162  0.29937458  0.42212712
   0.69709620  0.31825267  0.11112276
   0.64649713  0.39887972  0.77737380
   0.58778233  0.42113276  0.42561162
   0.49143605  0.45308700  0.10747914
   0.43013220  0.52056120  0.77591582
   0.36600479  0.54673317  0.42494137
   0.22098749  0.12600483  0.78521605
   0.13095148  0.15969955  0.43320369
   0.08144545  0.22118400  0.11325861
   0.97836082  0.23738754  0.78380894
   0.92276692  0.28696591  0.45141904
   0.85123995  0.33226968  0.10196379
   0.78208444  0.37142913  0.78913094
   0.72953410  0.42243089  0.45209202
   0.65737269  0.45085539  0.11557999
   0.55813861  0.50614780  0.76490110
   0.50640404  0.52687479  0.43327234
   0.41973766  0.58088396  0.09927919
   0.26725029  0.16900307  0.45116144
   0.20519584  0.23257852  0.12180247
   0.12503960  0.25830104  0.78135566
   0.07501449  0.28721884  0.43854173
   0.98605933  0.32362706  0.12134870
   0.91762594  0.38530552  0.79494256
   0.87555129  0.41710257  0.44658561
   0.79020241  0.46287026  0.13085134
   0.71725482  0.50491332  0.79314101
   0.65721298  0.53515997  0.44641481
   0.57360609  0.56341602  0.10992439
   0.52483938  0.62483574  0.76537221
   0.34829638  0.20721157  0.11313301
   0.27461610  0.23614763  0.76671057
   0.20185303  0.29755778  0.45988011
   0.14686147  0.33833874  0.11663604
   0.06112811  0.37395545  0.78508078
   0.00830367  0.41232485  0.43433527
   0.92318076  0.45468716  0.13221687
   0.85211075  0.51143312  0.81205640
   0.79003055  0.54703811  0.45099947
   0.71386115  0.59005413  0.11588951
   0.65498043  0.62671419  0.78951959
   0.57122220  0.66026560  0.42906430
   0.44785520  0.25459354  0.76890800
   0.35187318  0.28486387  0.45019718
   0.26559609  0.34537482  0.11660875
   0.21367126  0.37057708  0.78337708
   0.13864530  0.43455036  0.45590611
   0.06522238  0.44418117  0.13498184
   0.02177701  0.49737870  0.78755872
   0.93243673  0.52905836  0.45387113
   0.85919122  0.58843914  0.12512104
   0.78649711  0.63831158  0.79879640
   0.72718580  0.66881192  0.44552596
   0.63621334  0.70490001  0.12218705
   0.15156567  0.50337622  0.77218875
   0.08432217  0.54109550  0.45838219
   0.99438527  0.59283164  0.12778509
   0.93161565  0.64109591  0.79741366
   0.86120242  0.65375551  0.44130406
   0.78006098  0.68999278  0.11790077
   0.72837319  0.76441203  0.79552937
   0.22151902  0.53899994  0.43927989
   0.14262557  0.58222465  0.12043143
   0.07084481  0.62618562  0.78775397
   0.01906940  0.66652719  0.45892767
   0.92195254  0.72413827  0.10510842
   0.86402233  0.76210859  0.78265636
   0.77199044  0.80492507  0.43959508
   0.28879174  0.59228818  0.11792947
   0.24475574  0.61343550  0.77235750
   0.14955471  0.67385307  0.45828370
   0.06417396  0.71379253  0.13463841
   0.01214713  0.76015151  0.77359516
   0.92749204  0.79818030  0.44250479
   0.83932496  0.82433841  0.13467534
   0.36702559  0.63387334  0.76212084
   0.27008689  0.67672215  0.42551095
   0.22324394  0.70598396  0.11285527
   0.16581131  0.75828667  0.78901008
   0.06252548  0.79002502  0.45468206
   0.00011591  0.83736347  0.12480940
   0.91562632  0.87461096  0.79054834
   0.41132206  0.66383471  0.41915633
   0.35970974  0.70995597  0.09565304
   0.30567091  0.76564487  0.77055491
   0.20753948  0.76840326  0.45423851
   0.13621346  0.82471175  0.13611782
   0.07899336  0.85259931  0.76783835
   0.98263499  0.93142718  0.44701968
   0.93599166  0.96515618  0.13582644
   0.85896013  0.00448422  0.76955726
   0.79879307  0.05612619  0.45021096
   0.73316592  0.09216423  0.09384183
   0.63328577  0.12044614  0.77747382
   0.58841673  0.16666799  0.42968482
   0.50682678  0.20369674  0.11492431
   0.08134436  0.95571452  0.13750005
   0.14614900  0.99138221  0.77561025
   0.19919654  0.04593889  0.41631060
   0.27363332  0.09123305  0.09245198
   0.35941060  0.13816239  0.76972517
   0.45022546  0.16321542  0.45338044
   0.85431167  0.92492145  0.40749937
   0.79278141  0.94034659  0.13314689
   0.70730404  0.00667405  0.78992090
   0.66991933  0.04765763  0.42458201
   0.58227684  0.07382109  0.11335940
   0.50820652  0.13572720  0.75415659
   0.12904947  0.90870018  0.44724617
   0.19999003  0.95814339  0.10244794
   0.28603627  0.00903443  0.77504017
   0.35692981  0.04524518  0.44034048
   0.43563132  0.10216794  0.11643897
   0.78952147  0.88035021  0.79584522
   0.71028113  0.92281125  0.43231981
   0.65498893  0.96040473  0.12576089
   0.56236983  0.99563292  0.76862148
   0.51467419  0.04526003  0.41566746
   0.21602055  0.87306091  0.78118435
   0.25347055  0.92644674  0.43572278
   0.35705078  0.95792217  0.11310375
   0.42668151  0.99626032  0.78484747
   0.70583352  0.81897933  0.12878404
   0.63076448  0.87198917  0.78091973
   0.58895813  0.91603721  0.44254704
   0.50707177  0.97115360  0.11677563
   0.30267343  0.83308808  0.10052121
   0.37960000  0.88104876  0.77933673
   0.42125172  0.92553248  0.44169221
   0.63564038  0.77913771  0.44819342
   0.59181949  0.84300011  0.10704059
   0.52231371  0.86319207  0.78439535
   0.34220951  0.81965401  0.42637517
   0.44307793  0.84190364  0.10779768
   0.57903564  0.74442102  0.76518509
   0.49845028  0.78419973  0.43131000
   0.45183691  0.75616362  0.76857364
   0.51014492  0.69044603  0.10237091
   0.01796629  0.00904424  0.22022599
   0.92981191  0.02054418  0.88413603
   0.88068477  0.09435874  0.54829629
   0.77841959  0.10531687  0.20851539
   0.72421686  0.16891065  0.87573580
   0.63193830  0.21548544  0.55519675
   0.56027500  0.24537338  0.22037518
   0.49933870  0.28495103  0.87656837
   0.42403049  0.33803855  0.56280741
   0.34597518  0.34487504  0.20998757
   0.28018976  0.40583196  0.90011493
   0.20219507  0.45929887  0.55712264
   0.06710697  0.03948815  0.88069641
   0.02144651  0.08644991  0.54401503
   0.93737084  0.11649410  0.21636871
   0.87037071  0.16706283  0.88319488
   0.78824037  0.20853856  0.54872818
   0.70456483  0.24715777  0.20737447
   0.64564228  0.27995513  0.89048811
   0.58803749  0.33459888  0.54839417
   0.48657023  0.35331379  0.24563217
   0.43618673  0.40692313  0.88781298
   0.36168307  0.46364037  0.56806951
   0.29691178  0.49575065  0.22381791
   0.15346611  0.09445816  0.54425724
   0.08789891  0.14133177  0.21116447
   0.00477574  0.16421603  0.89688958
   0.94736795  0.23308066  0.56485860
   0.85150057  0.25544365  0.22195224
   0.78182405  0.28458646  0.86912752
   0.73721037  0.33384796  0.57373939
   0.64318951  0.35309430  0.22764170
   0.58983027  0.40316435  0.87101814
   0.51629025  0.46019091  0.53342881
   0.42270497  0.49718790  0.21292374
   0.35889020  0.54362355  0.89986086
   0.22486523  0.13236162  0.20990081
   0.14056550  0.17937449  0.89529886
   0.08091291  0.21953325  0.53020343
   0.98666917  0.25253536  0.21907641
   0.92552123  0.28764005  0.89231851
   0.87711655  0.34476338  0.55531687
   0.77168877  0.37502409  0.20856208
   0.70171892  0.41506970  0.88773894
   0.66464077  0.45054673  0.55869601
   0.56193826  0.48641752  0.20760044
   0.50919498  0.53844696  0.88607356
   0.43184851  0.57503816  0.53644825
   0.29015470  0.15208349  0.89649424
   0.22072971  0.21546682  0.54126393
   0.14168918  0.25865310  0.21485108
   0.05939550  0.28996700  0.91978386
   0.01489221  0.33748827  0.55788992
   0.92561803  0.38019715  0.22280100
   0.85808893  0.42148094  0.91658992
   0.79873618  0.45034785  0.57580367
   0.69700777  0.49677991  0.22023640
   0.64484399  0.53010062  0.89850203
   0.56230364  0.57569364  0.55055456
   0.49409384  0.61062560  0.19963753
   0.36170157  0.20575822  0.55375810
   0.27372755  0.25071474  0.21684837
   0.21101710  0.29851802  0.87250212
   0.14326327  0.34991559  0.55588946
   0.06996898  0.36802098  0.23511045
   0.98365140  0.40930034  0.90992154
   0.93425725  0.47018696  0.55474098
   0.84229034  0.51166725  0.23062535
   0.78330987  0.53549497  0.88970300
   0.71062976  0.58072152  0.56146928
   0.63009945  0.63418173  0.22712593
   0.56655161  0.67371628  0.88640186
   0.41946271  0.23358929  0.21501852
   0.36405586  0.27068795  0.89960616
   0.28256157  0.32337835  0.58183063
   0.19974425  0.39001042  0.23157292
   0.14009644  0.40620637  0.90082830
   0.07889722  0.47353832  0.56709939
   0.98489342  0.50108258  0.26255452
   0.93885170  0.53072873  0.88028410
   0.84084170  0.58546070  0.57393058
   0.78071808  0.62505023  0.22814908
   0.72176451  0.68188735  0.89644775
   0.64775909  0.70104186  0.52996852
   0.12525396  0.49558234  0.24536678
   0.07443925  0.54581863  0.89692052
   0.00402205  0.59280600  0.57364874
   0.92103993  0.64764435  0.23748985
   0.87198794  0.64524528  0.89347294
   0.77329391  0.70362550  0.57133727
   0.71244236  0.73193776  0.22705381
   0.19931213  0.54409974  0.88225363
   0.14970737  0.58365549  0.54716753
   0.06445182  0.62798439  0.24522566
   0.00824395  0.65843444  0.90091692
   0.92342432  0.70496170  0.56449194
   0.85226284  0.74638569  0.23901046
   0.81074624  0.79610832  0.90132322
   0.28064093  0.56923466  0.55364349
   0.21943751  0.62969256  0.22682185
   0.13580951  0.64836293  0.90335495
   0.08393615  0.72677797  0.56188115
   0.01634460  0.75131480  0.22268609
   0.94670093  0.76579063  0.91337873
   0.83070744  0.82118585  0.55585056
   0.35938743  0.62590750  0.21996356
   0.28436338  0.67032108  0.88951496
   0.22393173  0.71559474  0.56820532
   0.16203014  0.75024820  0.23612166
   0.09266673  0.80283879  0.87702628
   0.97653732  0.83350329  0.55803656
   0.91759609  0.86333924  0.24284342
   0.42911913  0.65943673  0.86643611
   0.35168079  0.72715907  0.53716769
   0.29779303  0.75635509  0.21073737
   0.22585008  0.78432134  0.89956286
   0.14213846  0.83204895  0.55208656
   0.06473504  0.87581540  0.24212238
   0.02039094  0.90123694  0.88927500
   0.91766362  0.96443044  0.54091529
   0.85819470  0.00168037  0.22175430
   0.79739972  0.04467148  0.89728626
   0.71110046  0.07141879  0.54736574
   0.63689969  0.13756136  0.22445581
   0.57235494  0.14714834  0.86855112
   0.49396950  0.19839997  0.55331100
   0.05136919  0.96226658  0.56511802
   0.14208540  0.99537423  0.23123062
   0.21131408  0.03733691  0.88596499
   0.28973778  0.08480574  0.55057385
   0.35922089  0.10317160  0.21737614
   0.44307033  0.15415410  0.90335625
   0.85499986  0.91346834  0.89829644
   0.79942688  0.96322553  0.53879069
   0.70720669  0.00587554  0.25374890
   0.64906029  0.03938524  0.85843352
   0.56649685  0.07128327  0.53653815
   0.50162066  0.12100847  0.20627394
   0.14980730  0.92341179  0.88161966
   0.19415999  0.96695914  0.54681595
   0.26834234  0.99105156  0.22794250
   0.35631759  0.04091233  0.88803870
   0.44258122  0.07894647  0.54009860
   0.77322848  0.86355753  0.23423473
   0.71863156  0.90286395  0.90161845
   0.62442887  0.95247118  0.56860617
   0.57207841  0.00478207  0.22702421
   0.50860962  0.02774988  0.87821519
   0.20762535  0.86402605  0.20771445
   0.27810465  0.93074704  0.88538171
   0.37110142  0.96258761  0.55593338
   0.42312315  0.97636654  0.23360657
   0.70972477  0.83315513  0.56776644
   0.62936242  0.87182834  0.22293068
   0.58101204  0.92687488  0.89363355
   0.51765240  0.95584954  0.52622434
   0.28520866  0.84551042  0.53972095
   0.36683742  0.87363960  0.22348250
   0.42566763  0.91741726  0.90400861
   0.64908417  0.79666082  0.90186169
   0.57551650  0.83065735  0.55439771
   0.50927941  0.86116884  0.23098905
   0.35722478  0.79979058  0.87668570
   0.44760702  0.84576112  0.54004736
   0.56932506  0.73776414  0.19122230
   0.49928755  0.79883038  0.89731419
   0.44303954  0.75859704  0.22591158
   0.50298589  0.70235375  0.53181876
