 500 500   0   0
  0.1910214E+02  0.2121700E-08  0.2121700E-08  0.2121700E-08  0.5000000E-15
  1.000000000000000E-004
  CAR 
 Li                                      
      3.68356849     -3.35133591  301      0.54773997      1.00000000
     -3.351  0.0000E+00  0.0000E+00
     -3.328  0.0000E+00  0.0000E+00
     -3.304  0.0000E+00  0.0000E+00
     -3.281  0.0000E+00  0.0000E+00
     -3.258  0.0000E+00  0.0000E+00
     -3.234  0.0000E+00  0.0000E+00
     -3.211  0.0000E+00  0.0000E+00
     -3.187  0.9000E-11  0.2111E-12
     -3.164  0.1911E-07  0.4484E-09
     -3.140  0.1229E-04  0.2886E-06
     -3.117  0.2414E-02  0.5689E-04
     -3.093  0.1469E+00  0.3501E-02
     -3.070  0.2819E+01  0.6960E-01
     -3.046  0.1743E+02  0.4783E+00
     -3.023  0.3539E+02  0.1308E+01
     -3.000  0.2384E+02  0.1867E+01
     -2.976  0.5868E+01  0.2005E+01
     -2.953  0.8585E+01  0.2206E+01
     -2.929  0.4317E+02  0.3218E+01
     -2.906  0.9112E+02  0.5355E+01
     -2.882  0.8020E+02  0.7236E+01
     -2.859  0.2891E+02  0.7914E+01
     -2.835  0.9385E+01  0.8134E+01
     -2.812  0.3392E+02  0.8929E+01
     -2.789  0.8343E+02  0.1089E+02
     -2.765  0.8784E+02  0.1295E+02
     -2.742  0.3850E+02  0.1385E+02
     -2.718  0.1187E+02  0.1413E+02
     -2.695  0.3779E+02  0.1501E+02
     -2.671  0.1017E+03  0.1740E+02
     -2.648  0.1190E+03  0.2019E+02
     -2.624  0.6273E+02  0.2166E+02
     -2.601  0.2366E+02  0.2221E+02
     -2.577  0.5334E+02  0.2347E+02
     -2.554  0.1221E+03  0.2633E+02
     -2.531  0.1554E+03  0.2997E+02
     -2.507  0.1177E+03  0.3273E+02
     -2.484  0.4746E+02  0.3385E+02
     -2.460  0.2217E+02  0.3437E+02
     -2.437  0.5341E+02  0.3562E+02
     -2.413  0.8473E+02  0.3760E+02
     -2.390  0.6896E+02  0.3922E+02
     -2.366  0.3199E+02  0.3997E+02
     -2.343  0.3552E+02  0.4081E+02
     -2.320  0.1001E+03  0.4315E+02
     -2.296  0.1568E+03  0.4683E+02
     -2.273  0.1385E+03  0.5008E+02
     -2.249  0.7337E+02  0.5180E+02
     -2.226  0.5649E+02  0.5312E+02
     -2.202  0.1189E+03  0.5591E+02
     -2.179  0.1868E+03  0.6029E+02
     -2.155  0.1967E+03  0.6490E+02
     -2.132  0.1442E+03  0.6829E+02
     -2.109  0.6442E+02  0.6980E+02
     -2.085  0.3489E+02  0.7062E+02
     -2.062  0.6684E+02  0.7218E+02
     -2.038  0.8810E+02  0.7425E+02
     -2.015  0.5805E+02  0.7561E+02
     -1.991  0.2964E+02  0.7630E+02
     -1.968  0.6742E+02  0.7789E+02
     -1.944  0.1487E+03  0.8137E+02
     -1.921  0.1833E+03  0.8567E+02
     -1.897  0.1307E+03  0.8874E+02
     -1.874  0.6298E+02  0.9021E+02
     -1.851  0.7971E+02  0.9208E+02
     -1.827  0.1566E+03  0.9575E+02
     -1.804  0.1962E+03  0.1004E+03
     -1.780  0.1781E+03  0.1045E+03
     -1.757  0.1122E+03  0.1072E+03
     -1.733  0.5665E+02  0.1085E+03
     -1.710  0.8387E+02  0.1105E+03
     -1.686  0.1407E+03  0.1138E+03
     -1.663  0.1480E+03  0.1172E+03
     -1.640  0.9634E+02  0.1195E+03
     -1.616  0.7178E+02  0.1212E+03
     -1.593  0.1329E+03  0.1243E+03
     -1.569  0.1997E+03  0.1290E+03
     -1.546  0.2000E+03  0.1337E+03
     -1.522  0.1336E+03  0.1368E+03
     -1.499  0.7466E+02  0.1385E+03
     -1.475  0.1070E+03  0.1411E+03
     -1.452  0.1833E+03  0.1454E+03
     -1.428  0.2092E+03  0.1503E+03
     -1.405  0.1603E+03  0.1540E+03
     -1.382  0.8388E+02  0.1560E+03
     -1.358  0.6969E+02  0.1576E+03
     -1.335  0.1140E+03  0.1603E+03
     -1.311  0.1425E+03  0.1636E+03
     -1.288  0.1194E+03  0.1664E+03
     -1.264  0.7371E+02  0.1682E+03
     -1.241  0.8029E+02  0.1700E+03
     -1.217  0.1270E+03  0.1730E+03
     -1.194  0.1418E+03  0.1763E+03
     -1.171  0.1099E+03  0.1789E+03
     -1.147  0.8527E+02  0.1809E+03
     -1.124  0.1424E+03  0.1843E+03
     -1.100  0.2310E+03  0.1897E+03
     -1.077  0.2802E+03  0.1962E+03
     -1.053  0.2721E+03  0.2026E+03
     -1.030  0.2041E+03  0.2074E+03
     -1.006  0.1402E+03  0.2107E+03
     -0.983  0.1597E+03  0.2144E+03
     -0.959  0.2032E+03  0.2192E+03
     -0.936  0.1869E+03  0.2236E+03
     -0.913  0.1303E+03  0.2267E+03
     -0.889  0.8235E+02  0.2286E+03
     -0.866  0.8722E+02  0.2306E+03
     -0.842  0.1395E+03  0.2339E+03
     -0.819  0.1772E+03  0.2381E+03
     -0.795  0.1583E+03  0.2418E+03
     -0.772  0.1597E+03  0.2455E+03
     -0.748  0.2112E+03  0.2505E+03
     -0.725  0.2275E+03  0.2558E+03
     -0.702  0.1922E+03  0.2603E+03
     -0.678  0.1444E+03  0.2637E+03
     -0.655  0.8896E+02  0.2658E+03
     -0.631  0.6230E+02  0.2672E+03
     -0.608  0.7093E+02  0.2689E+03
     -0.584  0.7636E+02  0.2707E+03
     -0.561  0.8154E+02  0.2726E+03
     -0.537  0.1328E+03  0.2757E+03
     -0.514  0.2147E+03  0.2807E+03
     -0.490  0.2638E+03  0.2869E+03
     -0.467  0.2684E+03  0.2932E+03
     -0.444  0.2515E+03  0.2991E+03
     -0.420  0.2336E+03  0.3046E+03
     -0.397  0.2162E+03  0.3097E+03
     -0.373  0.2186E+03  0.3148E+03
     -0.350  0.2419E+03  0.3205E+03
     -0.326  0.2490E+03  0.3263E+03
     -0.303  0.2143E+03  0.3313E+03
     -0.279  0.1582E+03  0.3350E+03
     -0.256  0.1250E+03  0.3380E+03
     -0.233  0.1286E+03  0.3410E+03
     -0.209  0.1386E+03  0.3442E+03
     -0.186  0.1637E+03  0.3481E+03
     -0.162  0.1925E+03  0.3526E+03
     -0.139  0.1893E+03  0.3570E+03
     -0.115  0.1763E+03  0.3612E+03
     -0.092  0.1683E+03  0.3651E+03
     -0.068  0.1780E+03  0.3693E+03
     -0.045  0.2016E+03  0.3740E+03
     -0.021  0.2264E+03  0.3793E+03
      0.002  0.2428E+03  0.3850E+03
      0.025  0.2327E+03  0.3905E+03
      0.049  0.2173E+03  0.3956E+03
      0.072  0.2068E+03  0.4004E+03
      0.096  0.1971E+03  0.4050E+03
      0.119  0.1913E+03  0.4095E+03
      0.143  0.1816E+03  0.4138E+03
      0.166  0.1672E+03  0.4177E+03
      0.190  0.1792E+03  0.4219E+03
      0.213  0.2017E+03  0.4266E+03
      0.236  0.2134E+03  0.4316E+03
      0.260  0.2083E+03  0.4365E+03
      0.283  0.2041E+03  0.4413E+03
      0.307  0.2017E+03  0.4460E+03
      0.330  0.2073E+03  0.4509E+03
      0.354  0.2191E+03  0.4560E+03
      0.377  0.2124E+03  0.4610E+03
      0.401  0.2034E+03  0.4658E+03
      0.424  0.2077E+03  0.4707E+03
      0.448  0.2180E+03  0.4758E+03
      0.471  0.2333E+03  0.4812E+03
      0.494  0.2472E+03  0.4870E+03
      0.518  0.2449E+03  0.4928E+03
      0.541  0.2412E+03  0.4984E+03
      0.565  0.2408E+03  0.5041E+03
      0.588  0.2302E+03  0.5095E+03
      0.612  0.2177E+03  0.5146E+03
      0.635  0.2152E+03  0.5196E+03
      0.659  0.2333E+03  0.5251E+03
      0.682  0.2545E+03  0.5311E+03
      0.705  0.2717E+03  0.5375E+03
      0.729  0.2827E+03  0.5441E+03
      0.752  0.2782E+03  0.5506E+03
      0.776  0.2861E+03  0.5573E+03
      0.799  0.2884E+03  0.5641E+03
      0.823  0.2644E+03  0.5703E+03
      0.846  0.2513E+03  0.5762E+03
      0.870  0.2495E+03  0.5820E+03
      0.893  0.2310E+03  0.5874E+03
      0.917  0.2146E+03  0.5925E+03
      0.940  0.2206E+03  0.5976E+03
      0.963  0.2242E+03  0.6029E+03
      0.987  0.2121E+03  0.6079E+03
      1.010  0.2025E+03  0.6126E+03
      1.034  0.1877E+03  0.6170E+03
      1.057  0.1742E+03  0.6211E+03
      1.081  0.1694E+03  0.6251E+03
      1.104  0.1608E+03  0.6289E+03
      1.128  0.1631E+03  0.6327E+03
      1.151  0.1777E+03  0.6368E+03
      1.174  0.1905E+03  0.6413E+03
      1.198  0.2016E+03  0.6460E+03
      1.221  0.2221E+03  0.6512E+03
      1.245  0.2365E+03  0.6568E+03
      1.268  0.2340E+03  0.6623E+03
      1.292  0.2271E+03  0.6676E+03
      1.315  0.2302E+03  0.6730E+03
      1.339  0.2349E+03  0.6785E+03
      1.362  0.2286E+03  0.6839E+03
      1.385  0.2153E+03  0.6889E+03
      1.409  0.2086E+03  0.6938E+03
      1.432  0.2095E+03  0.6987E+03
      1.456  0.2074E+03  0.7036E+03
      1.479  0.2028E+03  0.7083E+03
      1.503  0.1955E+03  0.7129E+03
      1.526  0.1891E+03  0.7174E+03
      1.550  0.1901E+03  0.7218E+03
      1.573  0.2018E+03  0.7265E+03
      1.597  0.2160E+03  0.7316E+03
      1.620  0.2032E+03  0.7364E+03
      1.643  0.1877E+03  0.7408E+03
      1.667  0.1897E+03  0.7452E+03
      1.690  0.1936E+03  0.7498E+03
      1.714  0.1915E+03  0.7543E+03
      1.737  0.1954E+03  0.7588E+03
      1.761  0.1849E+03  0.7632E+03
      1.784  0.1641E+03  0.7670E+03
      1.808  0.1553E+03  0.7707E+03
      1.831  0.1529E+03  0.7743E+03
      1.854  0.1514E+03  0.7778E+03
      1.878  0.1540E+03  0.7814E+03
      1.901  0.1609E+03  0.7852E+03
      1.925  0.1622E+03  0.7890E+03
      1.948  0.1559E+03  0.7926E+03
      1.972  0.1591E+03  0.7964E+03
      1.995  0.1709E+03  0.8004E+03
      2.019  0.1838E+03  0.8047E+03
      2.042  0.1841E+03  0.8090E+03
      2.066  0.1870E+03  0.8134E+03
      2.089  0.1930E+03  0.8179E+03
      2.112  0.1907E+03  0.8224E+03
      2.136  0.1924E+03  0.8269E+03
      2.159  0.1991E+03  0.8316E+03
      2.183  0.2033E+03  0.8363E+03
      2.206  0.1995E+03  0.8410E+03
      2.230  0.1829E+03  0.8453E+03
      2.253  0.1739E+03  0.8494E+03
      2.277  0.1740E+03  0.8535E+03
      2.300  0.1656E+03  0.8574E+03
      2.323  0.1532E+03  0.8609E+03
      2.347  0.1481E+03  0.8644E+03
      2.370  0.1406E+03  0.8677E+03
      2.394  0.1378E+03  0.8709E+03
      2.417  0.1523E+03  0.8745E+03
      2.441  0.1616E+03  0.8783E+03
      2.464  0.1549E+03  0.8819E+03
      2.488  0.1572E+03  0.8856E+03
      2.511  0.1592E+03  0.8894E+03
      2.535  0.1565E+03  0.8930E+03
      2.558  0.1495E+03  0.8965E+03
      2.581  0.1419E+03  0.8999E+03
      2.605  0.1306E+03  0.9029E+03
      2.628  0.1229E+03  0.9058E+03
      2.652  0.1299E+03  0.9089E+03
      2.675  0.1406E+03  0.9122E+03
      2.699  0.1452E+03  0.9156E+03
      2.722  0.1529E+03  0.9191E+03
      2.746  0.1588E+03  0.9229E+03
      2.769  0.1545E+03  0.9265E+03
      2.792  0.1565E+03  0.9302E+03
      2.816  0.1582E+03  0.9339E+03
      2.839  0.1470E+03  0.9373E+03
      2.863  0.1303E+03  0.9404E+03
      2.886  0.1222E+03  0.9432E+03
      2.910  0.1306E+03  0.9463E+03
      2.933  0.1407E+03  0.9496E+03
      2.957  0.1472E+03  0.9531E+03
      2.980  0.1424E+03  0.9564E+03
      3.004  0.1323E+03  0.9595E+03
      3.027  0.1411E+03  0.9628E+03
      3.050  0.1550E+03  0.9664E+03
      3.074  0.1460E+03  0.9699E+03
      3.097  0.1341E+03  0.9730E+03
      3.121  0.1266E+03  0.9760E+03
      3.144  0.1238E+03  0.9789E+03
      3.168  0.1219E+03  0.9817E+03
      3.191  0.1135E+03  0.9844E+03
      3.215  0.9437E+02  0.9866E+03
      3.238  0.8376E+02  0.9886E+03
      3.261  0.9141E+02  0.9907E+03
      3.285  0.9795E+02  0.9930E+03
      3.308  0.9760E+02  0.9953E+03
      3.332  0.9931E+02  0.9976E+03
      3.355  0.9789E+02  0.9999E+03
      3.379  0.6525E+02  0.1001E+04
      3.402  0.2036E+02  0.1002E+04
      3.426  0.2456E+01  0.1002E+04
      3.449  0.1043E+00  0.1002E+04
      3.473  0.1473E-02  0.1002E+04
      3.496  0.6674E-05  0.1002E+04
      3.519  0.9464E-08  0.1002E+04
      3.543  0.4128E-11  0.1002E+04
      3.566  0.0000E+00  0.1002E+04
      3.590  0.0000E+00  0.1002E+04
      3.613  0.0000E+00  0.1002E+04
      3.637  0.0000E+00  0.1002E+04
      3.660  0.0000E+00  0.1002E+04
      3.684  0.0000E+00  0.1002E+04
