       N       E                     dE             d eps       ncg     rms          rms(c)
DAV:   1    -0.236914175533E+03   -0.23691E+03   -0.12352E+05  4008   0.662E+02
DAV:   2    -0.858768640274E+03   -0.62185E+03   -0.56910E+03  4588   0.691E+01
DAV:   3    -0.903425733569E+03   -0.44657E+02   -0.40719E+02  5208   0.146E+01
DAV:   4    -0.904932487748E+03   -0.15068E+01   -0.14844E+01  4704   0.292E+00
DAV:   5    -0.904968976796E+03   -0.36489E-01   -0.36419E-01  4872   0.474E-01    0.109E+01
DAV:   6    -0.902994196942E+03    0.19748E+01   -0.14574E+01  4776   0.565E+00    0.964E+00
DAV:   7    -0.891170677030E+03    0.11824E+02   -0.13600E+01  4944   0.539E+00    0.554E+00
DAV:   8    -0.888060053010E+03    0.31106E+01   -0.66972E+00  4696   0.274E+00    0.308E+00
DAV:   9    -0.887383825879E+03    0.67623E+00   -0.34546E+00  4528   0.160E+00    0.165E+00
DAV:  10    -0.887460684771E+03   -0.76859E-01   -0.92098E-01  4776   0.102E+00    0.154E+00
DAV:  11    -0.887212469121E+03    0.24822E+00   -0.38749E-01  4616   0.649E-01    0.653E-01
DAV:  12    -0.887212590726E+03   -0.12160E-03   -0.11694E-01  4712   0.294E-01    0.418E-01
DAV:  13    -0.887206445205E+03    0.61455E-02   -0.43794E-02  4784   0.224E-01    0.301E-01
DAV:  14    -0.887199669795E+03    0.67754E-02   -0.10756E-02  4672   0.122E-01    0.148E-01
DAV:  15    -0.887198657287E+03    0.10125E-02   -0.39139E-03  4544   0.642E-02    0.764E-02
DAV:  16    -0.887199098379E+03   -0.44109E-03   -0.14969E-03  4824   0.468E-02    0.740E-02
DAV:  17    -0.887198359094E+03    0.73929E-03   -0.88167E-04  4728   0.342E-02    0.233E-02
DAV:  18    -0.887198343495E+03    0.15599E-04   -0.26717E-04  4424   0.138E-02    0.136E-02
DAV:  19    -0.887198331126E+03    0.12370E-04   -0.58877E-05  4632   0.789E-03    0.935E-03
DAV:  20    -0.887198322113E+03    0.90127E-05   -0.14116E-05  2952   0.478E-03
   1 F= -.88719832E+03 E0= -.88714387E+03  d E =-.108895E+00
