Li                                      
           1
    21.217000    0.000000    0.000000
     0.000000   21.217000    0.000000
    -0.000000   -0.000000   21.217000
   Li
   500
Direct configuration=     1
   0.98764915  0.00117385  0.97909398
   0.98882058  0.10238238  0.08746415
   0.96833141  0.18690483  0.21150177
   0.95979664  0.29573724  0.32006511
   0.99245083  0.42024447  0.39258890
   0.99722864  0.52071195  0.50138541
   0.01471463  0.62960379  0.58761879
   0.02091095  0.71729079  0.71266619
   0.01081242  0.82177631  0.79133416
   0.99503834  0.93357571  0.90409895
   0.09173560  0.01765054  0.08093270
   0.10157903  0.08380335  0.20547513
   0.09914575  0.20715508  0.31178301
   0.09224884  0.29757225  0.42037606
   0.11743722  0.42500111  0.50280124
   0.05789276  0.51712070  0.61769093
   0.09910790  0.62719753  0.69614928
   0.10230190  0.71357718  0.79629914
   0.09258705  0.80788303  0.89858881
   0.10266888  0.90412923  0.00342351
   0.19080385  0.00108033  0.18987180
   0.19824464  0.10098048  0.28365681
   0.21420657  0.18220700  0.39079751
   0.19922526  0.31035914  0.49142226
   0.18394660  0.40390688  0.59483840
   0.18645879  0.52601872  0.67738099
   0.22358183  0.60166058  0.77481131
   0.18615880  0.67809709  0.90163080
   0.18468678  0.79860851  0.98703553
   0.19853097  0.91227107  0.08878675
   0.32090607  0.00679163  0.30167034
   0.30778341  0.10254803  0.39163456
   0.30656327  0.21770063  0.50407998
   0.30713629  0.30420131  0.58391476
   0.28384610  0.42100606  0.68465084
   0.28653779  0.50372231  0.77735683
   0.29859401  0.56513694  0.89940975
   0.29572313  0.67308978  0.00390177
   0.31946250  0.78950850  0.09020188
   0.28925112  0.91880076  0.18347726
   0.41884028  0.01133162  0.39018558
   0.39768444  0.09803304  0.50456971
   0.39974156  0.20587495  0.59382351
   0.38549248  0.31524330  0.69000104
   0.38718165  0.39999524  0.76585927
   0.40410065  0.45617726  0.88929061
   0.39377700  0.56638492  0.98513728
   0.42038993  0.67655228  0.10866615
   0.39179192  0.81397749  0.19773584
   0.38842937  0.87247571  0.28450798
   0.47687725  0.00854882  0.50489340
   0.49117054  0.11303460  0.59018306
   0.48003812  0.22344931  0.66696763
   0.51542120  0.29870266  0.79872408
   0.51504398  0.39585971  0.87845526
   0.50359661  0.49146467  0.00500780
   0.49335817  0.56885095  0.12442737
   0.49603621  0.68870484  0.22044208
   0.52597888  0.78844357  0.30690275
   0.46848425  0.88114545  0.39526057
   0.57850840  0.00415176  0.57956486
   0.59919046  0.11420646  0.65191080
   0.58733141  0.20494797  0.76307394
   0.61483903  0.27226161  0.89591832
   0.59473043  0.40034558  0.98088157
   0.58929039  0.48981482  0.09039215
   0.60290817  0.58124859  0.19909845
   0.62888711  0.69127092  0.29416946
   0.60679284  0.79439402  0.39690468
   0.57923613  0.89727246  0.48914426
   0.68194095  0.02398764  0.68707085
   0.69549133  0.12913955  0.77461543
   0.72248751  0.19735954  0.87372626
   0.71235455  0.30141847  0.00982431
   0.71428329  0.39906972  0.10099065
   0.71719399  0.49850039  0.19069629
   0.70190891  0.60177204  0.27673382
   0.70700383  0.69068537  0.42546735
   0.68276920  0.79376824  0.51324902
   0.68390901  0.90452785  0.60737850
   0.79930590  0.99884343  0.80523101
   0.80678984  0.09417920  0.87836971
   0.81105649  0.20476091  0.98038551
   0.79913717  0.27351221  0.09583928
   0.80095356  0.37910601  0.18188987
   0.80751895  0.53813404  0.30281626
   0.79583999  0.61146407  0.42167465
   0.79678811  0.71353589  0.53604265
   0.79594821  0.79683737  0.60643789
   0.79370456  0.90778274  0.72741083
   0.89814609  0.00487562  0.87064735
   0.87903681  0.09066055  0.99157848
   0.88395583  0.18106302  0.07140642
   0.88682955  0.27123941  0.21392389
   0.86027387  0.40658006  0.30728404
   0.91055338  0.48465964  0.40705521
   0.90691586  0.62976830  0.49130613
   0.92362066  0.71557080  0.62338973
   0.90099723  0.81531381  0.72334013
   0.89003240  0.88342552  0.80764838
   0.08318375  0.11404583  0.00313502
   0.08945032  0.18707493  0.10183883
   0.08006841  0.28654622  0.20998344
   0.08303964  0.36213330  0.28721316
   0.09341041  0.49872323  0.39299914
   0.09618621  0.60524123  0.50596785
   0.12449376  0.71149524  0.58608934
   0.13196500  0.79958467  0.71288552
   0.12843536  0.91366992  0.80006730
   0.10552913  0.00386557  0.90589636
   0.20744206  0.10236030  0.11027891
   0.21022800  0.21811803  0.20559609
   0.20414183  0.29377993  0.31368490
   0.18671455  0.38137683  0.38294991
   0.19196520  0.51596380  0.48044922
   0.19991443  0.56436214  0.59883143
   0.20334448  0.71531462  0.68559666
   0.20687975  0.78621094  0.79931213
   0.17906948  0.91808633  0.90972437
   0.19976027  0.02945554  0.98050504
   0.31109630  0.10392536  0.19588513
   0.32015919  0.21819776  0.31108207
   0.28408951  0.30820506  0.38720442
   0.26519685  0.40428833  0.50726397
   0.31962492  0.49802044  0.60948925
   0.31162734  0.61362294  0.70374101
   0.29755350  0.68400111  0.81313278
   0.27610570  0.79758366  0.90129927
   0.30513434  0.91515797  0.00752642
   0.30117527  0.01588750  0.08854905
   0.40460146  0.11930029  0.30192686
   0.39703275  0.21418696  0.43177907
   0.37836608  0.31074409  0.49385893
   0.40181252  0.41653283  0.60815154
   0.39936164  0.49893446  0.68400549
   0.39745757  0.58086054  0.80740778
   0.39801387  0.70079601  0.89904890
   0.39156855  0.80266712  0.01828605
   0.40217244  0.93338363  0.11583330
   0.40123426  0.02193282  0.20611603
   0.52601337  0.12361004  0.41110435
   0.49373626  0.20829045  0.47861735
   0.51019259  0.32529484  0.60247176
   0.52432291  0.40523158  0.69956571
   0.49738093  0.48283872  0.79592695
   0.48989663  0.58986436  0.90382956
   0.52669256  0.68918181  0.00081397
   0.49922647  0.78483228  0.11596895
   0.49864438  0.90655918  0.20676203
   0.49118217  0.98643948  0.29709827
   0.58740338  0.10664237  0.48852648
   0.59566888  0.21407713  0.57073154
   0.60898786  0.30201706  0.69627469
   0.60760942  0.39104261  0.79692822
   0.59441077  0.48687359  0.89840021
   0.61523406  0.59537179  0.02596035
   0.59969084  0.68738569  0.10730856
   0.60485990  0.78691404  0.19454130
   0.59634197  0.90076551  0.30475690
   0.56273006  0.99443724  0.39186066
   0.70111010  0.10913035  0.56961190
   0.70948830  0.20935312  0.68464867
   0.71962979  0.29634169  0.80154873
   0.70812820  0.39094954  0.89513527
   0.71845772  0.47178880  0.00022470
   0.69848431  0.61154977  0.12452809
   0.69921090  0.69376912  0.19223446
   0.70930233  0.79966925  0.30782983
   0.70751790  0.89712951  0.41675839
   0.70284706  0.98491792  0.49067685
   0.81311402  0.11223472  0.68283485
   0.78532702  0.20419403  0.78109024
   0.80737273  0.30553416  0.90951939
   0.82855041  0.39536879  0.98956498
   0.82370808  0.49803495  0.08644193
   0.83302733  0.61902638  0.19379327
   0.79195623  0.67687733  0.32706642
   0.81212092  0.79924530  0.41367074
   0.80717424  0.86854893  0.53332369
   0.77842417  0.00009988  0.60924168
   0.91600244  0.11837094  0.79397766
   0.89734152  0.21207124  0.88378156
   0.90569127  0.31213351  0.00439198
   0.88966773  0.37487698  0.09932980
   0.89370790  0.50029580  0.21637026
   0.91474152  0.59582433  0.31699328
   0.89094100  0.71727799  0.43225929
   0.91379187  0.80327645  0.52452270
   0.88711235  0.91940144  0.63174046
   0.90873773  0.00619553  0.71036590
   0.98531119  0.09271230  0.91365574
   0.98210464  0.19803744  0.00335571
   0.98183688  0.28557764  0.13412555
   0.96631519  0.39001094  0.21923923
   0.99664307  0.49384036  0.29426275
   0.00472145  0.61854304  0.37650638
   0.00613816  0.72803529  0.49943518
   0.01109985  0.80193316  0.61991793
   0.00120064  0.88102324  0.71021875
   0.01813051  0.99920947  0.77424090
   0.18981634  0.18939254  0.01860776
   0.16977525  0.26964755  0.12921155
   0.17372147  0.38804327  0.19744067
   0.17472305  0.48071427  0.29306901
   0.20515728  0.60580014  0.38350103
   0.17737215  0.70316258  0.49721794
   0.20631886  0.80577254  0.58235827
   0.22368988  0.89175320  0.70636348
   0.21081808  0.01187626  0.81372153
   0.22102458  0.13023730  0.90645715
   0.28746646  0.19852487  0.08165149
   0.30524562  0.27451360  0.20656840
   0.30728195  0.37375084  0.29946095
   0.28473506  0.49419481  0.38891513
   0.30539228  0.58912975  0.50612894
   0.28469288  0.69227493  0.58043915
   0.29560338  0.81073585  0.69897237
   0.27648530  0.89246610  0.81022175
   0.30213867  0.00564398  0.91682756
   0.31011592  0.10780413  0.01458131
   0.40998557  0.20331580  0.19706843
   0.40815799  0.28612737  0.33052930
   0.39020079  0.39375506  0.39934439
   0.39803385  0.49415002  0.49069917
   0.41709418  0.61955976  0.58123016
   0.40164205  0.70583839  0.68570814
   0.39184885  0.78907444  0.83380949
   0.39069088  0.89889008  0.92110313
   0.40673160  0.01373652  0.99666588
   0.42825832  0.13145463  0.09866267
   0.50803819  0.21491998  0.31942879
   0.52446396  0.30951197  0.41020709
   0.49871701  0.40573432  0.48829198
   0.48436763  0.50290119  0.61982362
   0.50792313  0.61905408  0.69473754
   0.49732617  0.69242670  0.79393670
   0.51877197  0.79838268  0.91893962
   0.50399562  0.88754413  0.00531512
   0.47116761  0.00888595  0.11057846
   0.51982440  0.09951804  0.23187872
   0.64342343  0.20974445  0.38469345
   0.62718853  0.31015804  0.49621538
   0.59880516  0.43342489  0.60193070
   0.59022185  0.51532845  0.70796446
   0.60257140  0.61812306  0.80494108
   0.61649955  0.68985811  0.92278556
   0.59180525  0.80348680  0.02993846
   0.57918083  0.93203856  0.11528424
   0.60794142  0.01325810  0.18804309
   0.61122633  0.11281970  0.28253094
   0.72209517  0.18329582  0.50102550
   0.70404857  0.31883168  0.59140210
   0.69311010  0.40599368  0.71346971
   0.70246150  0.51063990  0.79011518
   0.69848291  0.58661557  0.90015492
   0.69361949  0.68565736  0.00422023
   0.69566827  0.80596292  0.10202179
   0.68531847  0.89043692  0.21319360
   0.70408288  0.97336322  0.31154070
   0.68942223  0.06431477  0.39991772
   0.81126423  0.22071337  0.60113132
   0.81103473  0.32884431  0.68287503
   0.80986566  0.40012216  0.80057466
   0.81347178  0.48938923  0.90943373
   0.80530032  0.59819335  0.99657430
   0.79410538  0.69250622  0.09067783
   0.78413094  0.77506627  0.20903319
   0.78712755  0.88869877  0.30581958
   0.83068256  0.00382956  0.38920884
   0.80226117  0.11672348  0.49557805
   0.90664188  0.20928243  0.70815067
   0.89777588  0.28295609  0.78513452
   0.89854374  0.38662007  0.87004227
   0.91566530  0.46955584  0.99345243
   0.92305342  0.58129232  0.07949174
   0.91988849  0.70591438  0.19379155
   0.90155377  0.80436075  0.30260668
   0.89109565  0.88999963  0.39841482
   0.88402953  0.00132594  0.51001829
   0.88699717  0.09672278  0.59800979
   0.02057919  0.21476388  0.79411124
   0.00503499  0.30005918  0.91500254
   0.00128928  0.39161699  0.99462346
   0.99454847  0.49317419  0.11339286
   0.01261044  0.62015989  0.21005040
   0.00771136  0.71872184  0.32965705
   0.00017660  0.82438863  0.38646675
   0.97504856  0.91149359  0.51314022
   0.01071687  0.99893614  0.61255804
   0.99548418  0.11464589  0.71348978
   0.08309420  0.19354802  0.92275233
   0.09111584  0.28842707  0.03794957
   0.07357985  0.39821835  0.11728915
   0.08493206  0.49416570  0.20649002
   0.09121471  0.60122736  0.30715894
   0.10749432  0.71716701  0.40424885
   0.09174895  0.82460942  0.46281665
   0.09819699  0.89676665  0.59937191
   0.11947160  0.99366668  0.69470038
   0.10202944  0.12198989  0.82498160
   0.29503993  0.30104412  0.00490272
   0.29806708  0.38582239  0.11296544
   0.27442085  0.48685959  0.22320042
   0.28487190  0.59728662  0.29916525
   0.30079601  0.69458626  0.39668031
   0.30133340  0.80488098  0.47205413
   0.31629798  0.90329930  0.57962515
   0.28529677  0.98494388  0.71709937
   0.29044620  0.08510600  0.78726920
   0.30519629  0.19272801  0.89163087
   0.40710992  0.30111538  0.11503325
   0.40372133  0.39033355  0.20535275
   0.39634243  0.48623763  0.30252724
   0.40269288  0.61477635  0.39408362
   0.41091871  0.70464163  0.49400551
   0.38484883  0.80438112  0.59960658
   0.38631559  0.87784889  0.70885892
   0.40807217  0.98591210  0.80147041
   0.40241120  0.08892745  0.87396085
   0.38923038  0.23838006  0.99797268
   0.51296829  0.30287767  0.20999726
   0.49054880  0.37247958  0.29862181
   0.47682531  0.49879045  0.38328224
   0.49782303  0.59486839  0.49660939
   0.50826927  0.69513187  0.58921018
   0.49223081  0.79186355  0.71853144
   0.50624185  0.87877929  0.80832488
   0.49376497  0.99745349  0.91131429
   0.49123430  0.12393977  0.98114421
   0.52283791  0.20153503  0.09616080
   0.62962150  0.31228131  0.28754200
   0.62268737  0.41456196  0.37028885
   0.60583978  0.49425586  0.49174241
   0.59542127  0.58369822  0.58539602
   0.58623822  0.68971339  0.70029736
   0.61033541  0.79853448  0.80270297
   0.61665966  0.91373587  0.90254121
   0.59316010  0.02002366  0.02546996
   0.59021431  0.10427796  0.10244986
   0.59228121  0.20117403  0.17567652
   0.71892803  0.30880528  0.39721860
   0.70684781  0.40838412  0.47782156
   0.70451954  0.50199189  0.60378286
   0.69251987  0.60721684  0.69488028
   0.67576573  0.69131327  0.81383735
   0.68293280  0.77434853  0.91521200
   0.65917745  0.91027430  0.99803356
   0.73977531  0.00475633  0.10886503
   0.70826203  0.12582431  0.22054934
   0.71557250  0.18360471  0.28758153
   0.78222150  0.31050435  0.50925119
   0.80069048  0.40693031  0.60678941
   0.81075763  0.52364136  0.69958486
   0.80301133  0.59472925  0.81069113
   0.81154344  0.68447377  0.89666405
   0.77875186  0.81713445  0.99237284
   0.79347094  0.90405366  0.11061970
   0.81406691  0.99751649  0.20345772
   0.77597506  0.06796508  0.32103618
   0.78103439  0.18553992  0.40110846
   0.89983866  0.31621716  0.60843239
   0.89437507  0.42564804  0.69478389
   0.91619241  0.50176660  0.81851872
   0.90566034  0.60878021  0.91276211
   0.89911548  0.70356052  0.00779885
   0.90086963  0.80392413  0.09979124
   0.88468199  0.88402372  0.21361068
   0.92027471  0.98985340  0.30200224
   0.89067066  0.11786005  0.41128407
   0.90895209  0.22267961  0.51608242
   0.98388960  0.31695740  0.68932743
   0.99313313  0.37452362  0.78515666
   0.00636983  0.51295747  0.89102656
   0.01513387  0.58894736  0.98365132
   0.01649705  0.69746467  0.11796745
   0.99978243  0.82102792  0.20798667
   0.99348939  0.89537459  0.29248521
   0.99054585  0.97920238  0.42766195
   0.98959897  0.10923591  0.50375617
   0.99712331  0.20354931  0.59309084
   0.10231541  0.29174112  0.78986307
   0.09763301  0.39007159  0.90917522
   0.07578019  0.50897014  0.98943093
   0.08376927  0.58018353  0.10830262
   0.11157091  0.71980697  0.20424520
   0.12139231  0.81796222  0.29613514
   0.11725729  0.90890126  0.41314454
   0.08982734  0.00042735  0.52919970
   0.10430639  0.08105329  0.59856282
   0.09586247  0.19242793  0.67810163
   0.20008227  0.28757137  0.91411479
   0.16263592  0.37967543  0.02178906
   0.18129286  0.48187608  0.09171695
   0.17189126  0.56699814  0.17589112
   0.20002273  0.71299680  0.29903126
   0.20787968  0.79889184  0.36477744
   0.23220371  0.90395251  0.48826654
   0.22611785  0.96342521  0.60008398
   0.20349176  0.09036961  0.69208802
   0.20939528  0.21257512  0.76812280
   0.39913189  0.37558360  0.00420702
   0.41177828  0.46983632  0.10151970
   0.38653404  0.56672975  0.20096022
   0.41361306  0.69526528  0.28432251
   0.41404036  0.77105896  0.39192682
   0.39108983  0.89323838  0.48837426
   0.40262783  0.98997846  0.60210629
   0.41168701  0.09374734  0.70443758
   0.39718248  0.20638203  0.79813015
   0.38873313  0.30350620  0.86974639
   0.48952117  0.38056370  0.10547958
   0.50221207  0.48961149  0.20608381
   0.52915722  0.59975785  0.28635436
   0.52034345  0.68600187  0.40210912
   0.48865636  0.79527671  0.49786588
   0.48127436  0.88966398  0.60207807
   0.49702084  0.99404210  0.70188901
   0.51371701  0.11625229  0.78749470
   0.50718642  0.22179509  0.89581988
   0.49661924  0.30854048  0.99362044
   0.61741521  0.38398474  0.20933567
   0.60144732  0.48098348  0.28519635
   0.61366218  0.57954269  0.39680487
   0.59142105  0.68178007  0.51717472
   0.58257799  0.80305671  0.62494195
   0.57840782  0.93416576  0.70725458
   0.58234781  0.02867930  0.80097018
   0.61507580  0.11211185  0.88986955
   0.60226428  0.20036244  0.01068668
   0.60034657  0.30312556  0.07482550
   0.73335259  0.40447917  0.26342519
   0.71432856  0.50430209  0.37872798
   0.69732929  0.59597942  0.51600457
   0.69012362  0.70549277  0.59287446
   0.68418952  0.80282698  0.71301817
   0.67505146  0.91997818  0.80133808
   0.70724906  0.02361033  0.89725391
   0.69769584  0.12477028  0.99004073
   0.71659678  0.18333323  0.10494848
   0.69946505  0.27441382  0.18016868
   0.79645025  0.41612095  0.40647216
   0.82090190  0.51150437  0.50559620
   0.80675714  0.61186001  0.60461360
   0.76431668  0.72496255  0.71080484
   0.79351651  0.81604217  0.81999576
   0.75641453  0.92521475  0.91063916
   0.79252481  0.03270350  0.00608771
   0.80648578  0.08769377  0.08436987
   0.81937368  0.17777706  0.20577678
   0.77747496  0.29975325  0.30005640
   0.90252111  0.40287311  0.49997425
   0.91639422  0.51930056  0.58677454
   0.90410688  0.62301895  0.72108394
   0.91641397  0.73643709  0.81613204
   0.91945087  0.82229730  0.92736285
   0.89144732  0.91822209  0.01109898
   0.88594758  0.98070173  0.11222561
   0.89478285  0.08538947  0.21196858
   0.88841782  0.19238556  0.32130006
   0.86920923  0.28499535  0.39243503
   0.00281199  0.40959362  0.57396018
   0.98955520  0.51402461  0.70683384
   0.01997750  0.61757496  0.80594129
   0.02008854  0.70190206  0.89317464
   0.98602170  0.80854404  0.01996271
   0.00282477  0.91592058  0.11598742
   0.98511360  0.99839000  0.19887088
   0.98932276  0.07690428  0.31413372
   0.98838481  0.19575114  0.42820788
   0.00220575  0.30527073  0.48470925
   0.08749184  0.39757840  0.68699112
   0.10806726  0.50037948  0.78944735
   0.15648841  0.58876072  0.89168279
   0.10580384  0.68202368  0.00484522
   0.11329704  0.80742875  0.08366013
   0.09341753  0.90409446  0.18888071
   0.07723238  0.99914888  0.31759600
   0.10078493  0.08121794  0.40325522
   0.10566939  0.18503655  0.50911832
   0.09253943  0.28345378  0.57891627
   0.19317254  0.37338740  0.78698494
   0.21926661  0.46223455  0.89457552
   0.21754961  0.59394972  0.03160734
   0.21023612  0.68862584  0.07801778
   0.21775110  0.81356394  0.19146441
   0.21809232  0.91165029  0.29176604
   0.21100213  0.99857812  0.40871673
   0.20375662  0.07251355  0.50568390
   0.18835245  0.20974142  0.58238203
   0.19191214  0.27838721  0.67993121
   0.29948988  0.36419235  0.89623373
   0.28681140  0.47291034  0.00406472
   0.30689274  0.55549027  0.10755740
   0.30633433  0.70643273  0.18746245
   0.30916626  0.77443348  0.28421699
   0.30812307  0.87402325  0.38655428
   0.31763366  0.00261831  0.49000347
   0.29925170  0.09340221  0.59542805
   0.29544249  0.19067944  0.69793308
   0.28432504  0.28254974  0.78653559
