 432 432   0   0
  0.1915683E+02  0.2022720E-08  0.2022720E-08  0.2022720E-08  0.5000000E-15
  1.000000000000000E-004
  CAR 
 Li                                      
      3.87020051     -3.36938599  301      0.55886204      1.00000000
     -3.369  0.0000E+00  0.0000E+00
     -3.345  0.0000E+00  0.0000E+00
     -3.321  0.0000E+00  0.0000E+00
     -3.297  0.0000E+00  0.0000E+00
     -3.273  0.0000E+00  0.0000E+00
     -3.249  0.0000E+00  0.0000E+00
     -3.225  0.0000E+00  0.0000E+00
     -3.200  0.1795E-11  0.4333E-13
     -3.176  0.5908E-08  0.1426E-09
     -3.152  0.5481E-05  0.1324E-06
     -3.128  0.1447E-02  0.3505E-04
     -3.104  0.1103E+00  0.2697E-02
     -3.080  0.2478E+01  0.6250E-01
     -3.056  0.1682E+02  0.4684E+00
     -3.032  0.3529E+02  0.1320E+01
     -3.007  0.2316E+02  0.1879E+01
     -2.983  0.4766E+01  0.1994E+01
     -2.959  0.1932E+01  0.2041E+01
     -2.935  0.1921E+02  0.2504E+01
     -2.911  0.7506E+02  0.4316E+01
     -2.887  0.1001E+03  0.6731E+01
     -2.863  0.4542E+02  0.7827E+01
     -2.838  0.7027E+01  0.7996E+01
     -2.814  0.4760E+01  0.8111E+01
     -2.790  0.3548E+02  0.8967E+01
     -2.766  0.9460E+02  0.1125E+02
     -2.742  0.8538E+02  0.1331E+02
     -2.718  0.2598E+02  0.1394E+02
     -2.694  0.4699E+01  0.1405E+02
     -2.670  0.2290E+02  0.1460E+02
     -2.645  0.8809E+02  0.1673E+02
     -2.621  0.1287E+03  0.1983E+02
     -2.597  0.7279E+02  0.2159E+02
     -2.573  0.1631E+02  0.2199E+02
     -2.549  0.1224E+02  0.2228E+02
     -2.525  0.6783E+02  0.2392E+02
     -2.501  0.1623E+03  0.2783E+02
     -2.477  0.1658E+03  0.3184E+02
     -2.452  0.7480E+02  0.3364E+02
     -2.428  0.1448E+02  0.3399E+02
     -2.404  0.9820E+01  0.3423E+02
     -2.380  0.4779E+02  0.3538E+02
     -2.356  0.9374E+02  0.3764E+02
     -2.332  0.7254E+02  0.3939E+02
     -2.308  0.2376E+02  0.3997E+02
     -2.283  0.1747E+02  0.4039E+02
     -2.259  0.6801E+02  0.4203E+02
     -2.235  0.1444E+03  0.4551E+02
     -2.211  0.1588E+03  0.4934E+02
     -2.187  0.8749E+02  0.5146E+02
     -2.163  0.2686E+02  0.5210E+02
     -2.139  0.4709E+02  0.5324E+02
     -2.115  0.1399E+03  0.5662E+02
     -2.090  0.2175E+03  0.6187E+02
     -2.066  0.1994E+03  0.6668E+02
     -2.042  0.1060E+03  0.6923E+02
     -2.018  0.2912E+02  0.6994E+02
     -1.994  0.1442E+02  0.7028E+02
     -1.970  0.5737E+02  0.7167E+02
     -1.946  0.1019E+03  0.7413E+02
     -1.921  0.6349E+02  0.7566E+02
     -1.897  0.1812E+02  0.7610E+02
     -1.873  0.3584E+02  0.7696E+02
     -1.849  0.1107E+03  0.7963E+02
     -1.825  0.1802E+03  0.8398E+02
     -1.801  0.1606E+03  0.8786E+02
     -1.777  0.7335E+02  0.8963E+02
     -1.753  0.2400E+02  0.9021E+02
     -1.728  0.6241E+02  0.9171E+02
     -1.704  0.1663E+03  0.9573E+02
     -1.680  0.2257E+03  0.1012E+03
     -1.656  0.1825E+03  0.1056E+03
     -1.632  0.8263E+02  0.1076E+03
     -1.608  0.2560E+02  0.1082E+03
     -1.584  0.5481E+02  0.1095E+03
     -1.559  0.1353E+03  0.1128E+03
     -1.535  0.1670E+03  0.1168E+03
     -1.511  0.1033E+03  0.1193E+03
     -1.487  0.4093E+02  0.1203E+03
     -1.463  0.7234E+02  0.1220E+03
     -1.439  0.1609E+03  0.1259E+03
     -1.415  0.2116E+03  0.1310E+03
     -1.391  0.1776E+03  0.1353E+03
     -1.366  0.8879E+02  0.1374E+03
     -1.342  0.4011E+02  0.1384E+03
     -1.318  0.9982E+02  0.1408E+03
     -1.294  0.2204E+03  0.1461E+03
     -1.270  0.2406E+03  0.1520E+03
     -1.246  0.1315E+03  0.1551E+03
     -1.222  0.3567E+02  0.1560E+03
     -1.198  0.2731E+02  0.1566E+03
     -1.173  0.8698E+02  0.1587E+03
     -1.149  0.1508E+03  0.1624E+03
     -1.125  0.1458E+03  0.1659E+03
     -1.101  0.7197E+02  0.1676E+03
     -1.077  0.2253E+02  0.1682E+03
     -1.053  0.5250E+02  0.1694E+03
     -1.029  0.1285E+03  0.1725E+03
     -1.004  0.1548E+03  0.1763E+03
     -0.980  0.1115E+03  0.1790E+03
     -0.956  0.8486E+02  0.1810E+03
     -0.932  0.1486E+03  0.1846E+03
     -0.908  0.2274E+03  0.1901E+03
     -0.884  0.2651E+03  0.1965E+03
     -0.860  0.2678E+03  0.2030E+03
     -0.836  0.1967E+03  0.2077E+03
     -0.811  0.1018E+03  0.2102E+03
     -0.787  0.1109E+03  0.2128E+03
     -0.763  0.1920E+03  0.2175E+03
     -0.739  0.2019E+03  0.2223E+03
     -0.715  0.1402E+03  0.2257E+03
     -0.691  0.7376E+02  0.2275E+03
     -0.667  0.4927E+02  0.2287E+03
     -0.642  0.1092E+03  0.2313E+03
     -0.618  0.1912E+03  0.2359E+03
     -0.594  0.1702E+03  0.2401E+03
     -0.570  0.7592E+02  0.2419E+03
     -0.546  0.5876E+02  0.2433E+03
     -0.522  0.1438E+03  0.2468E+03
     -0.498  0.2369E+03  0.2525E+03
     -0.474  0.2560E+03  0.2587E+03
     -0.449  0.1996E+03  0.2635E+03
     -0.425  0.1372E+03  0.2668E+03
     -0.401  0.1110E+03  0.2695E+03
     -0.377  0.7396E+02  0.2713E+03
     -0.353  0.2911E+02  0.2720E+03
     -0.329  0.2991E+02  0.2727E+03
     -0.305  0.1024E+03  0.2752E+03
     -0.280  0.1993E+03  0.2800E+03
     -0.256  0.2369E+03  0.2857E+03
     -0.232  0.2144E+03  0.2909E+03
     -0.208  0.1788E+03  0.2952E+03
     -0.184  0.1569E+03  0.2990E+03
     -0.160  0.1649E+03  0.3029E+03
     -0.136  0.1829E+03  0.3074E+03
     -0.112  0.1936E+03  0.3120E+03
     -0.087  0.2134E+03  0.3172E+03
     -0.063  0.2365E+03  0.3229E+03
     -0.039  0.2142E+03  0.3281E+03
     -0.015  0.1407E+03  0.3314E+03
      0.009  0.1028E+03  0.3339E+03
      0.033  0.1176E+03  0.3368E+03
      0.057  0.1267E+03  0.3398E+03
      0.081  0.1473E+03  0.3434E+03
      0.106  0.1816E+03  0.3478E+03
      0.130  0.2330E+03  0.3534E+03
      0.154  0.2577E+03  0.3596E+03
      0.178  0.2611E+03  0.3659E+03
      0.202  0.2472E+03  0.3719E+03
      0.226  0.1965E+03  0.3766E+03
      0.250  0.1299E+03  0.3797E+03
      0.275  0.1194E+03  0.3826E+03
      0.299  0.1684E+03  0.3867E+03
      0.323  0.2141E+03  0.3919E+03
      0.347  0.2279E+03  0.3974E+03
      0.371  0.1826E+03  0.4018E+03
      0.395  0.1249E+03  0.4048E+03
      0.419  0.1186E+03  0.4076E+03
      0.443  0.1427E+03  0.4111E+03
      0.468  0.1674E+03  0.4151E+03
      0.492  0.1854E+03  0.4196E+03
      0.516  0.1876E+03  0.4241E+03
      0.540  0.1806E+03  0.4285E+03
      0.564  0.1878E+03  0.4330E+03
      0.588  0.2031E+03  0.4379E+03
      0.612  0.2177E+03  0.4432E+03
      0.637  0.2306E+03  0.4487E+03
      0.661  0.2261E+03  0.4542E+03
      0.685  0.1948E+03  0.4589E+03
      0.709  0.1704E+03  0.4630E+03
      0.733  0.1585E+03  0.4668E+03
      0.757  0.1641E+03  0.4708E+03
      0.781  0.1847E+03  0.4752E+03
      0.805  0.2007E+03  0.4801E+03
      0.830  0.2121E+03  0.4852E+03
      0.854  0.2223E+03  0.4906E+03
      0.878  0.2312E+03  0.4962E+03
      0.902  0.2412E+03  0.5020E+03
      0.926  0.2444E+03  0.5079E+03
      0.950  0.2390E+03  0.5136E+03
      0.974  0.2426E+03  0.5195E+03
      0.998  0.2399E+03  0.5253E+03
      1.023  0.2259E+03  0.5307E+03
      1.047  0.2223E+03  0.5361E+03
      1.071  0.2333E+03  0.5417E+03
      1.095  0.2349E+03  0.5474E+03
      1.119  0.2233E+03  0.5528E+03
      1.143  0.2216E+03  0.5581E+03
      1.167  0.2232E+03  0.5635E+03
      1.192  0.2329E+03  0.5691E+03
      1.216  0.2400E+03  0.5749E+03
      1.240  0.2328E+03  0.5805E+03
      1.264  0.2237E+03  0.5859E+03
      1.288  0.2119E+03  0.5911E+03
      1.312  0.2071E+03  0.5961E+03
      1.336  0.2059E+03  0.6010E+03
      1.360  0.2052E+03  0.6060E+03
      1.385  0.2021E+03  0.6109E+03
      1.409  0.1910E+03  0.6155E+03
      1.433  0.1690E+03  0.6195E+03
      1.457  0.1624E+03  0.6235E+03
      1.481  0.1777E+03  0.6278E+03
      1.505  0.1886E+03  0.6323E+03
      1.529  0.1855E+03  0.6368E+03
      1.554  0.1862E+03  0.6413E+03
      1.578  0.1730E+03  0.6454E+03
      1.602  0.1428E+03  0.6489E+03
      1.626  0.1227E+03  0.6519E+03
      1.650  0.1230E+03  0.6548E+03
      1.674  0.1305E+03  0.6580E+03
      1.698  0.1324E+03  0.6612E+03
      1.722  0.1341E+03  0.6644E+03
      1.747  0.1428E+03  0.6678E+03
      1.771  0.1525E+03  0.6715E+03
      1.795  0.1614E+03  0.6754E+03
      1.819  0.1625E+03  0.6793E+03
      1.843  0.1659E+03  0.6833E+03
      1.867  0.1739E+03  0.6875E+03
      1.891  0.1511E+03  0.6912E+03
      1.916  0.1339E+03  0.6944E+03
      1.940  0.1519E+03  0.6981E+03
      1.964  0.1645E+03  0.7021E+03
      1.988  0.1716E+03  0.7062E+03
      2.012  0.1766E+03  0.7105E+03
      2.036  0.1785E+03  0.7148E+03
      2.060  0.1803E+03  0.7191E+03
      2.084  0.1722E+03  0.7233E+03
      2.109  0.1689E+03  0.7274E+03
      2.133  0.1849E+03  0.7318E+03
      2.157  0.1872E+03  0.7363E+03
      2.181  0.1697E+03  0.7404E+03
      2.205  0.1717E+03  0.7446E+03
      2.229  0.1731E+03  0.7487E+03
      2.253  0.1516E+03  0.7524E+03
      2.277  0.1412E+03  0.7558E+03
      2.302  0.1456E+03  0.7593E+03
      2.326  0.1460E+03  0.7629E+03
      2.350  0.1360E+03  0.7661E+03
      2.374  0.1348E+03  0.7694E+03
      2.398  0.1329E+03  0.7726E+03
      2.422  0.1306E+03  0.7757E+03
      2.446  0.1233E+03  0.7787E+03
      2.471  0.1066E+03  0.7813E+03
      2.495  0.9487E+02  0.7836E+03
      2.519  0.9044E+02  0.7858E+03
      2.543  0.9648E+02  0.7881E+03
      2.567  0.1003E+03  0.7905E+03
      2.591  0.9253E+02  0.7927E+03
      2.615  0.7584E+02  0.7946E+03
      2.639  0.4260E+02  0.7956E+03
      2.664  0.1489E+02  0.7960E+03
      2.688  0.1233E+02  0.7963E+03
      2.712  0.3962E+02  0.7972E+03
      2.736  0.7720E+02  0.7991E+03
      2.760  0.7740E+02  0.8009E+03
      2.784  0.3603E+02  0.8018E+03
      2.808  0.7316E+01  0.8020E+03
      2.833  0.4107E+01  0.8021E+03
      2.857  0.1692E+02  0.8025E+03
      2.881  0.3494E+02  0.8033E+03
      2.905  0.5347E+02  0.8046E+03
      2.929  0.7788E+02  0.8065E+03
      2.953  0.8895E+02  0.8087E+03
      2.977  0.9088E+02  0.8109E+03
      3.001  0.1002E+03  0.8133E+03
      3.026  0.1037E+03  0.8158E+03
      3.050  0.1006E+03  0.8182E+03
      3.074  0.1031E+03  0.8207E+03
      3.098  0.1125E+03  0.8234E+03
      3.122  0.1267E+03  0.8265E+03
      3.146  0.1344E+03  0.8297E+03
      3.170  0.1345E+03  0.8329E+03
      3.195  0.1353E+03  0.8362E+03
      3.219  0.1342E+03  0.8395E+03
      3.243  0.1149E+03  0.8422E+03
      3.267  0.9553E+02  0.8445E+03
      3.291  0.7675E+02  0.8464E+03
      3.315  0.5368E+02  0.8477E+03
      3.339  0.4054E+02  0.8487E+03
      3.363  0.4103E+02  0.8496E+03
      3.388  0.5403E+02  0.8510E+03
      3.412  0.7791E+02  0.8528E+03
      3.436  0.9127E+02  0.8550E+03
      3.460  0.9923E+02  0.8574E+03
      3.484  0.1121E+03  0.8601E+03
      3.508  0.1023E+03  0.8626E+03
      3.532  0.8013E+02  0.8645E+03
      3.556  0.4627E+02  0.8657E+03
      3.581  0.1290E+02  0.8660E+03
      3.605  0.1365E+01  0.8660E+03
      3.629  0.4878E-01  0.8660E+03
      3.653  0.5492E-03  0.8660E+03
      3.677  0.1866E-05  0.8660E+03
      3.701  0.1859E-08  0.8660E+03
      3.725  0.5337E-12  0.8660E+03
      3.750  0.0000E+00  0.8660E+03
      3.774  0.0000E+00  0.8660E+03
      3.798  0.0000E+00  0.8660E+03
      3.822  0.0000E+00  0.8660E+03
      3.846  0.0000E+00  0.8660E+03
      3.870  0.0000E+00  0.8660E+03
