Li                                      
           1
    20.227200    0.000000    0.000000
     0.000000   20.227200    0.000000
     0.000000    0.000000   20.227200
   Li
   432
Direct configuration=     1
   0.99452471  0.00385818  0.01132233
   0.91855627  0.09197513  0.08600696
   0.84743263  0.17930579  0.18555707
   0.74745142  0.26514167  0.22165213
   0.65513207  0.33113633  0.34075725
   0.58396238  0.40194662  0.42262761
   0.50550358  0.47834013  0.49792558
   0.42839063  0.59048119  0.59346200
   0.34534158  0.66878853  0.64582673
   0.24910003  0.74491058  0.73418498
   0.18393539  0.81571373  0.83714208
   0.08660482  0.92803092  0.92657692
   0.07497339  0.90770304  0.11957764
   0.98395664  0.99718555  0.16455784
   0.89734252  0.08420418  0.26762865
   0.84060686  0.15666247  0.32010042
   0.75976810  0.24922053  0.41812665
   0.66108566  0.32799821  0.51983447
   0.58738649  0.38869287  0.57266534
   0.49342750  0.48833900  0.62204659
   0.41528957  0.59819119  0.71522598
   0.34672743  0.67685566  0.81650515
   0.25652594  0.74825327  0.91380700
   0.16247754  0.83333509  0.99779985
   0.16783554  0.82476060  0.18845139
   0.08938570  0.92965239  0.25194296
   0.00926579  0.00639258  0.34407218
   0.89807309  0.07721787  0.42539108
   0.83957413  0.17406032  0.50114206
   0.75305515  0.22700230  0.58660594
   0.67321047  0.32331899  0.66110208
   0.57278409  0.38463854  0.72274406
   0.47940601  0.48233392  0.80454037
   0.41455511  0.58844844  0.90706570
   0.34485000  0.67463556  0.99247664
   0.25933303  0.75396474  0.07843146
   0.27008184  0.73464285  0.26858442
   0.17468351  0.82336650  0.33194437
   0.08881747  0.90957018  0.40610375
   0.99442590  0.00071388  0.48574182
   0.91975455  0.08708127  0.60052743
   0.82266143  0.15102398  0.68448571
   0.74220406  0.24040763  0.73910943
   0.66480857  0.34162662  0.82695943
   0.58285190  0.42204752  0.89017811
   0.48805080  0.51868630  0.97537210
   0.42751621  0.58627805  0.07100188
   0.37595649  0.66275913  0.17383561
   0.34712098  0.65511353  0.36145392
   0.26257886  0.75299781  0.41945954
   0.17534271  0.82171443  0.49169092
   0.06956468  0.87428118  0.56981325
   0.01972040  0.99018069  0.67203764
   0.90965309  0.07332153  0.74786383
   0.85010461  0.16999784  0.84415715
   0.76411542  0.24877560  0.92358422
   0.66453952  0.33830939  0.01458913
   0.57453334  0.41527267  0.07082945
   0.50173762  0.49305839  0.15837301
   0.43300880  0.59031757  0.24382966
   0.42646867  0.58665798  0.42804647
   0.33070800  0.66662530  0.52825463
   0.24092236  0.76336475  0.57505132
   0.18320197  0.84177058  0.64885107
   0.08585202  0.88982875  0.75612897
   0.99390036  0.99906052  0.84987536
   0.91657305  0.08452654  0.95182634
   0.82115517  0.16484582  0.99841250
   0.76281421  0.25793635  0.09343675
   0.63910455  0.33569223  0.16827966
   0.57723498  0.44266188  0.26176000
   0.49082672  0.50834871  0.34720149
   0.10438961  0.07840033  0.92228221
   0.01704384  0.16099662  0.99622681
   0.92687067  0.24482522  0.05992217
   0.84607724  0.34126781  0.15721358
   0.74116431  0.39798895  0.23524157
   0.66259792  0.49860039  0.32788325
   0.59058101  0.58304389  0.42808850
   0.52075541  0.65880163  0.49743150
   0.42444780  0.75992878  0.57541574
   0.34983760  0.82827061  0.65892791
   0.24242350  0.91231609  0.76131841
   0.16103933  0.97676928  0.80823920
   0.17324858  0.97244920  0.02121037
   0.10179337  0.08199005  0.07881634
   0.00769008  0.19103786  0.16208011
   0.93504885  0.25763510  0.24246112
   0.82941173  0.31873377  0.33567195
   0.74293008  0.42288253  0.41428238
   0.68897965  0.49683316  0.50497376
   0.59886220  0.57769377  0.56594946
   0.49854969  0.67475078  0.62358489
   0.40460122  0.75320057  0.73502758
   0.34794291  0.83501976  0.82330891
   0.26175340  0.92387854  0.92519151
   0.26466374  0.91343071  0.10248746
   0.19280413  0.00391575  0.18930935
   0.07459333  0.09172182  0.22663688
   0.01255308  0.16762406  0.33597850
   0.92636796  0.24560838  0.41909104
   0.83093678  0.33755508  0.50469018
   0.73196640  0.38834171  0.59882720
   0.66873893  0.48897103  0.66258163
   0.56327376  0.55595723  0.72148660
   0.48626008  0.65378396  0.80903188
   0.41841021  0.75273786  0.91308693
   0.34098502  0.82905244  0.99343451
   0.32973055  0.82056264  0.16384177
   0.26925865  0.88428817  0.24908266
   0.18908948  0.98265284  0.32755436
   0.09012437  0.07681035  0.41127424
   0.01820092  0.17719172  0.49584318
   0.91051919  0.24561035  0.60230587
   0.82784496  0.32141274  0.67742680
   0.75434946  0.39707983  0.75042793
   0.65315826  0.48826616  0.80586445
   0.57139572  0.58531221  0.88613879
   0.50612135  0.68288229  0.98345798
   0.43220991  0.75030162  0.10107046
   0.43161025  0.74866682  0.25158398
   0.35064197  0.84582471  0.34048907
   0.24692952  0.91080373  0.40387896
   0.16357983  0.98038020  0.49929547
   0.08935134  0.07291318  0.57695722
   0.99777056  0.15560540  0.65696283
   0.92628303  0.25042620  0.73196757
   0.83982884  0.33403891  0.84135104
   0.75519591  0.41421996  0.91561694
   0.67023978  0.49252694  0.97816310
   0.57916044  0.57927794  0.06466784
   0.52929233  0.67386413  0.17156252
   0.50856554  0.66756503  0.34784509
   0.42254956  0.73585519  0.42433252
   0.33762463  0.84521835  0.47738882
   0.25491087  0.91749655  0.57110949
   0.16687399  0.98268144  0.65533374
   0.07256175  0.07753841  0.75267547
   0.99106006  0.15032756  0.83265229
   0.90863108  0.23485981  0.90914609
   0.83764416  0.34893095  0.99187000
   0.73042948  0.43948337  0.08371345
   0.66939522  0.47716997  0.15959135
   0.59718753  0.58304230  0.26379400
   0.17713899  0.14920607  0.83005707
   0.07875902  0.23914011  0.91598410
   0.99249345  0.34468557  0.99630431
   0.91166294  0.42516786  0.09295420
   0.83386231  0.49119571  0.18593972
   0.74686423  0.57645334  0.26151765
   0.66313422  0.67412387  0.35093033
   0.58969896  0.76954915  0.43260123
   0.48869650  0.81639366  0.49889756
   0.41624468  0.91293713  0.58100941
   0.31787021  0.97744157  0.66662931
   0.25113163  0.06195985  0.73705722
   0.24234145  0.06232305  0.91409991
   0.19282758  0.17154767  0.98983793
   0.11497095  0.24028604  0.07511223
   0.01334779  0.33869569  0.15382501
   0.92830355  0.40475552  0.26463486
   0.81865212  0.48958108  0.32461118
   0.74633577  0.58568829  0.40590566
   0.66622780  0.67797110  0.53627320
   0.58117283  0.74423613  0.59005240
   0.50766550  0.84368693  0.67748903
   0.42613347  0.91681038  0.76559087
   0.34544325  0.00518195  0.82927644
   0.34216513  0.98124932  0.01226304
   0.26836807  0.08614996  0.07794378
   0.19223203  0.17507039  0.15880956
   0.08863273  0.24738372  0.26180656
   0.01794372  0.32085279  0.34951741
   0.91834133  0.42051978  0.40398199
   0.83057139  0.50397611  0.49886059
   0.76882429  0.58150087  0.61361411
   0.67409508  0.66826030  0.68084211
   0.59169375  0.74623435  0.76021593
   0.50235887  0.83560963  0.83726717
   0.41305113  0.92269280  0.92701802
   0.43295744  0.90743426  0.08999922
   0.34771488  0.00057253  0.18396227
   0.24903032  0.09227275  0.23268636
   0.17829127  0.15762309  0.33164433
   0.09648890  0.24048682  0.42011097
   0.99500127  0.33124765  0.51660487
   0.90220196  0.41322259  0.60293106
   0.84202556  0.49194205  0.66310799
   0.76086014  0.56347419  0.74874010
   0.67352287  0.65455262  0.81801804
   0.58604222  0.73707322  0.89515546
   0.49915097  0.81910755  0.99839425
   0.52804567  0.82687814  0.16877247
   0.43463800  0.90741416  0.23134959
   0.33917557  0.99054398  0.33127580
   0.22963920  0.08799359  0.41238636
   0.17529828  0.15502156  0.50490188
   0.10002542  0.21824724  0.59230553
   0.01454663  0.30499610  0.66577682
   0.93740331  0.41775141  0.75816917
   0.84623779  0.50357693  0.83388062
   0.75799507  0.57331941  0.90633219
   0.65266796  0.63679926  0.99426185
   0.58720437  0.75724821  0.07116548
   0.60323035  0.76402614  0.25405143
   0.49309189  0.83011041  0.33706381
   0.43933467  0.90651586  0.40914410
   0.34869596  0.99542886  0.47214936
   0.26858353  0.07918806  0.56164989
   0.17047320  0.16668086  0.67035088
   0.07319941  0.22164680  0.74728952
   0.98478942  0.31916951  0.84594215
   0.91203818  0.42196308  0.94021519
   0.83744085  0.52904274  0.01673049
   0.75061161  0.59129978  0.09235231
   0.64502605  0.65182318  0.16399238
   0.25541283  0.24736096  0.76015097
   0.14560055  0.32464775  0.83598469
   0.08658778  0.43168332  0.91720467
   0.01586271  0.51449013  0.99520432
   0.93239528  0.60206564  0.11663594
   0.81571212  0.68138161  0.16931778
   0.74100868  0.75071570  0.24817742
   0.67608011  0.82851366  0.34543028
   0.58147729  0.93344225  0.42805813
   0.49636042  0.98899378  0.49958891
   0.40920491  0.05865276  0.59172745
   0.32527103  0.17492878  0.65896257
   0.31262536  0.15894002  0.83501696
   0.24825818  0.27028215  0.90971821
   0.17955317  0.34012995  0.99252843
   0.08728217  0.42570499  0.09780743
   0.02519544  0.51198104  0.16430927
   0.91145686  0.57908883  0.25746282
   0.81118484  0.66829107  0.32356926
   0.76946026  0.75732721  0.42802672
   0.67203544  0.85004557  0.51642505
   0.59182869  0.91713600  0.58113987
   0.49551423  0.00559969  0.67232937
   0.40087120  0.09506716  0.73563810
   0.41022741  0.07565510  0.90458609
   0.34694390  0.14733139  0.99602705
   0.27098660  0.24669835  0.07105154
   0.16898386  0.34216028  0.16296812
   0.09509409  0.41976541  0.27244557
   0.00392944  0.50619831  0.31797037
   0.91388835  0.57936654  0.40294678
   0.83430062  0.64228199  0.49606375
   0.76435295  0.75464801  0.58655388
   0.67342004  0.82700162  0.66991030
   0.57395884  0.92657197  0.76544449
   0.47384838  0.99602322  0.84164253
   0.47793605  0.01989067  0.00806869
   0.41644151  0.08535000  0.11044094
   0.33825803  0.17922661  0.16525006
   0.27241785  0.25911763  0.25141346
   0.16953405  0.33294338  0.35059553
   0.07386582  0.41712061  0.41486310
   0.97479994  0.50673872  0.50706430
   0.91340309  0.59778422  0.58603896
   0.84527551  0.67718869  0.68391203
   0.75952680  0.75863423  0.75055247
   0.64488956  0.82765235  0.82518653
   0.58668725  0.91971964  0.91813649
   0.59058900  0.89606054  0.08722373
   0.50197442  0.00096076  0.17369800
   0.41968638  0.08759251  0.25934880
   0.32482446  0.16328770  0.35710640
   0.23462199  0.24150934  0.41869202
   0.15950318  0.32316826  0.49140243
   0.07939316  0.39563583  0.55993972
   0.00619294  0.52151880  0.62734099
   0.94072909  0.58527666  0.73660890
   0.84630429  0.68060337  0.82480158
   0.72542443  0.74665759  0.89632414
   0.67281435  0.83161642  0.99039272
   0.66494795  0.84041819  0.17472671
   0.59580090  0.91718377  0.27911901
   0.49976207  0.00620633  0.33958247
   0.42632215  0.09352523  0.42121732
   0.33519704  0.14741844  0.52111083
   0.24079808  0.23521091  0.57593906
   0.14769642  0.33147395  0.68013988
   0.06493665  0.39090474  0.73487381
   0.00769971  0.50688943  0.84237717
   0.91148393  0.58809418  0.92115708
   0.81555961  0.66328008  0.01169541
   0.71671735  0.73692550  0.09127349
   0.33165607  0.33039900  0.66845280
   0.24694203  0.43773255  0.73774045
   0.14853352  0.52634357  0.81667481
   0.09795282  0.60901672  0.92953972
   0.00085164  0.66361581  0.01416757
   0.92331523  0.76413731  0.08733504
   0.81824616  0.83700835  0.15199498
   0.75998278  0.91347721  0.24762077
   0.67141976  0.02043570  0.34709494
   0.57958353  0.06834386  0.42382493
   0.50529457  0.16459563  0.50450989
   0.41374403  0.22882000  0.59154205
   0.40438277  0.23620298  0.77372600
   0.32780796  0.35788554  0.81988007
   0.22651584  0.43925642  0.88274873
   0.16888953  0.50583824  0.00358542
   0.12025928  0.60355040  0.08831898
   0.00312017  0.66415834  0.17883592
   0.90948711  0.75819645  0.23716568
   0.82857855  0.83133141  0.30629856
   0.75965478  0.90320000  0.41062523
   0.68288961  0.99342320  0.50745038
   0.58437167  0.05840906  0.59473771
   0.49866782  0.15490194  0.65943259
   0.48603112  0.16155634  0.83972472
   0.40206663  0.27369391  0.90088615
   0.33328673  0.36807324  0.99014637
   0.26474614  0.42710169  0.08529452
   0.17839304  0.49218008  0.18256974
   0.09252372  0.60218626  0.25736733
   0.97831373  0.67398589  0.31604179
   0.90999209  0.73730394  0.38763866
   0.85665352  0.84419606  0.48653168
   0.75850974  0.91229454  0.60069495
   0.66570553  0.00589059  0.67951379
   0.56246830  0.08252376  0.76863472
   0.57353999  0.07927846  0.90810148
   0.46082314  0.18175224  0.99332512
   0.41857597  0.27973530  0.07093726
   0.35659012  0.33900048  0.17684224
   0.25138287  0.42204708  0.25753262
   0.17556361  0.53007030  0.34144086
   0.05953996  0.58231669  0.42092195
   0.98325184  0.67812359  0.48675106
   0.88947412  0.75695685  0.57589439
   0.83845698  0.84594698  0.66479582
   0.75240933  0.90492758  0.75093557
   0.67296120  0.00658665  0.85005863
   0.66153840  0.00956526  0.01127434
   0.55280976  0.08467080  0.09486675
   0.49072813  0.17958817  0.16882607
   0.41754623  0.24470124  0.26330630
   0.33913436  0.33105700  0.33727944
   0.25693038  0.40967099  0.41331360
   0.17225334  0.51889749  0.50523646
   0.07131412  0.58863027  0.55524812
   0.00878905  0.68142945  0.66313940
   0.93048961  0.76092687  0.73162850
   0.84746136  0.82948033  0.85350318
   0.74313375  0.91502813  0.91801103
   0.73454174  0.91495405  0.07617502
   0.66422373  0.01585475  0.17067300
   0.57689249  0.10851681  0.26163414
   0.50032148  0.18626550  0.34933469
   0.40710330  0.25360816  0.40877778
   0.34449644  0.33310710  0.50516989
   0.24202259  0.41424085  0.58666771
   0.14541042  0.51470479  0.65322113
   0.05314297  0.59251938  0.71935644
   0.00757009  0.67135191  0.83352430
   0.91387457  0.73904340  0.92029079
   0.80013203  0.81133720  0.00601156
   0.43322361  0.40585314  0.57297578
   0.32006572  0.48847653  0.64408181
   0.25452038  0.60133733  0.72662984
   0.15228035  0.65805588  0.80519484
   0.08898018  0.74729662  0.91482254
   0.00664905  0.84758294  0.01693506
   0.89458639  0.90515082  0.08463994
   0.80180730  0.01382000  0.13826623
   0.72925727  0.10289515  0.23946433
   0.66845393  0.17691153  0.35143890
   0.57820664  0.26241090  0.43642811
   0.49588168  0.32499012  0.51297840
   0.48479077  0.31922436  0.65419724
   0.39982871  0.42615691  0.74184956
   0.32467487  0.50559403  0.83061845
   0.23341338  0.62054573  0.90638270
   0.17381357  0.68335175  0.00515483
   0.09162317  0.76506528  0.09726961
   0.00006611  0.84618562  0.18543599
   0.89584185  0.92718920  0.24132104
   0.81493800  0.00886283  0.32895872
   0.75608304  0.08841792  0.44152814
   0.66825934  0.16881764  0.52282235
   0.57731166  0.23518852  0.59490233
   0.56593254  0.23332727  0.74889678
   0.49220097  0.33946749  0.81364693
   0.40765439  0.40852105  0.91060342
   0.31000512  0.51818514  0.97191527
   0.24081058  0.59348543  0.10058689
   0.16745908  0.69780096  0.16993273
   0.06898107  0.74874863  0.25933435
   0.98715340  0.85295400  0.32262694
   0.90275982  0.94144896  0.42358110
   0.83583022  0.99059769  0.51625784
   0.77406033  0.10007707  0.60915892
   0.66278039  0.15180728  0.67904804
   0.66056497  0.15976238  0.85565252
   0.56012484  0.25650449  0.89785182
   0.49935120  0.35857381  0.97200798
   0.40415907  0.42928582  0.05792682
   0.32555125  0.50589759  0.17300088
   0.25956386  0.61362067  0.25216578
   0.16412934  0.64971291  0.37008596
   0.06057306  0.75640134  0.42501016
   0.96557090  0.82533580  0.48155192
   0.91979620  0.90728633  0.58599368
   0.82385362  0.00137338  0.66224115
   0.75064939  0.06573322  0.76600811
   0.74489134  0.06675084  0.92212810
   0.63829967  0.16383046  0.00450949
   0.56937961  0.26222870  0.05491873
   0.49630217  0.35628891  0.17870286
   0.40376304  0.44567058  0.26022413
   0.30798604  0.51809793  0.32624757
   0.25736678  0.58984289  0.43294791
   0.16747554  0.68000550  0.49560132
   0.09301833  0.74895654  0.57103977
   0.99759308  0.82039882  0.67791510
   0.90046311  0.89769622  0.76616159
   0.82487596  0.99048696  0.83940607
   0.82332224  0.00715997  0.00344489
   0.73029402  0.11263518  0.08195774
   0.65134432  0.19928416  0.16177096
   0.57643074  0.25812748  0.26064475
   0.48751845  0.34414945  0.32020501
   0.38452690  0.41802835  0.42483326
   0.34636133  0.50787226  0.50933110
   0.24434133  0.57974385  0.57936693
   0.17120888  0.64644012  0.64086199
   0.11176827  0.74648584  0.73375095
   0.98547642  0.81688159  0.83856964
   0.90818707  0.90065726  0.92932639
