 432 432   0   0
  0.2035379E+02  0.2064000E-08  0.2064000E-08  0.2064000E-08  0.5000000E-15
  1.000000000000000E-004
  CAR 
 Li                                      
      3.47058486     -3.44271031  301      0.38620954      1.00000000
     -3.443  0.0000E+00  0.0000E+00
     -3.420  0.0000E+00  0.0000E+00
     -3.397  0.0000E+00  0.0000E+00
     -3.374  0.0000E+00  0.0000E+00
     -3.351  0.0000E+00  0.0000E+00
     -3.327  0.0000E+00  0.0000E+00
     -3.304  0.4818E-14  0.1110E-15
     -3.281  0.2407E-10  0.5548E-12
     -3.258  0.3937E-07  0.9078E-09
     -3.235  0.2032E-04  0.4691E-06
     -3.212  0.3340E-02  0.7744E-04
     -3.189  0.1771E+00  0.4158E-02
     -3.166  0.3081E+01  0.7515E-01
     -3.143  0.1792E+02  0.4882E+00
     -3.120  0.3548E+02  0.1306E+01
     -3.097  0.2410E+02  0.1861E+01
     -3.074  0.5679E+01  0.1992E+01
     -3.051  0.2633E+01  0.2053E+01
     -3.028  0.1878E+02  0.2485E+01
     -3.005  0.6300E+02  0.3937E+01
     -2.982  0.9230E+02  0.6064E+01
     -2.959  0.6268E+02  0.7508E+01
     -2.936  0.1912E+02  0.7949E+01
     -2.913  0.5915E+01  0.8085E+01
     -2.890  0.2498E+02  0.8661E+01
     -2.867  0.6992E+02  0.1027E+02
     -2.844  0.8931E+02  0.1233E+02
     -2.821  0.5507E+02  0.1360E+02
     -2.797  0.1692E+02  0.1399E+02
     -2.774  0.1609E+02  0.1436E+02
     -2.751  0.5813E+02  0.1570E+02
     -2.728  0.1066E+03  0.1816E+02
     -2.705  0.1029E+03  0.2053E+02
     -2.682  0.5170E+02  0.2172E+02
     -2.659  0.1554E+02  0.2208E+02
     -2.636  0.3080E+02  0.2279E+02
     -2.613  0.9375E+02  0.2495E+02
     -2.590  0.1510E+03  0.2843E+02
     -2.567  0.1429E+03  0.3172E+02
     -2.544  0.7685E+02  0.3349E+02
     -2.521  0.2101E+02  0.3397E+02
     -2.498  0.1472E+02  0.3431E+02
     -2.475  0.5489E+02  0.3558E+02
     -2.452  0.9554E+02  0.3778E+02
     -2.429  0.7088E+02  0.3941E+02
     -2.406  0.2657E+02  0.4003E+02
     -2.383  0.3152E+02  0.4075E+02
     -2.360  0.8570E+02  0.4273E+02
     -2.337  0.1347E+03  0.4583E+02
     -2.314  0.1376E+03  0.4900E+02
     -2.290  0.9201E+02  0.5112E+02
     -2.267  0.4287E+02  0.5211E+02
     -2.244  0.5635E+02  0.5341E+02
     -2.221  0.1272E+03  0.5634E+02
     -2.198  0.1841E+03  0.6058E+02
     -2.175  0.1891E+03  0.6494E+02
     -2.152  0.1420E+03  0.6821E+02
     -2.129  0.6389E+02  0.6969E+02
     -2.106  0.2205E+02  0.7019E+02
     -2.083  0.4414E+02  0.7121E+02
     -2.060  0.8511E+02  0.7317E+02
     -2.037  0.7862E+02  0.7499E+02
     -2.014  0.4097E+02  0.7593E+02
     -1.991  0.3940E+02  0.7684E+02
     -1.968  0.9441E+02  0.7901E+02
     -1.945  0.1475E+03  0.8241E+02
     -1.922  0.1536E+03  0.8595E+02
     -1.899  0.1154E+03  0.8861E+02
     -1.876  0.5609E+02  0.8990E+02
     -1.853  0.4935E+02  0.9104E+02
     -1.830  0.1176E+03  0.9375E+02
     -1.807  0.1900E+03  0.9813E+02
     -1.784  0.2043E+03  0.1028E+03
     -1.760  0.1487E+03  0.1063E+03
     -1.737  0.6672E+02  0.1078E+03
     -1.714  0.4236E+02  0.1088E+03
     -1.691  0.9393E+02  0.1109E+03
     -1.668  0.1484E+03  0.1144E+03
     -1.645  0.1398E+03  0.1176E+03
     -1.622  0.8365E+02  0.1195E+03
     -1.599  0.5627E+02  0.1208E+03
     -1.576  0.1041E+03  0.1232E+03
     -1.553  0.1768E+03  0.1273E+03
     -1.530  0.2029E+03  0.1320E+03
     -1.507  0.1607E+03  0.1357E+03
     -1.484  0.8614E+02  0.1376E+03
     -1.461  0.6176E+02  0.1391E+03
     -1.438  0.1180E+03  0.1418E+03
     -1.415  0.1854E+03  0.1461E+03
     -1.392  0.2049E+03  0.1508E+03
     -1.369  0.1500E+03  0.1542E+03
     -1.346  0.6542E+02  0.1557E+03
     -1.323  0.3574E+02  0.1566E+03
     -1.300  0.7878E+02  0.1584E+03
     -1.277  0.1380E+03  0.1616E+03
     -1.254  0.1460E+03  0.1649E+03
     -1.230  0.9697E+02  0.1672E+03
     -1.207  0.5122E+02  0.1683E+03
     -1.184  0.7984E+02  0.1702E+03
     -1.161  0.1433E+03  0.1735E+03
     -1.138  0.1495E+03  0.1769E+03
     -1.115  0.1021E+03  0.1793E+03
     -1.092  0.8301E+02  0.1812E+03
     -1.069  0.1401E+03  0.1844E+03
     -1.046  0.2190E+03  0.1895E+03
     -1.023  0.2622E+03  0.1955E+03
     -1.000  0.2652E+03  0.2016E+03
     -0.977  0.2164E+03  0.2066E+03
     -0.954  0.1303E+03  0.2096E+03
     -0.931  0.9688E+02  0.2118E+03
     -0.908  0.1436E+03  0.2152E+03
     -0.885  0.1830E+03  0.2194E+03
     -0.862  0.1746E+03  0.2234E+03
     -0.839  0.1313E+03  0.2264E+03
     -0.816  0.8922E+02  0.2285E+03
     -0.793  0.1078E+03  0.2310E+03
     -0.770  0.1565E+03  0.2346E+03
     -0.747  0.1652E+03  0.2384E+03
     -0.723  0.1157E+03  0.2410E+03
     -0.700  0.6833E+02  0.2426E+03
     -0.677  0.1030E+03  0.2450E+03
     -0.654  0.1783E+03  0.2491E+03
     -0.631  0.2282E+03  0.2544E+03
     -0.608  0.2309E+03  0.2597E+03
     -0.585  0.1894E+03  0.2640E+03
     -0.562  0.1401E+03  0.2673E+03
     -0.539  0.1062E+03  0.2697E+03
     -0.516  0.7046E+02  0.2713E+03
     -0.493  0.4717E+02  0.2724E+03
     -0.470  0.8341E+02  0.2744E+03
     -0.447  0.1431E+03  0.2777E+03
     -0.424  0.1845E+03  0.2819E+03
     -0.401  0.2176E+03  0.2869E+03
     -0.378  0.2306E+03  0.2922E+03
     -0.355  0.2092E+03  0.2971E+03
     -0.332  0.1621E+03  0.3008E+03
     -0.309  0.1448E+03  0.3041E+03
     -0.286  0.1727E+03  0.3081E+03
     -0.263  0.2170E+03  0.3131E+03
     -0.240  0.2483E+03  0.3188E+03
     -0.217  0.2397E+03  0.3243E+03
     -0.193  0.1920E+03  0.3288E+03
     -0.170  0.1318E+03  0.3318E+03
     -0.147  0.1110E+03  0.3344E+03
     -0.124  0.1319E+03  0.3374E+03
     -0.101  0.1594E+03  0.3411E+03
     -0.078  0.1768E+03  0.3452E+03
     -0.055  0.1819E+03  0.3493E+03
     -0.032  0.1989E+03  0.3539E+03
     -0.009  0.2302E+03  0.3592E+03
      0.014  0.2420E+03  0.3648E+03
      0.037  0.2229E+03  0.3700E+03
      0.060  0.1978E+03  0.3745E+03
      0.083  0.1760E+03  0.3786E+03
      0.106  0.1652E+03  0.3824E+03
      0.129  0.1744E+03  0.3864E+03
      0.152  0.1907E+03  0.3908E+03
      0.175  0.1959E+03  0.3953E+03
      0.198  0.1848E+03  0.3996E+03
      0.221  0.1620E+03  0.4033E+03
      0.244  0.1460E+03  0.4067E+03
      0.267  0.1556E+03  0.4102E+03
      0.290  0.1746E+03  0.4143E+03
      0.314  0.1846E+03  0.4185E+03
      0.337  0.1859E+03  0.4228E+03
      0.360  0.1834E+03  0.4270E+03
      0.383  0.1862E+03  0.4313E+03
      0.406  0.1910E+03  0.4357E+03
      0.429  0.1860E+03  0.4400E+03
      0.452  0.1832E+03  0.4442E+03
      0.475  0.1884E+03  0.4486E+03
      0.498  0.1959E+03  0.4531E+03
      0.521  0.2008E+03  0.4577E+03
      0.544  0.2024E+03  0.4624E+03
      0.567  0.2058E+03  0.4671E+03
      0.590  0.2085E+03  0.4719E+03
      0.613  0.2091E+03  0.4767E+03
      0.636  0.2059E+03  0.4815E+03
      0.659  0.2090E+03  0.4863E+03
      0.682  0.2202E+03  0.4914E+03
      0.705  0.2356E+03  0.4968E+03
      0.728  0.2410E+03  0.5024E+03
      0.751  0.2379E+03  0.5078E+03
      0.774  0.2314E+03  0.5132E+03
      0.797  0.2332E+03  0.5186E+03
      0.820  0.2379E+03  0.5240E+03
      0.844  0.2331E+03  0.5294E+03
      0.867  0.2284E+03  0.5347E+03
      0.890  0.2256E+03  0.5399E+03
      0.913  0.2230E+03  0.5450E+03
      0.936  0.2171E+03  0.5500E+03
      0.959  0.2030E+03  0.5547E+03
      0.982  0.1975E+03  0.5592E+03
      1.005  0.2050E+03  0.5640E+03
      1.028  0.2112E+03  0.5688E+03
      1.051  0.2131E+03  0.5737E+03
      1.074  0.2189E+03  0.5788E+03
      1.097  0.2252E+03  0.5840E+03
      1.120  0.2244E+03  0.5892E+03
      1.143  0.2185E+03  0.5942E+03
      1.166  0.2095E+03  0.5990E+03
      1.189  0.2079E+03  0.6038E+03
      1.212  0.2113E+03  0.6087E+03
      1.235  0.2038E+03  0.6134E+03
      1.258  0.1794E+03  0.6175E+03
      1.281  0.1645E+03  0.6213E+03
      1.304  0.1733E+03  0.6253E+03
      1.327  0.1777E+03  0.6294E+03
      1.351  0.1795E+03  0.6335E+03
      1.374  0.1787E+03  0.6376E+03
      1.397  0.1647E+03  0.6414E+03
      1.420  0.1516E+03  0.6449E+03
      1.443  0.1423E+03  0.6482E+03
      1.466  0.1463E+03  0.6516E+03
      1.489  0.1628E+03  0.6553E+03
      1.512  0.1764E+03  0.6594E+03
      1.535  0.1763E+03  0.6635E+03
      1.558  0.1640E+03  0.6672E+03
      1.581  0.1580E+03  0.6709E+03
      1.604  0.1612E+03  0.6746E+03
      1.627  0.1686E+03  0.6785E+03
      1.650  0.1778E+03  0.6826E+03
      1.673  0.1785E+03  0.6867E+03
      1.696  0.1768E+03  0.6908E+03
      1.719  0.1760E+03  0.6948E+03
      1.742  0.1839E+03  0.6991E+03
      1.765  0.1875E+03  0.7034E+03
      1.788  0.1732E+03  0.7074E+03
      1.811  0.1657E+03  0.7112E+03
      1.834  0.1684E+03  0.7151E+03
      1.857  0.1758E+03  0.7191E+03
      1.881  0.1772E+03  0.7232E+03
      1.904  0.1738E+03  0.7272E+03
      1.927  0.1714E+03  0.7312E+03
      1.950  0.1631E+03  0.7349E+03
      1.973  0.1568E+03  0.7385E+03
      1.996  0.1588E+03  0.7422E+03
      2.019  0.1562E+03  0.7458E+03
      2.042  0.1508E+03  0.7493E+03
      2.065  0.1550E+03  0.7528E+03
      2.088  0.1518E+03  0.7563E+03
      2.111  0.1380E+03  0.7595E+03
      2.134  0.1263E+03  0.7624E+03
      2.157  0.1290E+03  0.7654E+03
      2.180  0.1354E+03  0.7685E+03
      2.203  0.1327E+03  0.7716E+03
      2.226  0.1322E+03  0.7746E+03
      2.249  0.1272E+03  0.7775E+03
      2.272  0.1190E+03  0.7803E+03
      2.295  0.1132E+03  0.7829E+03
      2.318  0.1030E+03  0.7853E+03
      2.341  0.9980E+02  0.7876E+03
      2.364  0.1067E+03  0.7900E+03
      2.388  0.1019E+03  0.7924E+03
      2.411  0.7879E+02  0.7942E+03
      2.434  0.5322E+02  0.7954E+03
      2.457  0.3141E+02  0.7961E+03
      2.480  0.3902E+02  0.7970E+03
      2.503  0.6171E+02  0.7985E+03
      2.526  0.6731E+02  0.8000E+03
      2.549  0.6210E+02  0.8014E+03
      2.572  0.6236E+02  0.8029E+03
      2.595  0.7221E+02  0.8045E+03
      2.618  0.7941E+02  0.8064E+03
      2.641  0.8203E+02  0.8083E+03
      2.664  0.8492E+02  0.8102E+03
      2.687  0.8308E+02  0.8121E+03
      2.710  0.9208E+02  0.8143E+03
      2.733  0.1161E+03  0.8169E+03
      2.756  0.1263E+03  0.8198E+03
      2.779  0.1242E+03  0.8227E+03
      2.802  0.1227E+03  0.8255E+03
      2.825  0.1220E+03  0.8283E+03
      2.848  0.1318E+03  0.8314E+03
      2.871  0.1327E+03  0.8344E+03
      2.894  0.1189E+03  0.8372E+03
      2.918  0.1133E+03  0.8398E+03
      2.941  0.1112E+03  0.8424E+03
      2.964  0.1054E+03  0.8448E+03
      2.987  0.9671E+02  0.8470E+03
      3.010  0.9102E+02  0.8491E+03
      3.033  0.1005E+03  0.8514E+03
      3.056  0.1082E+03  0.8539E+03
      3.079  0.1157E+03  0.8566E+03
      3.102  0.1201E+03  0.8594E+03
      3.125  0.1153E+03  0.8620E+03
      3.148  0.9778E+02  0.8643E+03
      3.171  0.5686E+02  0.8656E+03
      3.194  0.1641E+02  0.8660E+03
      3.217  0.1936E+01  0.8660E+03
      3.240  0.8496E-01  0.8660E+03
      3.263  0.1318E-02  0.8660E+03
      3.286  0.6981E-05  0.8660E+03
      3.309  0.1228E-07  0.8660E+03
      3.332  0.7029E-11  0.8660E+03
      3.355  0.0000E+00  0.8660E+03
      3.378  0.0000E+00  0.8660E+03
      3.401  0.0000E+00  0.8660E+03
      3.424  0.0000E+00  0.8660E+03
      3.448  0.0000E+00  0.8660E+03
      3.471  0.0000E+00  0.8660E+03
