 running on   64 total cores
 distrk:  each k-point on   32 cores,    2 groups
 distr:  one band on   32 cores,    1 groups
 vasp.6.2.1 16May21 (build Nov 23 2021 15:40:41) complex                        
  
 POSCAR found type information on POSCAR Li
 POSCAR found :  1 types and     432 ions
 scaLAPACK will be used
 -----------------------------------------------------------------------------
|                                                                             |
|           W    W    AA    RRRRR   N    N  II  N    N   GGGG   !!!           |
|           W    W   A  A   R    R  NN   N  II  NN   N  G    G  !!!           |
|           W    W  A    A  R    R  N N  N  II  N N  N  G       !!!           |
|           W WW W  AAAAAA  RRRRR   N  N N  II  N  N N  G  GGG   !            |
|           WW  WW  A    A  R   R   N   NN  II  N   NN  G    G                |
|           W    W  A    A  R    R  N    N  II  N    N   GGGG   !!!           |
|                                                                             |
|     For optimal performance we recommend to set                             |
|       NCORE = 2 up to number-of-cores-per-socket                            |
|     NCORE specifies how many cores store one orbital (NPAR=cpu/NCORE).      |
|     This setting can greatly improve the performance of VASP for DFT.       |
|     The default, NCORE=1 might be grossly inefficient on modern             |
|     multi-core architectures or massively parallel machines. Do your        |
|     own testing! More info at https://www.vasp.at/wiki/index.php/NCORE      |
|     Unfortunately you need to use the default for GW and RPA                |
|     calculations (for HF NCORE is supported but not extensively tested      |
|     yet).                                                                   |
|                                                                             |
 -----------------------------------------------------------------------------

 -----------------------------------------------------------------------------
|                                                                             |
|               ----> ADVICE to this user running VASP <----                  |
|                                                                             |
|     You have a (more or less) 'large supercell' and for larger cells it     |
|     might be more efficient to use real-space projection operators.         |
|     Therefore, try LREAL= Auto in the INCAR file.                           |
|     Mind: If you want to do very accurate calculations, keep the            |
|     reciprocal projection scheme (i.e. LREAL=.FALSE.).                      |
|                                                                             |
 -----------------------------------------------------------------------------

 LDA part: xc-table for Pade appr. of Perdew
 POSCAR found type information on POSCAR Li
 POSCAR found :  1 types and     432 ions
 POSCAR, INCAR and KPOINTS ok, starting setup
 FFT: planning ...
 WAVECAR not read
 entering main loop
       N       E                     dE             d eps       ncg     rms          rms(c)
DAV:   1    -0.221464465642E+03   -0.22146E+03   -0.10486E+05  3464   0.656E+02
DAV:   2    -0.745904115596E+03   -0.52444E+03   -0.47823E+03  4012   0.675E+01
DAV:   3    -0.784279571448E+03   -0.38375E+02   -0.35112E+02  4464   0.144E+01
DAV:   4    -0.785584881499E+03   -0.13053E+01   -0.12875E+01  4032   0.292E+00
DAV:   5    -0.785616125255E+03   -0.31244E-01   -0.31198E-01  4160   0.473E-01    0.105E+01
DAV:   6    -0.794740096264E+03   -0.91240E+01   -0.15871E+01  4352   0.775E+00    0.118E+01
DAV:   7    -0.770090670080E+03    0.24649E+02   -0.15777E+01  4424   0.622E+00    0.438E+00
DAV:   8    -0.768771204884E+03    0.13195E+01   -0.91081E+00  3968   0.260E+00    0.234E+00
DAV:   9    -0.768605618721E+03    0.16559E+00   -0.28622E+00  3920   0.153E+00    0.147E+00
DAV:  10    -0.768569919783E+03    0.35699E-01   -0.56774E-01  4032   0.896E-01    0.116E+00
DAV:  11    -0.768440521976E+03    0.12940E+00   -0.19398E-01  4000   0.518E-01    0.532E-01
DAV:  12    -0.768437628380E+03    0.28936E-02   -0.94472E-02  3808   0.253E-01    0.269E-01
DAV:  13    -0.768438104252E+03   -0.47587E-03   -0.18877E-02  4208   0.160E-01    0.202E-01
DAV:  14    -0.768434664402E+03    0.34398E-02   -0.54200E-03  4048   0.981E-02    0.105E-01
DAV:  15    -0.768434086637E+03    0.57777E-03   -0.19051E-03  3864   0.467E-02    0.502E-02
DAV:  16    -0.768434106374E+03   -0.19737E-04   -0.78081E-04  3936   0.282E-02    0.282E-02
DAV:  17    -0.768434022189E+03    0.84185E-04   -0.24331E-04  3912   0.181E-02    0.153E-02
DAV:  18    -0.768434001284E+03    0.20905E-04   -0.57593E-05  3800   0.733E-03    0.667E-03
DAV:  19    -0.768433996647E+03    0.46371E-05   -0.12645E-05  2096   0.391E-03
   1 F= -.76843400E+03 E0= -.76839107E+03  d E =-.858455E-01
