Li                                      
           1
    20.640000    0.000000    0.000000
     0.000000   20.640000    0.000000
     0.000000    0.000000   20.640000
   Li
   432
Direct configuration=     1
   0.99988169  0.97909420  0.00668446
   0.95312878  0.06324324  0.10041626
   0.86310828  0.15889949  0.14975089
   0.77406282  0.25061842  0.25685672
   0.64922042  0.31435063  0.31727104
   0.59587252  0.40168035  0.42031643
   0.49786733  0.49727639  0.46942595
   0.42690816  0.59463805  0.56896173
   0.33888531  0.68083154  0.68329896
   0.24204453  0.74079015  0.73796556
   0.16060350  0.83386733  0.82166766
   0.06367124  0.91698319  0.89160141
   0.06740664  0.91295691  0.08184825
   0.01385053  0.00069859  0.17113975
   0.95121514  0.08881110  0.25864096
   0.86952446  0.16425560  0.34062801
   0.76543465  0.26323781  0.43513111
   0.67593312  0.33367506  0.52143237
   0.58797422  0.43427920  0.59637886
   0.49186565  0.51074201  0.63667012
   0.41054822  0.53983577  0.74280843
   0.33742014  0.65334126  0.81381634
   0.26105474  0.76995944  0.90470080
   0.17260107  0.85696820  0.97294904
   0.13293117  0.85814689  0.17763059
   0.05772955  0.92868435  0.25643977
   0.01090301  0.02669621  0.35926962
   0.91645182  0.10743987  0.41727921
   0.82779023  0.17692879  0.51605084
   0.75249046  0.24496774  0.59304488
   0.69104751  0.35293844  0.65190607
   0.59863335  0.42755022  0.74904257
   0.51623036  0.48652096  0.83265235
   0.43333220  0.56846301  0.92256203
   0.30283963  0.67899228  0.97954207
   0.21277210  0.79178961  0.06464031
   0.24921346  0.78067858  0.24804162
   0.12904431  0.82263288  0.33897733
   0.05990877  0.93189979  0.43180757
   0.98621271  0.02167189  0.50097677
   0.92283841  0.10629070  0.56150649
   0.83900419  0.16905771  0.67338136
   0.75423313  0.25845933  0.74209343
   0.68251530  0.34128066  0.85579378
   0.57563050  0.42210167  0.90109540
   0.50322704  0.48072357  0.01970075
   0.41991807  0.59029848  0.05828445
   0.32657850  0.68451753  0.14210914
   0.33469339  0.66159094  0.31979908
   0.25442164  0.76511757  0.40994073
   0.16479591  0.81527061  0.49953193
   0.08179146  0.92625467  0.57713780
   0.96186785  0.99904135  0.66888075
   0.93544005  0.08467340  0.77220738
   0.82422709  0.11845005  0.83508310
   0.78444378  0.23969604  0.91534243
   0.65202995  0.30692022  0.99270978
   0.60396577  0.40128727  0.10232756
   0.50130802  0.50252969  0.18244120
   0.40132318  0.56897160  0.23442617
   0.40795314  0.59748777  0.37316819
   0.34129425  0.67437790  0.50686800
   0.21855202  0.74632842  0.59549919
   0.12803233  0.84644572  0.68227320
   0.06749524  0.93991518  0.74953660
   0.97548858  0.99113576  0.82792647
   0.91334421  0.06262668  0.92643967
   0.81926304  0.13536470  0.99158903
   0.77224306  0.26028534  0.08544904
   0.69870748  0.32357803  0.18681469
   0.60086539  0.40864366  0.24224430
   0.50187386  0.48287537  0.33080270
   0.07049616  0.07916084  0.91662823
   0.01207001  0.16250880  0.98517806
   0.92607401  0.24485397  0.05074190
   0.84797864  0.32936175  0.16213377
   0.75648642  0.42657342  0.24522159
   0.66664338  0.52429884  0.32572067
   0.55448347  0.59979106  0.41410357
   0.48822654  0.67134717  0.49474539
   0.41343000  0.76195242  0.58680750
   0.31884245  0.83275917  0.66239732
   0.22408997  0.93431538  0.77706882
   0.15263589  0.02434904  0.82527860
   0.13761214  0.00796389  0.00214709
   0.07472360  0.07634803  0.06926091
   0.02568363  0.17638258  0.16762685
   0.92313257  0.24252190  0.24797073
   0.83343554  0.32551710  0.34221163
   0.72851899  0.42484506  0.41014103
   0.66609169  0.53164838  0.49193842
   0.60035112  0.58739052  0.59103420
   0.49437839  0.65875596  0.65073187
   0.41272291  0.74614537  0.74514295
   0.34857137  0.83800027  0.85186598
   0.25447165  0.93742593  0.89053277
   0.23334531  0.90851698  0.04986844
   0.17590966  0.99062262  0.18372208
   0.10564654  0.11099631  0.24232535
   0.00876745  0.14880349  0.33749335
   0.92420792  0.25846584  0.43496394
   0.81734428  0.35368698  0.51189733
   0.74977974  0.44331636  0.56425422
   0.68073040  0.51303729  0.68504351
   0.56703151  0.59993451  0.73510764
   0.48466254  0.65453582  0.82081399
   0.41819087  0.72577204  0.90288791
   0.35337722  0.82725023  0.96181560
   0.31718612  0.84183637  0.12739976
   0.24850044  0.90696798  0.28327630
   0.14350136  0.02948701  0.37796649
   0.09968998  0.11829294  0.42069630
   0.01009273  0.18991769  0.51206919
   0.89431464  0.27202385  0.58741916
   0.82593541  0.36093052  0.65668875
   0.73765504  0.42820746  0.77180524
   0.65236939  0.50853150  0.84188647
   0.55761944  0.57980824  0.91646731
   0.51948470  0.65766472  0.99043279
   0.42462035  0.75529367  0.07900934
   0.39226756  0.76008296  0.23254347
   0.34105335  0.85546438  0.34826624
   0.23104876  0.94461025  0.43293585
   0.15308405  0.01261409  0.49711794
   0.06341142  0.06961875  0.57569635
   0.98315092  0.17521356  0.64836556
   0.89422409  0.24646445  0.74323304
   0.82916374  0.32336163  0.82225346
   0.73598288  0.43057710  0.93331512
   0.66193991  0.49091110  0.99198752
   0.59469653  0.56791928  0.09016628
   0.47658582  0.64766181  0.18745860
   0.45923795  0.69192984  0.33671806
   0.40466737  0.76736820  0.43466387
   0.31963186  0.85332952  0.53362734
   0.21455193  0.90955395  0.58981932
   0.14570757  0.02943583  0.67958789
   0.06561476  0.11247885  0.75665048
   0.98308111  0.17092751  0.83655229
   0.90482451  0.23947462  0.91520313
   0.83865767  0.31943152  0.00564714
   0.73246832  0.41577538  0.09272053
   0.66414879  0.51094118  0.20173337
   0.56151395  0.61407294  0.26930742
   0.16007777  0.16381225  0.83136726
   0.07704696  0.23838965  0.90626517
   0.99461624  0.30486536  0.99700325
   0.94685944  0.39452540  0.08007150
   0.84137296  0.49118329  0.14836842
   0.76922153  0.58523672  0.26508789
   0.64372448  0.68860466  0.30743816
   0.55395766  0.76283818  0.39760509
   0.48810207  0.83762998  0.50547979
   0.41040113  0.89738713  0.58110944
   0.30775226  0.01034060  0.68345294
   0.22824132  0.09329988  0.75885948
   0.24682796  0.07861810  0.92647002
   0.15113011  0.16990491  0.99853315
   0.08963451  0.24030896  0.08278258
   0.99746856  0.28280791  0.16847191
   0.91605892  0.41892651  0.24921262
   0.84831359  0.50652839  0.34571465
   0.73995930  0.62369485  0.42508790
   0.64005765  0.68969276  0.49631582
   0.60182425  0.73923378  0.61149817
   0.49595069  0.82604485  0.66396725
   0.41945895  0.93190494  0.73984370
   0.34179041  0.00991292  0.84054004
   0.34929753  0.98825913  0.00623464
   0.22866736  0.07074162  0.06853114
   0.18523550  0.18703121  0.15640717
   0.09860836  0.23348456  0.26748064
   0.98777599  0.33277043  0.32426654
   0.93092318  0.39887814  0.41422504
   0.83866965  0.49979789  0.44516437
   0.75710771  0.56370654  0.56674264
   0.69408993  0.64166248  0.68704300
   0.56859515  0.74025739  0.74775656
   0.50611731  0.82286565  0.83186470
   0.45654260  0.91742846  0.91138365
   0.41422387  0.91843447  0.08343644
   0.31441718  0.00847512  0.12989758
   0.25598605  0.10815150  0.26083004
   0.17448487  0.18739052  0.35990276
   0.06033787  0.26612803  0.41102071
   0.01099553  0.34146945  0.49774276
   0.91990458  0.42454144  0.57704635
   0.84778490  0.47854656  0.67544410
   0.76125458  0.56336725  0.76999528
   0.65368013  0.64629468  0.83162805
   0.58959647  0.74533002  0.90333250
   0.48639628  0.82663999  0.00485557
   0.50660530  0.84753097  0.16228668
   0.39035113  0.92879589  0.23633796
   0.32331187  0.99643052  0.31441362
   0.27525240  0.10083508  0.42314810
   0.15391348  0.15401898  0.48936067
   0.09524159  0.24749139  0.61078519
   0.98635725  0.31792784  0.64385065
   0.93712171  0.39861407  0.73159453
   0.85838496  0.47959183  0.85090674
   0.74628555  0.56606628  0.90639143
   0.66286844  0.66926320  0.99490289
   0.56676686  0.75110221  0.07965769
   0.57360610  0.75501868  0.22677717
   0.48334932  0.84093935  0.32307970
   0.39249957  0.92825098  0.42124925
   0.34943351  0.01222071  0.51446002
   0.23418448  0.08539103  0.59041752
   0.14454272  0.15887702  0.66444312
   0.06955744  0.24286042  0.74148494
   0.00488322  0.31125783  0.83050816
   0.91565816  0.39836037  0.90207175
   0.82568890  0.47692692  0.99472966
   0.77337587  0.59099077  0.09187194
   0.67688643  0.67368933  0.16452404
   0.25905130  0.27123418  0.72646053
   0.13988933  0.33023001  0.84105369
   0.07824986  0.40746560  0.91365247
   0.01769872  0.46630452  0.99722221
   0.92931505  0.55401851  0.08533720
   0.84603915  0.66399649  0.16992731
   0.76603697  0.76235993  0.26435786
   0.66036869  0.83166090  0.34975738
   0.57640625  0.93901113  0.42875708
   0.50640905  0.00512723  0.51589645
   0.41684470  0.07261284  0.61262648
   0.32574449  0.15405296  0.66535917
   0.32810314  0.15204670  0.83825832
   0.25838453  0.21047096  0.89774305
   0.17048636  0.30857558  0.96978074
   0.09997592  0.37671125  0.08160235
   0.02759663  0.47912550  0.17734738
   0.89703291  0.59041937  0.23727228
   0.85058127  0.67150801  0.34881508
   0.75477493  0.76913608  0.42553779
   0.63550505  0.85020763  0.51920984
   0.57381557  0.91127496  0.59571425
   0.50149441  0.01493435  0.66021222
   0.40913559  0.10488174  0.73629606
   0.45393133  0.09364326  0.89175161
   0.35751858  0.14440549  0.00401920
   0.25461838  0.25244114  0.07383203
   0.17613623  0.31819371  0.19364592
   0.07199166  0.40976306  0.25924648
   0.00075782  0.49575972  0.32404381
   0.95468431  0.59081114  0.42074763
   0.85470565  0.66588835  0.48882723
   0.74182150  0.73369300  0.56591867
   0.66458440  0.82497524  0.66903469
   0.56907594  0.93579474  0.71337616
   0.52867583  0.02411245  0.82176680
   0.53032755  0.99328528  0.01210524
   0.41893284  0.07743809  0.08046563
   0.33402077  0.16810665  0.13311731
   0.28172844  0.23547975  0.25273521
   0.17941030  0.34146211  0.31956124
   0.08056811  0.39542932  0.41922698
   0.99430441  0.50537028  0.49658254
   0.91238681  0.58611407  0.56830208
   0.82720733  0.65805527  0.67413094
   0.76742292  0.72647509  0.75851911
   0.66092237  0.84108882  0.81777733
   0.57843029  0.89256452  0.91326373
   0.59635309  0.90874274  0.08778186
   0.50039117  0.00604512  0.17847635
   0.40418611  0.07229887  0.22859201
   0.36182450  0.17228179  0.35291117
   0.26231670  0.24480959  0.42135105
   0.17310997  0.31974568  0.50483695
   0.08533369  0.42193405  0.58976973
   0.99266643  0.48518920  0.67157153
   0.89485409  0.56622938  0.74757725
   0.84466315  0.65531172  0.85918637
   0.75543498  0.76611268  0.91829410
   0.68004884  0.82940849  0.01177919
   0.67533331  0.80055866  0.15133188
   0.59080077  0.90567319  0.28381736
   0.47791631  0.99627549  0.33524153
   0.40490242  0.07812499  0.42407278
   0.32721645  0.18657491  0.51465939
   0.24131766  0.23310845  0.60307385
   0.16978340  0.33264156  0.66962414
   0.06054876  0.40902614  0.76381522
   0.95714179  0.50602058  0.83729037
   0.93253422  0.58131328  0.94098026
   0.81274856  0.65701094  0.00409002
   0.78371791  0.75595482  0.06516746
   0.35115108  0.34729727  0.67782275
   0.22102525  0.40512213  0.74587851
   0.14678076  0.50756009  0.85189478
   0.06595517  0.57402762  0.93736300
   0.02867020  0.65484153  0.00682452
   0.90466540  0.73649130  0.08759875
   0.84097512  0.83971697  0.16397915
   0.76513710  0.90545391  0.25239841
   0.67915087  0.99673194  0.32099194
   0.59176893  0.09017964  0.43394468
   0.49794300  0.16281432  0.49735203
   0.41746804  0.24970473  0.60630843
   0.40756887  0.23203922  0.73626561
   0.32520228  0.33674431  0.85863049
   0.22516080  0.42385993  0.91977648
   0.15941155  0.50789477  0.00557106
   0.08816388  0.59643168  0.10960322
   0.00414509  0.66844008  0.15832276
   0.92200691  0.77414154  0.25045709
   0.85107113  0.85287889  0.35226266
   0.74790325  0.93234487  0.43738128
   0.66640074  0.01910064  0.50983346
   0.59602687  0.09159016  0.58872767
   0.51030354  0.15854035  0.67955044
   0.52383510  0.16498828  0.79467872
   0.41789743  0.24313127  0.90122404
   0.32609142  0.31996362  0.97874933
   0.25000484  0.37249270  0.09838308
   0.18460024  0.51179685  0.17430186
   0.07940929  0.59083946  0.24723582
   0.97081028  0.66469958  0.33135613
   0.92753847  0.75558749  0.41021754
   0.83917801  0.82989805  0.48110499
   0.77228093  0.91232712  0.56962416
   0.71326523  0.00175706  0.64067928
   0.59820787  0.07673640  0.71297585
   0.58578039  0.09430055  0.92783299
   0.50168585  0.16373390  0.99913132
   0.41819010  0.24879895  0.07767820
   0.37333225  0.31364095  0.17987899
   0.23133875  0.41655562  0.24525079
   0.20450743  0.51246923  0.35162227
   0.09272830  0.59897902  0.39915646
   0.00793728  0.67641406  0.51091824
   0.89739669  0.74615007  0.57581190
   0.82929674  0.83298725  0.68016985
   0.76226252  0.91796299  0.74524737
   0.63543477  0.00290090  0.82940014
   0.64560135  0.99819280  0.00751236
   0.56658129  0.10008405  0.07979633
   0.48984034  0.15633994  0.17117785
   0.42373140  0.24122689  0.26845392
   0.33110200  0.31767787  0.32898273
   0.26469242  0.38263716  0.43315670
   0.16458573  0.51092855  0.50369685
   0.07424019  0.58474090  0.57578535
   0.99587960  0.65803769  0.66203804
   0.91124324  0.74553207  0.74757956
   0.81730406  0.81241198  0.86263583
   0.72284959  0.92443741  0.88952324
   0.75334256  0.90323191  0.10263725
   0.66560795  0.01750083  0.16221396
   0.57833853  0.07589016  0.27286861
   0.50744506  0.16537097  0.33210306
   0.41752841  0.26628044  0.42659719
   0.35945798  0.30308525  0.52809995
   0.25839376  0.41647076  0.56667378
   0.14259801  0.51118176  0.67647774
   0.05370268  0.57675708  0.77492359
   0.96776598  0.67239409  0.85909733
   0.90829357  0.73782229  0.91726519
   0.83355303  0.85613811  0.01256034
   0.41570725  0.41568666  0.55954012
   0.30935897  0.49243769  0.64519344
   0.24241956  0.57971569  0.75428000
   0.17206689  0.63709155  0.83048639
   0.11551920  0.75205795  0.90476545
   0.02302970  0.80480180  0.99794224
   0.94417868  0.89346505  0.06529936
   0.85392277  0.99250734  0.14609114
   0.78118772  0.08671783  0.22401767
   0.70749889  0.17201420  0.32292780
   0.60778391  0.24716363  0.42036614
   0.53374888  0.31589630  0.51565282
   0.51305374  0.32096016  0.65411503
   0.42389445  0.41551081  0.73848998
   0.34308205  0.46653069  0.84549177
   0.25366373  0.53898990  0.91920221
   0.19575586  0.64162553  0.98845648
   0.08788308  0.76502808  0.09132217
   0.99425396  0.83915490  0.16060663
   0.92877856  0.92115594  0.24365462
   0.85474133  0.00600607  0.32470007
   0.74811426  0.09470643  0.40275623
   0.67263209  0.18271513  0.49081944
   0.56992659  0.22453352  0.59184659
   0.62212731  0.26819368  0.73112279
   0.49859766  0.32736228  0.81268183
   0.42224113  0.42503773  0.93920972
   0.33701834  0.48725488  0.01672816
   0.25907661  0.57443030  0.09923998
   0.17812315  0.66725799  0.16679748
   0.06065566  0.76579025  0.25277370
   0.99428172  0.86484483  0.35259606
   0.92165662  0.94978751  0.45148366
   0.83578520  0.01170029  0.49706295
   0.76327753  0.10676191  0.60371834
   0.68824548  0.17022030  0.66256430
   0.64819434  0.16942803  0.81320240
   0.56798649  0.24851831  0.89999308
   0.48526442  0.34627065  0.99165823
   0.41452322  0.40368759  0.08565073
   0.33429661  0.48437886  0.15708372
   0.27214845  0.58925080  0.24804729
   0.18711223  0.68542643  0.30857971
   0.07623189  0.74276063  0.40125687
   0.00997299  0.82015642  0.51634439
   0.91016361  0.92453750  0.56057569
   0.84442822  0.01189164  0.66178792
   0.73422189  0.09031236  0.74390940
   0.72448954  0.09678356  0.90274490
   0.65727584  0.19470523  0.01540325
   0.56566558  0.27410126  0.10422453
   0.48691626  0.32811689  0.18943262
   0.42413370  0.40026196  0.26305116
   0.33021759  0.45392155  0.34601043
   0.24770800  0.57668539  0.39387589
   0.17151362  0.64910582  0.48578753
   0.09842374  0.74448472  0.58073168
   0.99351628  0.83875264  0.64177613
   0.91921538  0.90218811  0.76309926
   0.82897580  0.00915506  0.84193231
   0.85142898  0.01954969  0.99580670
   0.74338262  0.10386203  0.09982516
   0.65714893  0.18182284  0.17212955
   0.58890252  0.27006845  0.25605275
   0.49217319  0.31431452  0.33387736
   0.41498460  0.35659759  0.42019151
   0.35411779  0.51384882  0.47641008
   0.25897159  0.59100636  0.58900400
   0.14837797  0.65503870  0.69305119
   0.06861113  0.75493432  0.75166350
   0.00005328  0.84928374  0.84468477
   0.90149499  0.91837198  0.90625881
