 504 504   0   0
  0.1982611E+02  0.2127286E-08  0.2105467E-08  0.2230970E-08  0.5000000E-15
  1.000000000000000E-004
  CAR 
 Li                                      
      3.49320420     -3.40731650  301      0.45354893      1.00000000
     -3.407  0.0000E+00  0.0000E+00
     -3.384  0.0000E+00  0.0000E+00
     -3.361  0.0000E+00  0.0000E+00
     -3.338  0.0000E+00  0.0000E+00
     -3.315  0.0000E+00  0.0000E+00
     -3.292  0.0000E+00  0.0000E+00
     -3.269  0.4827E-14  0.1110E-15
     -3.246  0.2581E-10  0.5938E-12
     -3.223  0.4127E-07  0.9499E-09
     -3.200  0.2092E-04  0.4821E-06
     -3.177  0.3391E-02  0.7847E-04
     -3.154  0.1780E+00  0.4174E-02
     -3.131  0.3079E+01  0.7500E-01
     -3.108  0.1788E+02  0.4863E+00
     -3.085  0.3547E+02  0.1302E+01
     -3.062  0.2430E+02  0.1861E+01
     -3.039  0.7627E+01  0.2037E+01
     -3.016  0.1594E+02  0.2403E+01
     -2.993  0.4965E+02  0.3545E+01
     -2.970  0.7908E+02  0.5364E+01
     -2.947  0.7183E+02  0.7017E+01
     -2.924  0.3529E+02  0.7828E+01
     -2.901  0.1651E+02  0.8208E+01
     -2.878  0.4026E+02  0.9134E+01
     -2.855  0.7516E+02  0.1086E+02
     -2.832  0.7510E+02  0.1259E+02
     -2.809  0.4701E+02  0.1367E+02
     -2.786  0.2798E+02  0.1432E+02
     -2.763  0.4692E+02  0.1539E+02
     -2.740  0.7994E+02  0.1723E+02
     -2.717  0.9834E+02  0.1950E+02
     -2.694  0.7648E+02  0.2125E+02
     -2.671  0.4222E+02  0.2223E+02
     -2.648  0.6265E+02  0.2367E+02
     -2.625  0.1143E+03  0.2630E+02
     -2.602  0.1296E+03  0.2928E+02
     -2.579  0.1091E+03  0.3179E+02
     -2.556  0.7159E+02  0.3343E+02
     -2.533  0.4145E+02  0.3439E+02
     -2.510  0.5700E+02  0.3570E+02
     -2.487  0.8524E+02  0.3766E+02
     -2.464  0.7278E+02  0.3933E+02
     -2.441  0.4119E+02  0.4028E+02
     -2.418  0.5453E+02  0.4153E+02
     -2.395  0.8907E+02  0.4358E+02
     -2.372  0.1028E+03  0.4595E+02
     -2.349  0.1111E+03  0.4850E+02
     -2.326  0.1172E+03  0.5120E+02
     -2.303  0.1111E+03  0.5375E+02
     -2.280  0.1165E+03  0.5643E+02
     -2.257  0.1437E+03  0.5974E+02
     -2.234  0.1681E+03  0.6360E+02
     -2.211  0.1479E+03  0.6701E+02
     -2.188  0.1018E+03  0.6935E+02
     -2.165  0.6883E+02  0.7093E+02
     -2.142  0.4705E+02  0.7201E+02
     -2.119  0.5185E+02  0.7321E+02
     -2.096  0.7128E+02  0.7485E+02
     -2.073  0.6798E+02  0.7641E+02
     -2.050  0.8571E+02  0.7838E+02
     -2.027  0.1288E+03  0.8134E+02
     -2.004  0.1433E+03  0.8464E+02
     -1.981  0.1270E+03  0.8756E+02
     -1.958  0.1208E+03  0.9034E+02
     -1.935  0.1181E+03  0.9305E+02
     -1.912  0.1231E+03  0.9588E+02
     -1.889  0.1355E+03  0.9900E+02
     -1.866  0.1598E+03  0.1027E+03
     -1.843  0.1747E+03  0.1067E+03
     -1.820  0.1407E+03  0.1099E+03
     -1.797  0.7792E+02  0.1117E+03
     -1.774  0.5776E+02  0.1130E+03
     -1.751  0.8972E+02  0.1151E+03
     -1.728  0.1164E+03  0.1178E+03
     -1.705  0.1246E+03  0.1207E+03
     -1.682  0.1384E+03  0.1238E+03
     -1.659  0.1599E+03  0.1275E+03
     -1.636  0.1667E+03  0.1314E+03
     -1.613  0.1684E+03  0.1352E+03
     -1.590  0.1602E+03  0.1389E+03
     -1.567  0.1368E+03  0.1421E+03
     -1.544  0.1222E+03  0.1449E+03
     -1.521  0.1283E+03  0.1478E+03
     -1.498  0.1360E+03  0.1510E+03
     -1.475  0.1453E+03  0.1543E+03
     -1.452  0.1419E+03  0.1576E+03
     -1.429  0.1166E+03  0.1602E+03
     -1.406  0.1040E+03  0.1626E+03
     -1.383  0.1127E+03  0.1652E+03
     -1.360  0.1105E+03  0.1678E+03
     -1.337  0.1021E+03  0.1701E+03
     -1.314  0.1159E+03  0.1728E+03
     -1.291  0.1420E+03  0.1760E+03
     -1.268  0.1514E+03  0.1795E+03
     -1.245  0.1523E+03  0.1830E+03
     -1.222  0.1632E+03  0.1868E+03
     -1.199  0.1627E+03  0.1905E+03
     -1.176  0.1557E+03  0.1941E+03
     -1.153  0.1805E+03  0.1983E+03
     -1.130  0.2133E+03  0.2032E+03
     -1.107  0.2215E+03  0.2083E+03
     -1.084  0.2126E+03  0.2132E+03
     -1.061  0.1827E+03  0.2174E+03
     -1.038  0.1542E+03  0.2209E+03
     -1.015  0.1565E+03  0.2245E+03
     -0.992  0.1571E+03  0.2281E+03
     -0.969  0.1243E+03  0.2310E+03
     -0.946  0.9725E+02  0.2332E+03
     -0.923  0.1222E+03  0.2360E+03
     -0.900  0.1578E+03  0.2397E+03
     -0.877  0.1597E+03  0.2433E+03
     -0.854  0.1572E+03  0.2469E+03
     -0.831  0.1602E+03  0.2506E+03
     -0.808  0.1648E+03  0.2544E+03
     -0.785  0.1860E+03  0.2587E+03
     -0.762  0.1916E+03  0.2631E+03
     -0.739  0.1763E+03  0.2672E+03
     -0.716  0.1443E+03  0.2705E+03
     -0.693  0.1162E+03  0.2732E+03
     -0.670  0.1379E+03  0.2763E+03
     -0.647  0.1654E+03  0.2801E+03
     -0.624  0.1623E+03  0.2839E+03
     -0.601  0.1609E+03  0.2876E+03
     -0.578  0.1757E+03  0.2916E+03
     -0.555  0.1986E+03  0.2962E+03
     -0.532  0.2243E+03  0.3013E+03
     -0.509  0.2288E+03  0.3066E+03
     -0.486  0.2083E+03  0.3114E+03
     -0.463  0.2002E+03  0.3160E+03
     -0.440  0.2123E+03  0.3209E+03
     -0.417  0.2236E+03  0.3260E+03
     -0.394  0.2140E+03  0.3309E+03
     -0.371  0.1898E+03  0.3353E+03
     -0.348  0.1698E+03  0.3392E+03
     -0.325  0.1532E+03  0.3427E+03
     -0.302  0.1538E+03  0.3463E+03
     -0.279  0.1744E+03  0.3503E+03
     -0.256  0.1831E+03  0.3545E+03
     -0.233  0.1704E+03  0.3584E+03
     -0.210  0.1730E+03  0.3624E+03
     -0.187  0.1950E+03  0.3669E+03
     -0.164  0.2080E+03  0.3717E+03
     -0.141  0.2013E+03  0.3763E+03
     -0.118  0.1971E+03  0.3808E+03
     -0.095  0.1999E+03  0.3854E+03
     -0.072  0.2019E+03  0.3901E+03
     -0.049  0.2194E+03  0.3951E+03
     -0.026  0.2368E+03  0.4006E+03
     -0.003  0.2439E+03  0.4062E+03
      0.020  0.2447E+03  0.4118E+03
      0.043  0.2278E+03  0.4170E+03
      0.066  0.1996E+03  0.4216E+03
      0.089  0.1845E+03  0.4259E+03
      0.112  0.1961E+03  0.4304E+03
      0.135  0.2147E+03  0.4353E+03
      0.158  0.2243E+03  0.4405E+03
      0.181  0.2246E+03  0.4456E+03
      0.204  0.2088E+03  0.4504E+03
      0.227  0.1884E+03  0.4548E+03
      0.250  0.1756E+03  0.4588E+03
      0.273  0.1728E+03  0.4628E+03
      0.296  0.1970E+03  0.4673E+03
      0.319  0.2222E+03  0.4724E+03
      0.342  0.2253E+03  0.4776E+03
      0.365  0.2264E+03  0.4828E+03
      0.388  0.2365E+03  0.4883E+03
      0.411  0.2393E+03  0.4938E+03
      0.434  0.2372E+03  0.4992E+03
      0.457  0.2448E+03  0.5049E+03
      0.480  0.2551E+03  0.5107E+03
      0.503  0.2594E+03  0.5167E+03
      0.526  0.2682E+03  0.5229E+03
      0.549  0.2738E+03  0.5292E+03
      0.572  0.2660E+03  0.5353E+03
      0.595  0.2573E+03  0.5412E+03
      0.618  0.2632E+03  0.5472E+03
      0.641  0.2671E+03  0.5534E+03
      0.664  0.2541E+03  0.5592E+03
      0.687  0.2388E+03  0.5647E+03
      0.710  0.2294E+03  0.5700E+03
      0.733  0.2295E+03  0.5753E+03
      0.756  0.2284E+03  0.5805E+03
      0.779  0.2212E+03  0.5856E+03
      0.802  0.2181E+03  0.5906E+03
      0.825  0.2092E+03  0.5955E+03
      0.848  0.1973E+03  0.6000E+03
      0.871  0.1967E+03  0.6045E+03
      0.894  0.2064E+03  0.6093E+03
      0.917  0.2153E+03  0.6142E+03
      0.940  0.2127E+03  0.6191E+03
      0.963  0.2129E+03  0.6240E+03
      0.986  0.2161E+03  0.6290E+03
      1.009  0.2124E+03  0.6339E+03
      1.032  0.2163E+03  0.6388E+03
      1.055  0.2223E+03  0.6440E+03
      1.078  0.2190E+03  0.6490E+03
      1.101  0.2162E+03  0.6540E+03
      1.124  0.2237E+03  0.6591E+03
      1.147  0.2444E+03  0.6647E+03
      1.170  0.2485E+03  0.6705E+03
      1.193  0.2349E+03  0.6759E+03
      1.216  0.2219E+03  0.6810E+03
      1.239  0.2183E+03  0.6860E+03
      1.262  0.2174E+03  0.6910E+03
      1.285  0.2109E+03  0.6958E+03
      1.308  0.2091E+03  0.7006E+03
      1.331  0.2120E+03  0.7055E+03
      1.354  0.2199E+03  0.7106E+03
      1.377  0.2185E+03  0.7156E+03
      1.400  0.2134E+03  0.7205E+03
      1.423  0.2094E+03  0.7253E+03
      1.446  0.2030E+03  0.7300E+03
      1.469  0.2079E+03  0.7348E+03
      1.492  0.2120E+03  0.7397E+03
      1.515  0.2111E+03  0.7445E+03
      1.538  0.2099E+03  0.7493E+03
      1.561  0.2170E+03  0.7543E+03
      1.584  0.2321E+03  0.7597E+03
      1.607  0.2336E+03  0.7650E+03
      1.630  0.2223E+03  0.7702E+03
      1.653  0.2129E+03  0.7751E+03
      1.676  0.2160E+03  0.7800E+03
      1.699  0.2235E+03  0.7852E+03
      1.722  0.2218E+03  0.7903E+03
      1.745  0.2165E+03  0.7952E+03
      1.768  0.2199E+03  0.8003E+03
      1.791  0.2248E+03  0.8055E+03
      1.814  0.2122E+03  0.8104E+03
      1.837  0.1947E+03  0.8148E+03
      1.860  0.2001E+03  0.8194E+03
      1.883  0.2062E+03  0.8242E+03
      1.906  0.2020E+03  0.8288E+03
      1.929  0.1925E+03  0.8333E+03
      1.952  0.1942E+03  0.8377E+03
      1.975  0.2047E+03  0.8424E+03
      1.998  0.2038E+03  0.8471E+03
      2.021  0.1987E+03  0.8517E+03
      2.044  0.1904E+03  0.8561E+03
      2.067  0.1847E+03  0.8603E+03
      2.090  0.1837E+03  0.8645E+03
      2.113  0.1866E+03  0.8688E+03
      2.136  0.1887E+03  0.8732E+03
      2.159  0.1900E+03  0.8775E+03
      2.182  0.1835E+03  0.8818E+03
      2.205  0.1737E+03  0.8858E+03
      2.228  0.1706E+03  0.8897E+03
      2.251  0.1742E+03  0.8937E+03
      2.274  0.1723E+03  0.8977E+03
      2.297  0.1668E+03  0.9015E+03
      2.320  0.1563E+03  0.9051E+03
      2.343  0.1486E+03  0.9085E+03
      2.366  0.1446E+03  0.9118E+03
      2.389  0.1470E+03  0.9152E+03
      2.412  0.1476E+03  0.9186E+03
      2.435  0.1434E+03  0.9219E+03
      2.458  0.1537E+03  0.9254E+03
      2.481  0.1615E+03  0.9292E+03
      2.504  0.1489E+03  0.9326E+03
      2.527  0.1405E+03  0.9358E+03
      2.550  0.1362E+03  0.9389E+03
      2.573  0.1254E+03  0.9418E+03
      2.596  0.1295E+03  0.9448E+03
      2.619  0.1454E+03  0.9481E+03
      2.642  0.1547E+03  0.9517E+03
      2.665  0.1474E+03  0.9551E+03
      2.688  0.1344E+03  0.9582E+03
      2.711  0.1348E+03  0.9613E+03
      2.734  0.1386E+03  0.9645E+03
      2.757  0.1291E+03  0.9674E+03
      2.780  0.1232E+03  0.9703E+03
      2.803  0.1351E+03  0.9734E+03
      2.826  0.1376E+03  0.9766E+03
      2.849  0.1357E+03  0.9797E+03
      2.872  0.1298E+03  0.9827E+03
      2.895  0.1241E+03  0.9855E+03
      2.918  0.1290E+03  0.9885E+03
      2.941  0.1217E+03  0.9913E+03
      2.964  0.1078E+03  0.9938E+03
      2.987  0.1044E+03  0.9962E+03
      3.010  0.1028E+03  0.9985E+03
      3.033  0.9572E+02  0.1001E+04
      3.056  0.8520E+02  0.1003E+04
      3.079  0.7851E+02  0.1004E+04
      3.102  0.5901E+02  0.1006E+04
      3.125  0.4353E+02  0.1007E+04
      3.148  0.5004E+02  0.1008E+04
      3.171  0.4910E+02  0.1009E+04
      3.194  0.2819E+02  0.1010E+04
      3.217  0.8380E+01  0.1010E+04
      3.240  0.1099E+01  0.1010E+04
      3.263  0.5521E-01  0.1010E+04
      3.286  0.9754E-03  0.1010E+04
      3.309  0.5777E-05  0.1010E+04
      3.332  0.1116E-07  0.1010E+04
      3.355  0.6907E-11  0.1010E+04
      3.378  0.0000E+00  0.1010E+04
      3.401  0.0000E+00  0.1010E+04
      3.424  0.0000E+00  0.1010E+04
      3.447  0.0000E+00  0.1010E+04
      3.470  0.0000E+00  0.1010E+04
      3.493  0.0000E+00  0.1010E+04
