       N       E                     dE             d eps       ncg     rms          rms(c)
DAV:   1    -0.267643133369E+03   -0.26764E+03   -0.12312E+05  4040   0.658E+02
DAV:   2    -0.884119124109E+03   -0.61648E+03   -0.56318E+03  4660   0.683E+01
DAV:   3    -0.928358733144E+03   -0.44240E+02   -0.40448E+02  5176   0.144E+01
DAV:   4    -0.929884498166E+03   -0.15258E+01   -0.15009E+01  4736   0.291E+00
DAV:   5    -0.929920512900E+03   -0.36015E-01   -0.35941E-01  4888   0.473E-01    0.109E+01
DAV:   6    -0.922314931756E+03    0.76056E+01   -0.15367E+01  4664   0.556E+00    0.825E+00
DAV:   7    -0.916687476259E+03    0.56275E+01   -0.12679E+01  4752   0.506E+00    0.600E+00
DAV:   8    -0.912275098626E+03    0.44124E+01   -0.63187E+00  4736   0.313E+00    0.325E+00
DAV:   9    -0.911758475923E+03    0.51662E+00   -0.34585E+00  4608   0.180E+00    0.222E+00
DAV:  10    -0.911365162528E+03    0.39331E+00   -0.15401E+00  4672   0.128E+00    0.139E+00
DAV:  11    -0.911228555125E+03    0.13661E+00   -0.51060E-01  4464   0.622E-01    0.742E-01
DAV:  12    -0.911236362174E+03   -0.78070E-02   -0.11691E-01  4688   0.349E-01    0.568E-01
DAV:  13    -0.911210252693E+03    0.26109E-01   -0.65513E-02  4680   0.281E-01    0.335E-01
DAV:  14    -0.911205715553E+03    0.45371E-02   -0.17479E-02  4648   0.151E-01    0.204E-01
DAV:  15    -0.911205155072E+03    0.56048E-03   -0.86853E-03  4712   0.112E-01    0.155E-01
DAV:  16    -0.911202500575E+03    0.26545E-02   -0.38296E-03  4648   0.719E-02    0.671E-02
DAV:  17    -0.911202353012E+03    0.14756E-03   -0.13021E-03  4384   0.318E-02    0.335E-02
DAV:  18    -0.911202293222E+03    0.59790E-04   -0.33324E-04  4448   0.182E-02    0.204E-02
DAV:  19    -0.911202283133E+03    0.10090E-04   -0.84258E-05  4696   0.119E-02    0.168E-02
DAV:  20    -0.911202240238E+03    0.42894E-04   -0.41981E-05  4472   0.779E-03    0.615E-03
DAV:  21    -0.911202235106E+03    0.51327E-05   -0.21185E-05  2496   0.379E-03
   1 F= -.91120224E+03 E0= -.91114611E+03  d E =-.112246E+00
