Li                                      
           1
   -10.636430   18.422837    0.000000
   -18.233880  -10.527336    0.000000
    -0.000000    0.000000   22.309700
   Li
   504
Direct configuration=     1
   0.99461086  0.00892543  0.03829397
   0.92230191  0.04238351  0.65727577
   0.86581942  0.08660779  0.30154927
   0.79025390  0.11676763  0.00828196
   0.71958230  0.15937803  0.68142605
   0.65080031  0.21230221  0.32620677
   0.58035457  0.24483828  0.97536930
   0.50388009  0.30756868  0.67504711
   0.43052870  0.34640598  0.35118058
   0.36453661  0.37894411  0.00970814
   0.27872048  0.40933202  0.64851515
   0.21276351  0.46206882  0.35136001
   0.08608637  0.03666764  0.66546168
   0.00934628  0.09033125  0.31774593
   0.93520415  0.12169063  0.01471605
   0.85429202  0.16247423  0.66582048
   0.78768079  0.22030416  0.32971609
   0.70139349  0.25336482  0.00196574
   0.64540790  0.29275223  0.67997991
   0.58052067  0.32837814  0.32939559
   0.49965049  0.38582854  0.96669681
   0.43313517  0.42079589  0.63286790
   0.35857247  0.46922176  0.33356186
   0.27497488  0.49912549  0.01709804
   0.14734489  0.08461268  0.33352877
   0.08611743  0.13615109  0.00104474
   0.99465203  0.16929719  0.66922650
   0.93052083  0.20437239  0.30638572
   0.85277210  0.25655756  0.00123722
   0.78499059  0.29349861  0.68270138
   0.70756020  0.32557218  0.33786844
   0.64509909  0.37538120  0.98586714
   0.56580173  0.41882691  0.64394116
   0.49206507  0.45566271  0.35613319
   0.42419583  0.49438538  0.00648494
   0.35479534  0.54451295  0.67517639
   0.21288827  0.13600106  0.00592538
   0.14677289  0.16128387  0.67541044
   0.06352367  0.21453202  0.33216342
   0.99083517  0.25558543  0.00830125
   0.92640574  0.29220675  0.66572568
   0.86943218  0.33902005  0.32299205
   0.78185008  0.37448182  0.99314273
   0.71416592  0.41640105  0.68597376
   0.64115026  0.45942294  0.33081574
   0.56494841  0.49872015  0.98414641
   0.50410185  0.54245867  0.67210158
   0.43524386  0.58634010  0.35567200
   0.27973813  0.17814295  0.66192713
   0.20911144  0.20694141  0.35841434
   0.13900803  0.25544049  0.99285956
   0.07382659  0.29938442  0.65461743
   0.00179783  0.32565283  0.34562610
   0.91993225  0.37209986  0.98149994
   0.85397699  0.42044517  0.64849441
   0.79414222  0.46553371  0.34426249
   0.70957030  0.50790909  0.99091243
   0.62909131  0.55358336  0.68756035
   0.56667557  0.58921692  0.31705052
   0.50271003  0.62155465  0.99461862
   0.35712981  0.21757208  0.34706109
   0.29137831  0.25559477  0.99848243
   0.22002480  0.30165535  0.66829755
   0.14785152  0.34681327  0.31162945
   0.07831783  0.37358702  0.99567310
   0.99942475  0.41260682  0.66690735
   0.92933975  0.45944622  0.33191733
   0.85253786  0.49776219  0.01964968
   0.78803287  0.54667687  0.68030998
   0.70819460  0.59036174  0.31341640
   0.64032349  0.63041327  0.99569322
   0.56483830  0.65990792  0.67581784
   0.42196213  0.25805056  0.96389315
   0.36420567  0.29858402  0.66036858
   0.29317231  0.32988076  0.32223963
   0.22328329  0.37781978  0.00555238
   0.14870997  0.40202945  0.64989053
   0.06610226  0.45691866  0.31965594
   0.99313548  0.49240661  0.98862867
   0.92833703  0.53879604  0.67537567
   0.84656719  0.58618629  0.32722370
   0.78502212  0.62366888  0.00126330
   0.71501245  0.67693329  0.64128905
   0.63958505  0.70167939  0.34046665
   0.12951846  0.49872248  0.98391121
   0.06907637  0.54913917  0.63879626
   0.99105510  0.57444832  0.33371035
   0.92712039  0.62726438  0.01835066
   0.85820503  0.67846598  0.67375765
   0.79463245  0.71539947  0.30696228
   0.72165943  0.74256060  0.99469308
   0.20369844  0.54331150  0.68185956
   0.13319405  0.59609908  0.35631638
   0.06471965  0.62501382  0.00900355
   0.99354036  0.66606496  0.68199448
   0.93440823  0.70942276  0.32017001
   0.85726430  0.75660926  0.01723213
   0.78451597  0.78576960  0.67257465
   0.29230291  0.58352233  0.34818047
   0.21473317  0.62413953  0.99991437
   0.13919916  0.66657591  0.66325009
   0.07048104  0.70504196  0.34245865
   0.99841777  0.74946782  0.02820137
   0.92281991  0.79734874  0.67240102
   0.85173467  0.84584170  0.29219909
   0.37118635  0.62511023  0.99077502
   0.29668155  0.65786561  0.65337894
   0.21375085  0.69839186  0.34039652
   0.14175597  0.75463679  0.02669731
   0.06715041  0.79071144  0.67545630
   0.99547397  0.83674288  0.32371092
   0.93112218  0.87914322  0.99065486
   0.43030938  0.67228933  0.64710768
   0.36250950  0.70482443  0.34845201
   0.28979623  0.74548240  0.01245406
   0.21499118  0.79483557  0.66636005
   0.13466586  0.84676571  0.33402625
   0.07171122  0.88203169  0.01992840
   0.00482513  0.92139906  0.67146913
   0.92750427  0.95945705  0.31330549
   0.85678371  0.01152545  0.00895894
   0.78597061  0.04639916  0.64312788
   0.70820457  0.08926016  0.33932697
   0.64709185  0.13456999  0.99508757
   0.57250626  0.17107077  0.65265680
   0.49311857  0.21051422  0.32894115
   0.07163669  0.96341266  0.33379523
   0.14794553  0.01158734  0.00186069
   0.20908035  0.04080062  0.68187727
   0.28791113  0.09252813  0.35161188
   0.36065437  0.13545664  0.99988999
   0.43230463  0.17243899  0.65664868
   0.85535346  0.91685925  0.66541938
   0.78955324  0.95288507  0.31870511
   0.71549893  0.00557524  0.02295144
   0.64918602  0.05258013  0.67215628
   0.57116855  0.07137145  0.34405038
   0.49825473  0.13353615  0.99636015
   0.14797267  0.91477415  0.68270323
   0.22021044  0.95874329  0.33079590
   0.28633043  0.00430317  0.99460415
   0.36011869  0.04195429  0.66746219
   0.43203275  0.07606201  0.38076415
   0.78284730  0.86786237  0.02248848
   0.70246526  0.91861379  0.68814535
   0.64455518  0.95291735  0.32985517
   0.57312693  0.00278546  0.99136950
   0.50613862  0.03320960  0.65512787
   0.22312156  0.88452561  0.00424428
   0.28633261  0.92048760  0.67511883
   0.35856471  0.95727106  0.36017405
   0.43342764  0.99630781  0.99751003
   0.71116834  0.82994948  0.31378072
   0.64277108  0.86961498  0.00934059
   0.58215539  0.92052429  0.66951255
   0.50682700  0.96397735  0.37030092
   0.29145743  0.83636731  0.34100468
   0.35520502  0.86958909  0.00957370
   0.43503793  0.91142181  0.63455310
   0.64197516  0.78780504  0.65645730
   0.59021196  0.84027121  0.34093033
   0.50063605  0.86951352  0.02291151
   0.35745785  0.79233356  0.65152345
   0.43181172  0.83523040  0.33729284
   0.57769540  0.74313517  0.99973275
   0.51685698  0.78737429  0.66499638
   0.42813833  0.75177423  0.01893875
   0.50072886  0.71051009  0.32208188
   0.99830953  0.02526785  0.78676347
   0.93112878  0.03438969  0.42961199
   0.85778644  0.10345218  0.13308920
   0.78297579  0.11340946  0.78207411
   0.71735511  0.15846408  0.44563460
   0.65179726  0.21738856  0.11674696
   0.57224287  0.23247041  0.79109207
   0.50231056  0.29331184  0.45195088
   0.43658236  0.33651035  0.12098388
   0.35353097  0.38143443  0.75936061
   0.29283198  0.41729140  0.45882079
   0.22217777  0.45143690  0.10203738
   0.07622813  0.01534206  0.43804237
   0.00508793  0.09578215  0.11470990
   0.92766105  0.13976656  0.76646013
   0.84957684  0.16160128  0.42780137
   0.78063777  0.22306111  0.10122388
   0.70911678  0.24513722  0.80248703
   0.64666685  0.29366622  0.43674412
   0.57514595  0.34092815  0.09979762
   0.50847522  0.36653217  0.76692298
   0.43162034  0.41036150  0.46569569
   0.36947102  0.46594026  0.13384173
   0.28959222  0.51938504  0.78427219
   0.14010984  0.08487945  0.11515884
   0.08454141  0.13836177  0.78671971
   0.00231017  0.13910532  0.43791020
   0.93858606  0.20966258  0.10455807
   0.84537890  0.26763134  0.80034249
   0.77445891  0.28281163  0.44401622
   0.72217512  0.34365850  0.07297986
   0.62161065  0.37633447  0.75596927
   0.55346064  0.42766342  0.45298210
   0.50195008  0.46814668  0.07692857
   0.40869380  0.49241413  0.77417458
   0.35636954  0.53096439  0.46038408
   0.24087494  0.11519620  0.78422160
   0.12379461  0.16185744  0.45058717
   0.07628532  0.22020612  0.10664194
   0.01882237  0.26205616  0.75521790
   0.91648913  0.27885981  0.42500420
   0.86130672  0.33894768  0.09774143
   0.78248258  0.37934519  0.78417262
   0.71003030  0.39238005  0.43168832
   0.65633209  0.44238359  0.08930783
   0.56692371  0.50000663  0.77599532
   0.47536457  0.55768912  0.43463931
   0.42002000  0.59304909  0.11002740
   0.27675282  0.17384150  0.45072010
   0.19832076  0.22032522  0.10806925
   0.15062047  0.26126209  0.77255970
   0.06738772  0.28548254  0.44376936
   0.99223878  0.33896464  0.11397759
   0.93318267  0.37896760  0.77251301
   0.85270965  0.40397734  0.46067840
   0.78321972  0.46262548  0.10379867
   0.74345770  0.49110538  0.81220472
   0.63049433  0.54991448  0.43180158
   0.58158139  0.57699607  0.09788473
   0.49691456  0.58551576  0.76868423
   0.36881974  0.21228678  0.11359944
   0.28606215  0.22566611  0.75742315
   0.18802275  0.29649699  0.44532343
   0.14908641  0.33892986  0.10926787
   0.08178364  0.39565012  0.75255730
   0.01300454  0.40481092  0.45598632
   0.93734027  0.47224449  0.09647849
   0.85957423  0.49600754  0.76369951
   0.76127668  0.53827474  0.42782153
   0.71562345  0.58019601  0.09927521
   0.64308427  0.61404025  0.76955698
   0.56365648  0.66202219  0.43660625
   0.42370596  0.23762669  0.75996175
   0.34460811  0.29624464  0.45744298
   0.30941819  0.34067408  0.13387602
   0.22569169  0.38332277  0.77745602
   0.14567257  0.42157119  0.43716847
   0.08144922  0.46566041  0.09325604
   0.00270372  0.52133878  0.75877333
   0.90823293  0.53718244  0.46475316
   0.83867792  0.59652148  0.11001888
   0.79337131  0.61593148  0.78294117
   0.70883687  0.67177086  0.43630288
   0.62522842  0.71427599  0.10995153
   0.13209175  0.51288133  0.76414327
   0.06236932  0.55078185  0.45509011
   0.00394508  0.58122294  0.10538949
   0.93712991  0.62966508  0.77790432
   0.83294099  0.67209090  0.42559275
   0.77818120  0.71244039  0.10521311
   0.71369780  0.73456921  0.75395239
   0.21407288  0.53068756  0.45369784
   0.13280146  0.56808921  0.11076153
   0.07213064  0.63296767  0.77986864
   0.95906606  0.67308563  0.44174368
   0.92570036  0.71160905  0.13282038
   0.86158845  0.75388777  0.77430260
   0.76813103  0.80003899  0.44534185
   0.29420876  0.57203830  0.11093527
   0.22292746  0.61445507  0.76306151
   0.12318714  0.66316542  0.45297098
   0.08380064  0.70747207  0.11398699
   0.00333754  0.76834484  0.77382117
   0.91213240  0.80714934  0.44576921
   0.84801987  0.83852729  0.10754937
   0.37175431  0.61034759  0.76401416
   0.28765419  0.65739155  0.45621644
   0.20382171  0.70889848  0.11343315
   0.15620244  0.75949983  0.78679911
   0.06613543  0.77823451  0.43487996
   0.00212829  0.83625263  0.10126272
   0.92391634  0.88050292  0.78375539
   0.40235312  0.68259752  0.44706039
   0.35509014  0.69892108  0.13548869
   0.29501388  0.74343821  0.78048754
   0.22013246  0.77052804  0.43795738
   0.14206736  0.84350496  0.13686610
   0.05625191  0.88297629  0.78964444
   0.99375347  0.90240006  0.42377157
   0.92084667  0.97478083  0.12344520
   0.85203366  0.00430918  0.76798490
   0.78507568  0.02551800  0.45474225
   0.70762451  0.07367696  0.11964480
   0.64920109  0.10897315  0.78851284
   0.57546218  0.15392645  0.45297320
   0.49879885  0.21254043  0.09741238
   0.09473679  0.95209661  0.11429406
   0.15374799  0.98802395  0.78939575
   0.19766857  0.04273825  0.45557720
   0.27793589  0.08557313  0.12216803
   0.36354334  0.09817417  0.77796780
   0.42740668  0.16122301  0.46048340
   0.84222315  0.92623322  0.43044941
   0.78062311  0.97178964  0.13369011
   0.71777333  0.99671025  0.78319289
   0.64782960  0.01363662  0.44561326
   0.55823517  0.10799812  0.10847193
   0.50329718  0.11188442  0.75880740
   0.14799663  0.90695051  0.45137879
   0.21802516  0.97515726  0.11269721
   0.29357234  0.99093391  0.76826037
   0.36715134  0.05495520  0.46118270
   0.42536376  0.09570699  0.13889785
   0.78342674  0.87379126  0.78649942
   0.72214007  0.90507203  0.42832204
   0.63361480  0.96798499  0.11223353
   0.54553070  0.99267659  0.78704343
   0.50739429  0.02750440  0.46665963
   0.21135269  0.88675145  0.79313453
   0.29085842  0.93465303  0.44399204
   0.34973904  0.96690170  0.11822034
   0.41344599  0.98191929  0.75784951
   0.70161367  0.85300755  0.13298571
   0.65062794  0.87723720  0.77561671
   0.56943313  0.88952880  0.45820764
   0.49083953  0.97719679  0.08453909
   0.28728988  0.83649590  0.12262336
   0.35676066  0.86701779  0.75969758
   0.42070242  0.92519559  0.44994750
   0.63891131  0.78980848  0.43879351
   0.56067965  0.83518432  0.10374555
   0.50539393  0.84704893  0.75851051
   0.35044095  0.78226444  0.43990192
   0.41301669  0.84819265  0.12305253
   0.59291663  0.74652959  0.78498534
   0.48559841  0.78891708  0.42625087
   0.44213218  0.73581521  0.74688709
   0.51375748  0.69826334  0.12281763
   0.01742248  0.98373180  0.19610461
   0.93396289  0.03553413  0.89315139
   0.85344983  0.05693408  0.54440306
   0.78165767  0.13055328  0.20377788
   0.71021043  0.16755535  0.89000806
   0.62786724  0.21137237  0.55955287
   0.57254092  0.25091079  0.20420134
   0.48429334  0.28997339  0.87848524
   0.42349283  0.32345817  0.56210007
   0.37131099  0.37449375  0.22817859
   0.28485638  0.41526063  0.90370852
   0.20439335  0.46073699  0.56340691
   0.08301358  0.04495925  0.91593136
   0.02599198  0.04821635  0.54983799
   0.93881197  0.13034073  0.20109360
   0.85083365  0.16257398  0.89520751
   0.78327373  0.18779776  0.56223464
   0.70474866  0.26613276  0.21657717
   0.61304555  0.28447748  0.89256548
   0.56550231  0.31807097  0.55894050
   0.49815297  0.37390202  0.21688902
   0.43464227  0.41350678  0.89167152
   0.36083050  0.45684702  0.57778960
   0.28543808  0.47869266  0.21847665
   0.13620926  0.07393967  0.56304397
   0.07801391  0.12086611  0.19647027
   0.01102163  0.17303483  0.87336613
   0.91564544  0.19288091  0.54763179
   0.86538458  0.25238643  0.20324770
   0.78954958  0.28688834  0.89185983
   0.70515237  0.32645812  0.55245856
   0.65603957  0.36416941  0.19929569
   0.56549392  0.40004496  0.88533167
   0.48935158  0.46652589  0.54594634
   0.44357475  0.51894832  0.23235771
   0.35297200  0.56283562  0.87852042
   0.20678386  0.13758207  0.24231994
   0.17797205  0.16686741  0.91172675
   0.06852021  0.19492716  0.55145159
   0.02031348  0.25003793  0.22928712
   0.94950723  0.31118235  0.89025877
   0.84013249  0.31537311  0.56454752
   0.78415329  0.39107341  0.22338810
   0.70195346  0.42109737  0.87694239
   0.63123828  0.45948908  0.54564342
   0.57131748  0.48703782  0.20005628
   0.50804184  0.50830805  0.89440771
   0.42953165  0.59529954  0.56438406
   0.30331731  0.14619956  0.89345841
   0.21038061  0.20224293  0.53024303
   0.14642115  0.24651464  0.22605516
   0.08389591  0.30686288  0.87423758
   0.99575042  0.31621694  0.55098601
   0.92063998  0.38414285  0.19405636
   0.85404217  0.41000642  0.89233717
   0.77568427  0.46107715  0.54868124
   0.70668954  0.49507317  0.20071670
   0.63980881  0.53617422  0.88880401
   0.55723960  0.59176298  0.55480275
   0.52254563  0.63503428  0.19098993
   0.35422953  0.21740294  0.55919757
   0.30834703  0.25821025  0.22634192
   0.24295235  0.27970174  0.86666912
   0.13478839  0.33648979  0.55058744
   0.06679593  0.37344578  0.21423497
   0.00664741  0.42055989  0.86204974
   0.92610824  0.42747952  0.58469774
   0.87049069  0.51003360  0.21118885
   0.80988872  0.54186279  0.89525247
   0.70217415  0.59073454  0.55263655
   0.64072416  0.62117860  0.21338782
   0.56981646  0.65928287  0.88222867
   0.41119407  0.24337721  0.22971277
   0.36188363  0.29997084  0.86813538
   0.25561449  0.32535047  0.54333531
   0.20606258  0.37296380  0.21615273
   0.14886975  0.39710877  0.89027170
   0.07517535  0.44515685  0.55357755
   0.01487332  0.49385354  0.21562228
   0.94282180  0.54519080  0.90289866
   0.84797295  0.59073498  0.55632463
   0.77685830  0.63338294  0.21874772
   0.70748901  0.67313891  0.88810811
   0.63416284  0.72015737  0.54113827
   0.15175846  0.48731167  0.23267970
   0.09726376  0.54769070  0.89572607
   0.99801563  0.56948681  0.56585321
   0.93027543  0.62472968  0.22455759
   0.87984668  0.67915727  0.88834905
   0.77011800  0.70203423  0.54733409
   0.71451201  0.76297008  0.23278517
   0.22264009  0.54924063  0.87828628
   0.14602530  0.58046697  0.54183674
   0.08438020  0.61262030  0.23168068
   0.02656251  0.66835018  0.89592092
   0.91865323  0.70106594  0.53767660
   0.86673232  0.73992320  0.21856583
   0.77538315  0.77909008  0.89168473
   0.28176369  0.59309410  0.55505075
   0.22457391  0.62321798  0.23174560
   0.15363321  0.66599438  0.90527701
   0.04917276  0.69567757  0.56973900
   0.01797548  0.75879507  0.21840804
   0.93972244  0.78383388  0.91138604
   0.85147889  0.83797337  0.58398366
   0.35192123  0.62991553  0.25090982
   0.30752922  0.66021682  0.88792667
   0.20672554  0.70782853  0.55280814
   0.14760819  0.76087839  0.23104795
   0.06941419  0.81382721  0.92743940
   0.98900152  0.81446754  0.57297399
   0.94156151  0.87149534  0.19898383
   0.45374873  0.65255481  0.88277759
   0.35880720  0.70623820  0.53353933
   0.27718901  0.76221175  0.24669876
   0.20928839  0.80529540  0.90660667
   0.14490198  0.82634009  0.56701948
   0.08563546  0.87996824  0.20272399
   0.00029785  0.93105514  0.92685256
   0.92326060  0.94189194  0.55583360
   0.86212411  0.99738067  0.22199338
   0.78268211  0.03696447  0.90064989
   0.71095766  0.07495583  0.54589221
   0.62865763  0.14066296  0.22146615
   0.54099967  0.15750304  0.87187745
   0.49120114  0.20525196  0.54876753
   0.06351817  0.94597300  0.54649153
   0.14582377  0.00152798  0.24079230
   0.22238059  0.01733304  0.90505621
   0.27480070  0.10037129  0.55626047
   0.35302985  0.14354797  0.25320028
   0.42657016  0.17036749  0.87700759
   0.84592806  0.89888654  0.89078770
   0.78953425  0.94824550  0.54304563
   0.70370617  0.01079387  0.24091900
   0.62251969  0.04855237  0.89276094
   0.57897268  0.05956296  0.54852642
   0.49194433  0.13843789  0.25027936
   0.14047462  0.92041116  0.92506064
   0.21134866  0.94108735  0.57952792
   0.29005811  0.00504227  0.23738901
   0.36860707  0.01917780  0.88332654
   0.43744803  0.08887500  0.56084062
   0.78414476  0.88839925  0.20899975
   0.71284689  0.92030070  0.88836755
   0.64590500  0.94122474  0.56222816
   0.57161106  0.02161115  0.20453079
   0.49462275  0.03235142  0.89022860
   0.22097425  0.88410702  0.23011886
   0.29549499  0.90820307  0.88003412
   0.36206871  0.96848556  0.55788946
   0.43226250  0.01009716  0.24975741
   0.71915650  0.82341302  0.55189864
   0.62914951  0.87790750  0.21371297
   0.58598313  0.90754493  0.89442844
   0.51540587  0.95303103  0.54105470
   0.28161954  0.82987969  0.54677288
   0.35304198  0.89001614  0.25215696
   0.42828403  0.88995022  0.88622807
   0.67344137  0.79113709  0.88421801
   0.57954779  0.83141984  0.53598402
   0.49321415  0.89689289  0.22420626
   0.35865575  0.78072950  0.87976778
   0.42980771  0.81797958  0.52530922
   0.55968439  0.75634062  0.21509769
   0.51508295  0.77558340  0.90645374
   0.42996647  0.76930888  0.24530429
   0.48231643  0.71760650  0.55297058
