 432 432   0   0
  0.2356206E+02  0.2167200E-08  0.2167200E-08  0.2167200E-08  0.5000000E-15
  1.000000000000000E-004
  CAR 
 Li                                      
      2.98290743     -3.59106682  301      0.04520648      1.00000000
     -3.591  0.0000E+00  0.0000E+00
     -3.569  0.0000E+00  0.0000E+00
     -3.547  0.0000E+00  0.0000E+00
     -3.525  0.0000E+00  0.0000E+00
     -3.503  0.0000E+00  0.0000E+00
     -3.482  0.0000E+00  0.0000E+00
     -3.460  0.8740E-13  0.1915E-14
     -3.438  0.2130E-09  0.4668E-11
     -3.416  0.1844E-06  0.4046E-08
     -3.394  0.5635E-04  0.1239E-05
     -3.372  0.6125E-02  0.1355E-03
     -3.350  0.2394E+00  0.5380E-02
     -3.328  0.3408E+01  0.8006E-01
     -3.306  0.1794E+02  0.4732E+00
     -3.284  0.3535E+02  0.1248E+01
     -3.262  0.2624E+02  0.1823E+01
     -3.240  0.7497E+01  0.1987E+01
     -3.219  0.4082E+01  0.2076E+01
     -3.197  0.2378E+02  0.2597E+01
     -3.175  0.7167E+02  0.4168E+01
     -3.153  0.9658E+02  0.6284E+01
     -3.131  0.5970E+02  0.7593E+01
     -3.109  0.1707E+02  0.7967E+01
     -3.087  0.8622E+01  0.8156E+01
     -3.065  0.3600E+02  0.8944E+01
     -3.043  0.8407E+02  0.1079E+02
     -3.021  0.9031E+02  0.1277E+02
     -2.999  0.4530E+02  0.1376E+02
     -2.977  0.1231E+02  0.1403E+02
     -2.956  0.2011E+02  0.1447E+02
     -2.934  0.7092E+02  0.1602E+02
     -2.912  0.1207E+03  0.1867E+02
     -2.890  0.1018E+03  0.2090E+02
     -2.868  0.4277E+02  0.2184E+02
     -2.846  0.1780E+02  0.2223E+02
     -2.824  0.5301E+02  0.2339E+02
     -2.802  0.1293E+03  0.2622E+02
     -2.780  0.1709E+03  0.2997E+02
     -2.758  0.1267E+03  0.3274E+02
     -2.736  0.4868E+02  0.3381E+02
     -2.715  0.1346E+02  0.3410E+02
     -2.693  0.3279E+02  0.3482E+02
     -2.671  0.8523E+02  0.3669E+02
     -2.649  0.9590E+02  0.3879E+02
     -2.627  0.4586E+02  0.3980E+02
     -2.605  0.1408E+02  0.4011E+02
     -2.583  0.3565E+02  0.4089E+02
     -2.561  0.1064E+03  0.4322E+02
     -2.539  0.1653E+03  0.4684E+02
     -2.517  0.1453E+03  0.5002E+02
     -2.495  0.7326E+02  0.5163E+02
     -2.473  0.3687E+02  0.5244E+02
     -2.452  0.8284E+02  0.5425E+02
     -2.430  0.1791E+03  0.5818E+02
     -2.408  0.2312E+03  0.6324E+02
     -2.386  0.1880E+03  0.6736E+02
     -2.364  0.9349E+02  0.6941E+02
     -2.342  0.2934E+02  0.7005E+02
     -2.320  0.3292E+02  0.7078E+02
     -2.298  0.7781E+02  0.7248E+02
     -2.276  0.9310E+02  0.7452E+02
     -2.254  0.5324E+02  0.7569E+02
     -2.232  0.2172E+02  0.7616E+02
     -2.211  0.4716E+02  0.7720E+02
     -2.189  0.1247E+03  0.7993E+02
     -2.167  0.1875E+03  0.8404E+02
     -2.145  0.1670E+03  0.8770E+02
     -2.123  0.8522E+02  0.8957E+02
     -2.101  0.3885E+02  0.9042E+02
     -2.079  0.8145E+02  0.9220E+02
     -2.057  0.1774E+03  0.9609E+02
     -2.035  0.2331E+03  0.1012E+03
     -2.013  0.1922E+03  0.1054E+03
     -1.991  0.9409E+02  0.1075E+03
     -1.969  0.3487E+02  0.1082E+03
     -1.948  0.5989E+02  0.1095E+03
     -1.926  0.1336E+03  0.1125E+03
     -1.904  0.1704E+03  0.1162E+03
     -1.882  0.1233E+03  0.1189E+03
     -1.860  0.5862E+02  0.1202E+03
     -1.838  0.7337E+02  0.1218E+03
     -1.816  0.1531E+03  0.1252E+03
     -1.794  0.2150E+03  0.1299E+03
     -1.772  0.2053E+03  0.1344E+03
     -1.750  0.1240E+03  0.1371E+03
     -1.728  0.5998E+02  0.1384E+03
     -1.707  0.9300E+02  0.1404E+03
     -1.685  0.1862E+03  0.1445E+03
     -1.663  0.2335E+03  0.1496E+03
     -1.641  0.1835E+03  0.1537E+03
     -1.619  0.8706E+02  0.1556E+03
     -1.597  0.3914E+02  0.1564E+03
     -1.575  0.7478E+02  0.1581E+03
     -1.553  0.1415E+03  0.1612E+03
     -1.531  0.1605E+03  0.1647E+03
     -1.509  0.1080E+03  0.1670E+03
     -1.487  0.4444E+02  0.1680E+03
     -1.465  0.4217E+02  0.1689E+03
     -1.444  0.9413E+02  0.1710E+03
     -1.422  0.1433E+03  0.1741E+03
     -1.400  0.1453E+03  0.1773E+03
     -1.378  0.1034E+03  0.1796E+03
     -1.356  0.1038E+03  0.1819E+03
     -1.334  0.1969E+03  0.1862E+03
     -1.312  0.2918E+03  0.1926E+03
     -1.290  0.3157E+03  0.1995E+03
     -1.268  0.2652E+03  0.2053E+03
     -1.246  0.1626E+03  0.2089E+03
     -1.224  0.9751E+02  0.2110E+03
     -1.203  0.1414E+03  0.2141E+03
     -1.181  0.2132E+03  0.2188E+03
     -1.159  0.2167E+03  0.2235E+03
     -1.137  0.1439E+03  0.2267E+03
     -1.115  0.6093E+02  0.2280E+03
     -1.093  0.5701E+02  0.2293E+03
     -1.071  0.1279E+03  0.2321E+03
     -1.049  0.1852E+03  0.2361E+03
     -1.027  0.1619E+03  0.2397E+03
     -1.005  0.9228E+02  0.2417E+03
     -0.983  0.7786E+02  0.2434E+03
     -0.961  0.1622E+03  0.2470E+03
     -0.940  0.2624E+03  0.2527E+03
     -0.918  0.2839E+03  0.2589E+03
     -0.896  0.2122E+03  0.2636E+03
     -0.874  0.1246E+03  0.2663E+03
     -0.852  0.1022E+03  0.2685E+03
     -0.830  0.9572E+02  0.2706E+03
     -0.808  0.5110E+02  0.2718E+03
     -0.786  0.2676E+02  0.2724E+03
     -0.764  0.7197E+02  0.2739E+03
     -0.742  0.1659E+03  0.2776E+03
     -0.720  0.2453E+03  0.2829E+03
     -0.699  0.2733E+03  0.2889E+03
     -0.677  0.2418E+03  0.2942E+03
     -0.655  0.1844E+03  0.2983E+03
     -0.633  0.1527E+03  0.3016E+03
     -0.611  0.1674E+03  0.3053E+03
     -0.589  0.2215E+03  0.3101E+03
     -0.567  0.2761E+03  0.3162E+03
     -0.545  0.2917E+03  0.3226E+03
     -0.523  0.2441E+03  0.3279E+03
     -0.501  0.1541E+03  0.3313E+03
     -0.479  0.1040E+03  0.3336E+03
     -0.457  0.1142E+03  0.3361E+03
     -0.436  0.1374E+03  0.3391E+03
     -0.414  0.1401E+03  0.3422E+03
     -0.392  0.1236E+03  0.3449E+03
     -0.370  0.1664E+03  0.3485E+03
     -0.348  0.2492E+03  0.3540E+03
     -0.326  0.2952E+03  0.3604E+03
     -0.304  0.3010E+03  0.3670E+03
     -0.282  0.2751E+03  0.3731E+03
     -0.260  0.2047E+03  0.3776E+03
     -0.238  0.1377E+03  0.3806E+03
     -0.216  0.1589E+03  0.3841E+03
     -0.195  0.2218E+03  0.3889E+03
     -0.173  0.2361E+03  0.3941E+03
     -0.151  0.2147E+03  0.3988E+03
     -0.129  0.1640E+03  0.4024E+03
     -0.107  0.1117E+03  0.4048E+03
     -0.085  0.1145E+03  0.4073E+03
     -0.063  0.1392E+03  0.4104E+03
     -0.041  0.1747E+03  0.4142E+03
     -0.019  0.2169E+03  0.4190E+03
      0.003  0.2199E+03  0.4238E+03
      0.025  0.1926E+03  0.4280E+03
      0.047  0.1945E+03  0.4323E+03
      0.068  0.2318E+03  0.4374E+03
      0.090  0.2543E+03  0.4429E+03
      0.112  0.2586E+03  0.4486E+03
      0.134  0.2584E+03  0.4543E+03
      0.156  0.2230E+03  0.4591E+03
      0.178  0.1557E+03  0.4626E+03
      0.200  0.1309E+03  0.4654E+03
      0.222  0.1721E+03  0.4692E+03
      0.244  0.2104E+03  0.4738E+03
      0.266  0.2176E+03  0.4786E+03
      0.288  0.2301E+03  0.4836E+03
      0.309  0.2523E+03  0.4891E+03
      0.331  0.2732E+03  0.4951E+03
      0.353  0.2955E+03  0.5016E+03
      0.375  0.3086E+03  0.5084E+03
      0.397  0.3087E+03  0.5151E+03
      0.419  0.2996E+03  0.5217E+03
      0.441  0.2805E+03  0.5278E+03
      0.463  0.2663E+03  0.5337E+03
      0.485  0.2679E+03  0.5396E+03
      0.507  0.2751E+03  0.5456E+03
      0.529  0.2684E+03  0.5515E+03
      0.551  0.2480E+03  0.5569E+03
      0.572  0.2367E+03  0.5621E+03
      0.594  0.2374E+03  0.5673E+03
      0.616  0.2347E+03  0.5724E+03
      0.638  0.2325E+03  0.5775E+03
      0.660  0.2427E+03  0.5828E+03
      0.682  0.2538E+03  0.5884E+03
      0.704  0.2544E+03  0.5940E+03
      0.726  0.2611E+03  0.5997E+03
      0.748  0.2708E+03  0.6056E+03
      0.770  0.2658E+03  0.6115E+03
      0.792  0.2313E+03  0.6165E+03
      0.813  0.1776E+03  0.6204E+03
      0.835  0.1633E+03  0.6240E+03
      0.857  0.1945E+03  0.6283E+03
      0.879  0.2300E+03  0.6333E+03
      0.901  0.2511E+03  0.6388E+03
      0.923  0.2411E+03  0.6441E+03
      0.945  0.1946E+03  0.6484E+03
      0.967  0.1214E+03  0.6510E+03
      0.989  0.6995E+02  0.6525E+03
      1.011  0.9799E+02  0.6547E+03
      1.033  0.1535E+03  0.6581E+03
      1.055  0.1602E+03  0.6616E+03
      1.076  0.1378E+03  0.6646E+03
      1.098  0.1424E+03  0.6677E+03
      1.120  0.1703E+03  0.6714E+03
      1.142  0.1933E+03  0.6757E+03
      1.164  0.2088E+03  0.6802E+03
      1.186  0.2092E+03  0.6848E+03
      1.208  0.1900E+03  0.6890E+03
      1.230  0.1639E+03  0.6926E+03
      1.252  0.1507E+03  0.6959E+03
      1.274  0.1437E+03  0.6990E+03
      1.296  0.1539E+03  0.7024E+03
      1.318  0.1984E+03  0.7068E+03
      1.339  0.2310E+03  0.7118E+03
      1.361  0.2303E+03  0.7169E+03
      1.383  0.2047E+03  0.7214E+03
      1.405  0.1772E+03  0.7252E+03
      1.427  0.1846E+03  0.7293E+03
      1.449  0.2129E+03  0.7339E+03
      1.471  0.2238E+03  0.7388E+03
      1.493  0.2236E+03  0.7437E+03
      1.515  0.2103E+03  0.7484E+03
      1.537  0.1780E+03  0.7523E+03
      1.559  0.1633E+03  0.7558E+03
      1.580  0.1694E+03  0.7595E+03
      1.602  0.1798E+03  0.7635E+03
      1.624  0.1769E+03  0.7674E+03
      1.646  0.1479E+03  0.7706E+03
      1.668  0.1280E+03  0.7734E+03
      1.690  0.1411E+03  0.7765E+03
      1.712  0.1458E+03  0.7797E+03
      1.734  0.1127E+03  0.7822E+03
      1.756  0.7526E+02  0.7838E+03
      1.778  0.7421E+02  0.7854E+03
      1.800  0.1054E+03  0.7878E+03
      1.822  0.1272E+03  0.7905E+03
      1.843  0.1185E+03  0.7931E+03
      1.865  0.8483E+02  0.7950E+03
      1.887  0.3733E+02  0.7958E+03
      1.909  0.8761E+01  0.7960E+03
      1.931  0.9908E+01  0.7962E+03
      1.953  0.4280E+02  0.7972E+03
      1.975  0.8873E+02  0.7991E+03
      1.997  0.8604E+02  0.8010E+03
      2.019  0.3829E+02  0.8018E+03
      2.041  0.7346E+01  0.8020E+03
      2.063  0.6119E+00  0.8020E+03
      2.084  0.1011E+01  0.8020E+03
      2.106  0.9306E+01  0.8022E+03
      2.128  0.3760E+02  0.8031E+03
      2.150  0.7851E+02  0.8048E+03
      2.172  0.1075E+03  0.8071E+03
      2.194  0.1136E+03  0.8096E+03
      2.216  0.1095E+03  0.8120E+03
      2.238  0.1117E+03  0.8145E+03
      2.260  0.1135E+03  0.8169E+03
      2.282  0.1175E+03  0.8195E+03
      2.304  0.1357E+03  0.8225E+03
      2.326  0.1606E+03  0.8260E+03
      2.347  0.1718E+03  0.8298E+03
      2.369  0.1741E+03  0.8336E+03
      2.391  0.1634E+03  0.8372E+03
      2.413  0.1314E+03  0.8401E+03
      2.435  0.1051E+03  0.8424E+03
      2.457  0.9960E+02  0.8445E+03
      2.479  0.9005E+02  0.8465E+03
      2.501  0.5256E+02  0.8477E+03
      2.523  0.2629E+02  0.8482E+03
      2.545  0.4352E+02  0.8492E+03
      2.567  0.7847E+02  0.8509E+03
      2.588  0.1084E+03  0.8533E+03
      2.610  0.1426E+03  0.8564E+03
      2.632  0.1608E+03  0.8599E+03
      2.654  0.1396E+03  0.8630E+03
      2.676  0.8757E+02  0.8649E+03
      2.698  0.3790E+02  0.8658E+03
      2.720  0.9992E+01  0.8660E+03
      2.742  0.1327E+01  0.8660E+03
      2.764  0.7681E-01  0.8660E+03
      2.786  0.1772E-02  0.8660E+03
      2.808  0.1544E-04  0.8660E+03
      2.830  0.4914E-07  0.8660E+03
      2.851  0.5600E-10  0.8660E+03
      2.873  0.2280E-13  0.8660E+03
      2.895  0.0000E+00  0.8660E+03
      2.917  0.0000E+00  0.8660E+03
      2.939  0.0000E+00  0.8660E+03
      2.961  0.0000E+00  0.8660E+03
      2.983  0.0000E+00  0.8660E+03
