Li                                      
           1
    21.672000    0.000000    0.000000
     0.000000   21.672000    0.000000
     0.000000    0.000000   21.672000
   Li
   432
Direct configuration=     1
   0.98923958  0.99733909  0.98524444
   0.92449052  0.09567267  0.09067305
   0.81923144  0.15846078  0.15990345
   0.73786053  0.24340398  0.23679183
   0.66675370  0.33538038  0.32274532
   0.57225332  0.43069503  0.42252742
   0.49299971  0.51145423  0.50007404
   0.39343802  0.59845911  0.58721133
   0.32777986  0.67462816  0.68425428
   0.23165174  0.76379640  0.76132362
   0.15156755  0.83318900  0.83629990
   0.09140417  0.91044579  0.93027403
   0.08797210  0.92130298  0.07833952
   0.99660640  0.97800143  0.15589689
   0.91061116  0.07183682  0.24054377
   0.82139011  0.16163942  0.32362103
   0.73827222  0.25321773  0.40636459
   0.66044488  0.34279571  0.50721287
   0.57688955  0.42762453  0.58575400
   0.51734025  0.51217455  0.65076354
   0.42784273  0.57670421  0.75624688
   0.31272761  0.66369112  0.82324697
   0.24880925  0.74886734  0.89811458
   0.16391012  0.83015620  0.99693361
   0.16173073  0.82392200  0.16786539
   0.08583950  0.91250442  0.26327390
   0.00749887  0.98888409  0.34972105
   0.92768994  0.09217895  0.42591359
   0.84204216  0.19057753  0.47939076
   0.73607109  0.24554754  0.58217391
   0.65254436  0.32452854  0.65210855
   0.58627980  0.41716784  0.75798898
   0.51629016  0.50754667  0.84204030
   0.42480047  0.58405053  0.91188500
   0.32738358  0.67412573  0.99477062
   0.26394690  0.75441420  0.09317851
   0.23651450  0.73123364  0.25174372
   0.14108661  0.83108514  0.33452117
   0.08413813  0.92257086  0.42087121
   0.99163616  0.98526095  0.50744428
   0.92053833  0.10920280  0.56585001
   0.84113450  0.17335734  0.66679395
   0.73575471  0.25132040  0.72864353
   0.66611222  0.34403303  0.82716795
   0.58428210  0.43359343  0.93054599
   0.49377910  0.47757462  0.00430649
   0.40745567  0.59196559  0.08419943
   0.33590374  0.64434696  0.17413936
   0.33477484  0.66854013  0.32645995
   0.24227825  0.75768144  0.41282890
   0.16389548  0.83325228  0.51615778
   0.06027524  0.92019842  0.58287398
   0.98803549  0.00650490  0.65684305
   0.91713045  0.10501822  0.76680901
   0.81380593  0.17753475  0.83430281
   0.73501475  0.25607616  0.92443260
   0.65039333  0.34279469  0.00201101
   0.56410641  0.41119557  0.08935392
   0.48825881  0.49176002  0.14874656
   0.42141909  0.56423998  0.25817359
   0.39533287  0.58886762  0.41818423
   0.32550585  0.68163597  0.49061565
   0.24130086  0.74702620  0.58688057
   0.16335722  0.83062991  0.66867600
   0.07435205  0.91493716  0.73170429
   0.99658679  0.98795065  0.83170864
   0.91975742  0.10523891  0.90292877
   0.82144766  0.16409831  0.98583495
   0.74058222  0.25518918  0.08630129
   0.66362314  0.34330729  0.13858910
   0.59290132  0.40411138  0.24226037
   0.49874555  0.50558843  0.33442220
   0.07806193  0.08030633  0.93498303
   0.01644340  0.18303387  0.99931522
   0.89945210  0.24250637  0.07460047
   0.82931863  0.33728075  0.17140203
   0.75814005  0.41686070  0.24809085
   0.66054155  0.48040362  0.33618200
   0.58705937  0.59500341  0.41931782
   0.49253740  0.68431610  0.49400938
   0.40480316  0.76238077  0.58719357
   0.32385612  0.84853241  0.67057073
   0.24384131  0.92031188  0.76614382
   0.16284205  0.99704014  0.85497619
   0.18817015  0.01382761  0.00430546
   0.08747064  0.08060892  0.09104448
   0.01342539  0.16129461  0.16135210
   0.92708343  0.23244153  0.24249767
   0.83787340  0.33202831  0.34110360
   0.76095328  0.40969540  0.41801529
   0.68163167  0.50341566  0.50181261
   0.59197056  0.59709133  0.56996867
   0.49995184  0.67390172  0.66107269
   0.41137571  0.74707509  0.75621132
   0.32920846  0.82742378  0.82838195
   0.24625385  0.91603052  0.91333525
   0.24002826  0.90316978  0.09053397
   0.15896276  0.00016949  0.16632465
   0.08541264  0.07160384  0.23693851
   0.01279739  0.16232627  0.32300803
   0.92286864  0.26213575  0.41326524
   0.81705893  0.32884360  0.51364382
   0.74289842  0.41919958  0.60078453
   0.67258800  0.50507301  0.67266219
   0.60203449  0.59213798  0.74757081
   0.51017019  0.66841447  0.83100275
   0.41225978  0.75185626  0.90195317
   0.32642228  0.84457070  0.99235040
   0.31393759  0.82067967  0.17384442
   0.22783584  0.93182763  0.24342104
   0.15985813  0.00980789  0.34109935
   0.08055639  0.07455289  0.44228287
   0.00158034  0.19450206  0.49062216
   0.92218987  0.24988884  0.58477445
   0.81941652  0.33456424  0.66322276
   0.74562685  0.43235393  0.74259536
   0.67005467  0.50818145  0.84205737
   0.58682572  0.58828969  0.93800867
   0.48499938  0.67814207  0.99851568
   0.40864890  0.74595967  0.08691982
   0.43379640  0.76301502  0.23595579
   0.32634869  0.83347415  0.30710972
   0.23407255  0.92206583  0.41417464
   0.16489626  0.00555492  0.50756358
   0.07783174  0.09871339  0.58221394
   0.01258110  0.17024312  0.67922557
   0.89652453  0.25970159  0.76617017
   0.80960641  0.34202910  0.83539610
   0.75001121  0.43400822  0.92039312
   0.67019900  0.49740404  0.03775155
   0.58017957  0.59880601  0.07869795
   0.50295196  0.66198687  0.16816401
   0.49405231  0.66668893  0.32472809
   0.41627678  0.75748155  0.40669555
   0.31882231  0.83231707  0.50305565
   0.24357486  0.91463152  0.58188916
   0.17513018  0.01248546  0.67042710
   0.08763061  0.07055319  0.75450618
   0.00959034  0.17636057  0.82395334
   0.89794551  0.23730429  0.92216427
   0.81426132  0.32435469  0.98376609
   0.75615041  0.40256989  0.09846707
   0.67143729  0.50837927  0.15541347
   0.58135797  0.57564822  0.25878350
   0.15396702  0.16484962  0.83283121
   0.08879847  0.25982684  0.90322320
   0.00140559  0.31941572  0.99115782
   0.90227708  0.40411019  0.06257130
   0.83028154  0.49258056  0.18064771
   0.75566474  0.56811281  0.26068634
   0.68683568  0.66457480  0.35075787
   0.59677925  0.75979127  0.39893408
   0.50990338  0.82439806  0.50448101
   0.42047469  0.90412473  0.58818998
   0.33748937  0.97932010  0.67307678
   0.23839190  0.07131672  0.75809016
   0.25788291  0.10489595  0.90551665
   0.15150036  0.17482503  0.00512859
   0.08998250  0.24377728  0.06293321
   0.99274844  0.32465053  0.14131557
   0.92632411  0.40355948  0.24256232
   0.84004527  0.49463586  0.33537400
   0.76101206  0.58483840  0.42463391
   0.66987692  0.67143448  0.50832379
   0.58552215  0.75385546  0.58784420
   0.49483633  0.83735776  0.66316862
   0.43263277  0.89634254  0.75887461
   0.33692764  0.00308320  0.81048621
   0.33804271  0.98890987  0.01515691
   0.24474531  0.10589668  0.08520579
   0.17358404  0.16535999  0.16585361
   0.08579526  0.25804452  0.25325037
   0.99204883  0.34108823  0.31971520
   0.91623684  0.41546035  0.41764753
   0.82840179  0.49287012  0.50703659
   0.75155212  0.58649503  0.59134340
   0.66416289  0.66555450  0.66800979
   0.59899455  0.75845711  0.74711816
   0.51849443  0.83149386  0.84481077
   0.41087197  0.91877578  0.91628439
   0.41184248  0.90078557  0.08443622
   0.30662503  0.99961909  0.15985305
   0.24605644  0.09292509  0.24895009
   0.16093448  0.15104346  0.34048948
   0.09954453  0.25583703  0.40008063
   0.00915002  0.33819414  0.49027500
   0.92092758  0.40770917  0.57336943
   0.84749785  0.50043944  0.66795676
   0.75325546  0.58949682  0.75872419
   0.66603697  0.66400326  0.82751026
   0.58823442  0.76195648  0.90745802
   0.50956201  0.83043213  0.99353901
   0.50443336  0.83864378  0.16448330
   0.40743024  0.92213744  0.24419509
   0.32971462  0.99066333  0.33001910
   0.26072709  0.08551829  0.43769459
   0.16870083  0.16790910  0.48910333
   0.06943756  0.26162590  0.59468930
   0.99227920  0.32879738  0.67403724
   0.90424421  0.41568265  0.75637364
   0.83369521  0.49427248  0.83201384
   0.74038773  0.57795946  0.92537215
   0.67602883  0.67620416  0.02197163
   0.57998096  0.74930797  0.09332718
   0.58264655  0.76090965  0.24464562
   0.51137020  0.84708468  0.32859832
   0.42310870  0.91575408  0.41809609
   0.33554248  0.99016994  0.50159010
   0.25672675  0.08769627  0.59783909
   0.16029338  0.17380025  0.67015262
   0.08005364  0.28180206  0.74539564
   0.97972557  0.33796347  0.85078025
   0.90794759  0.42989062  0.92327866
   0.83909438  0.49318827  0.00369040
   0.77032680  0.59401643  0.09404797
   0.66899099  0.65919828  0.17623306
   0.25702822  0.25862147  0.75614941
   0.17834445  0.32863007  0.82201999
   0.07752707  0.40246395  0.91377420
   0.99505919  0.48544988  0.99331858
   0.93236277  0.57195072  0.09332333
   0.84394247  0.66020699  0.17747620
   0.76511267  0.75651016  0.24764718
   0.65326365  0.83532052  0.33280426
   0.57164546  0.92812903  0.41569714
   0.50299743  0.99586594  0.51378417
   0.41233275  0.07803676  0.59347240
   0.35237988  0.16626420  0.69007551
   0.34285007  0.16284211  0.81695418
   0.25837214  0.24613319  0.92107337
   0.16474816  0.32978931  0.99677547
   0.08030995  0.40266389  0.07664198
   0.99707833  0.47757124  0.15894734
   0.92816172  0.57526866  0.25304394
   0.83197257  0.66787678  0.32704466
   0.75978739  0.75404790  0.41845686
   0.65812123  0.84020990  0.49249380
   0.57009453  0.92194307  0.58154410
   0.50904038  0.00106246  0.66689986
   0.43474973  0.08153966  0.74218321
   0.42417987  0.06641446  0.89656288
   0.35300496  0.14801932  0.99450283
   0.26460121  0.25008181  0.08067709
   0.17392801  0.33268242  0.15561734
   0.09021899  0.39752954  0.24298972
   0.01201814  0.49064219  0.33122423
   0.91849041  0.57607648  0.41347306
   0.83213123  0.65302022  0.49325124
   0.74396757  0.76146844  0.58353444
   0.66073334  0.84596983  0.65600595
   0.58996737  0.92300331  0.75411096
   0.50938792  0.99297780  0.82130492
   0.48771109  0.99522830  0.99673320
   0.41906503  0.07141313  0.09206929
   0.33118011  0.16907218  0.15212545
   0.25536964  0.25193612  0.24903250
   0.18322232  0.34077288  0.33383667
   0.07667923  0.41372450  0.41997273
   0.00597625  0.49781115  0.50299917
   0.90809853  0.57097414  0.58502119
   0.82772087  0.66487485  0.65407142
   0.74489982  0.75327205  0.74220116
   0.66415675  0.83729654  0.84184348
   0.57208689  0.93693731  0.91642720
   0.58692534  0.93972504  0.08752450
   0.50984862  0.00574365  0.17103539
   0.39833224  0.07537969  0.25315965
   0.33568327  0.16163380  0.33125119
   0.25388132  0.25260745  0.42544571
   0.18350082  0.33001027  0.51495408
   0.08629446  0.41435734  0.58632681
   0.00306624  0.48309654  0.66433700
   0.90806682  0.57398900  0.75559925
   0.82961199  0.67457867  0.83298304
   0.74090227  0.76074978  0.92530737
   0.65750227  0.83321373  0.99690886
   0.68010257  0.83972237  0.16231987
   0.58883605  0.93549828  0.25023098
   0.52761255  0.00943225  0.33164833
   0.40692947  0.07605582  0.41370583
   0.34822760  0.16749883  0.51570868
   0.25994600  0.24577351  0.59572189
   0.16806283  0.34365092  0.67503978
   0.07216278  0.41201758  0.74703998
   0.99292947  0.49606431  0.82965464
   0.91552636  0.58331566  0.92005824
   0.83741737  0.66923398  0.99577449
   0.75810181  0.76696131  0.09321182
   0.34006095  0.33031906  0.68756622
   0.25287481  0.42979565  0.76945769
   0.16641238  0.51266525  0.83963909
   0.09101915  0.57561787  0.91127375
   0.97517035  0.67778638  0.00712855
   0.91331051  0.74399545  0.09459925
   0.83676768  0.84664416  0.16809506
   0.76151412  0.92836523  0.25324358
   0.67647029  0.00140345  0.33011373
   0.58429579  0.07607519  0.41936256
   0.49666520  0.15973163  0.50385570
   0.42038958  0.24648908  0.59157230
   0.44096717  0.26804925  0.76549178
   0.34344025  0.32764078  0.83387778
   0.24514350  0.42150257  0.90302851
   0.16286260  0.47939381  0.99621597
   0.07756072  0.57733833  0.07928291
   0.99976091  0.65146719  0.15995298
   0.91571070  0.75692795  0.23972008
   0.84011097  0.83445288  0.32962050
   0.75242746  0.89962562  0.41294684
   0.67278177  0.00061483  0.50023365
   0.59155763  0.08816908  0.57856418
   0.49943589  0.15051323  0.68183307
   0.51649709  0.16052894  0.83730714
   0.42358224  0.26390095  0.90877469
   0.34154283  0.33943042  0.98186026
   0.24791849  0.41576253  0.08494071
   0.16816184  0.49361517  0.15886311
   0.08753057  0.57341131  0.23833812
   0.00176310  0.66125233  0.34400443
   0.91408246  0.73661089  0.42194475
   0.84372907  0.83669185  0.49180056
   0.75223212  0.91959623  0.57425555
   0.68255859  0.00020097  0.67241064
   0.60369562  0.08209878  0.74164947
   0.59966261  0.07366437  0.91749828
   0.50012021  0.14626208  0.00206433
   0.40175493  0.23861313  0.08609664
   0.31512850  0.31835173  0.17824134
   0.24868413  0.39713821  0.24376408
   0.16526885  0.48547969  0.33670582
   0.08818338  0.58901050  0.41091013
   0.00379286  0.65779347  0.51486265
   0.90378084  0.75203664  0.58409419
   0.82061957  0.83303895  0.66215324
   0.76818528  0.90771114  0.73963142
   0.67128043  0.98714780  0.83808406
   0.68752540  0.00333511  0.99726403
   0.57867993  0.07903641  0.07996085
   0.49356923  0.14791372  0.18288002
   0.41875572  0.24320254  0.25533763
   0.34752046  0.32873416  0.32533021
   0.24720714  0.40683467  0.41308891
   0.16496291  0.49627236  0.49539091
   0.09755650  0.57470446  0.58537770
   0.98435818  0.64448894  0.66155300
   0.90424605  0.75508198  0.74004004
   0.83390128  0.82537891  0.83637869
   0.76296599  0.90683917  0.90883272
   0.76088419  0.92965654  0.07805697
   0.67127769  0.02925437  0.15967114
   0.59203143  0.08525378  0.25716775
   0.50480067  0.15743112  0.32369326
   0.42984082  0.26345216  0.41852742
   0.34701880  0.33959008  0.49955490
   0.26682563  0.42103728  0.59311370
   0.17287653  0.50469450  0.65377041
   0.06577501  0.58000484  0.74201996
   0.97502722  0.66578511  0.83761814
   0.90110306  0.76250665  0.91634457
   0.83046282  0.82885627  0.02544832
   0.41055377  0.43034605  0.60215740
   0.34103128  0.51235752  0.68187004
   0.24491144  0.59794120  0.75822097
   0.15655567  0.66531773  0.83178044
   0.06850694  0.75434980  0.89997198
   0.99482502  0.83116775  0.01820556
   0.91892814  0.94149225  0.07171552
   0.82538852  0.99973171  0.16854094
   0.75048190  0.07980885  0.25895831
   0.64906279  0.17621189  0.32392358
   0.57695193  0.25444537  0.41998675
   0.50325513  0.33592372  0.51642095
   0.51211294  0.33775838  0.66753458
   0.44604540  0.42743365  0.75404455
   0.33645324  0.51644322  0.83532053
   0.24795106  0.57927275  0.91831518
   0.16861507  0.67224913  0.99117481
   0.08210123  0.74088758  0.09003628
   0.00180613  0.84012081  0.15823419
   0.91890636  0.94390299  0.25992422
   0.82916514  0.01641317  0.34593731
   0.74487051  0.10650489  0.42632731
   0.66816634  0.18816265  0.48958004
   0.59071054  0.24618053  0.59424733
   0.57771287  0.23133012  0.76939385
   0.51831928  0.34713677  0.84087875
   0.42740718  0.41411846  0.90865092
   0.34014122  0.50262696  0.00344850
   0.24963386  0.57167289  0.06979577
   0.17590896  0.64704623  0.14881422
   0.06754448  0.72222179  0.25649848
   0.99629369  0.84334363  0.32439279
   0.91450899  0.91327788  0.40246841
   0.83640437  0.01017041  0.50079290
   0.76979319  0.09779296  0.58673196
   0.67758605  0.16419365  0.68160236
   0.67405123  0.15196509  0.83876113
   0.58335029  0.23530234  0.91133929
   0.50424156  0.32942869  0.00374697
   0.41159990  0.39235840  0.10500889
   0.32842687  0.49540076  0.15441843
   0.24720346  0.56453700  0.25005056
   0.16786911  0.66433209  0.34311310
   0.07615372  0.74998925  0.43043685
   0.98378573  0.83394461  0.48702623
   0.90829761  0.91800212  0.57909334
   0.84781795  0.00500945  0.65034434
   0.75028559  0.07789325  0.75541243
   0.75524357  0.06365860  0.91034368
   0.68155763  0.14640156  0.00096511
   0.59171465  0.22579083  0.07600104
   0.49756966  0.31313103  0.16777744
   0.41344671  0.40563419  0.24559501
   0.33324432  0.47964001  0.33278274
   0.25940481  0.58388569  0.41041601
   0.16470258  0.67324605  0.49520076
   0.06689841  0.74451338  0.57874773
   0.00109565  0.82225768  0.66484575
   0.91229233  0.90598284  0.73984580
   0.84658387  0.00202361  0.81781413
   0.82978597  0.00926888  0.00245236
   0.75039161  0.08724686  0.06646020
   0.67256120  0.16228662  0.17106378
   0.58342421  0.24954089  0.22867851
   0.51017162  0.33195063  0.33098868
   0.43098642  0.40384138  0.42534600
   0.34851686  0.49343825  0.48677797
   0.24669572  0.57979893  0.56986321
   0.15063618  0.67104588  0.66939746
   0.07170067  0.74998174  0.72419602
   0.99519073  0.85614375  0.83407496
   0.90891130  0.89972192  0.91976357
