 500 500   0   0
  0.2349479E+02  0.2273250E-08  0.2273250E-08  0.2273250E-08  0.5000000E-15
  1.000000000000000E-004
  CAR 
 Li                                      
      2.69113756     -3.59119635  301      0.02156189      1.00000000
     -3.591  0.0000E+00  0.0000E+00
     -3.570  0.0000E+00  0.0000E+00
     -3.549  0.0000E+00  0.0000E+00
     -3.528  0.0000E+00  0.0000E+00
     -3.507  0.0000E+00  0.0000E+00
     -3.486  0.0000E+00  0.0000E+00
     -3.466  0.9278E-14  0.1943E-15
     -3.445  0.2071E-10  0.4339E-12
     -3.424  0.1867E-07  0.3913E-09
     -3.403  0.6484E-05  0.1362E-06
     -3.382  0.8731E-03  0.1842E-04
     -3.361  0.4593E-01  0.9803E-03
     -3.340  0.9532E+00  0.2094E-01
     -3.319  0.7891E+01  0.1862E+00
     -3.298  0.2634E+02  0.7378E+00
     -3.277  0.3573E+02  0.1486E+01
     -3.256  0.2000E+02  0.1905E+01
     -3.235  0.7853E+01  0.2069E+01
     -3.214  0.2003E+02  0.2489E+01
     -3.193  0.5491E+02  0.3638E+01
     -3.172  0.8429E+02  0.5404E+01
     -3.151  0.7607E+02  0.6997E+01
     -3.130  0.3935E+02  0.7821E+01
     -3.110  0.2073E+02  0.8255E+01
     -3.089  0.4303E+02  0.9156E+01
     -3.068  0.7991E+02  0.1083E+02
     -3.047  0.8467E+02  0.1260E+02
     -3.026  0.5155E+02  0.1368E+02
     -3.005  0.2719E+02  0.1425E+02
     -2.984  0.4463E+02  0.1519E+02
     -2.963  0.8498E+02  0.1697E+02
     -2.942  0.1069E+03  0.1920E+02
     -2.921  0.8703E+02  0.2103E+02
     -2.900  0.5011E+02  0.2208E+02
     -2.879  0.5367E+02  0.2320E+02
     -2.858  0.9852E+02  0.2526E+02
     -2.837  0.1365E+03  0.2812E+02
     -2.816  0.1343E+03  0.3093E+02
     -2.795  0.9320E+02  0.3289E+02
     -2.774  0.4680E+02  0.3387E+02
     -2.754  0.3937E+02  0.3469E+02
     -2.733  0.7648E+02  0.3629E+02
     -2.712  0.9624E+02  0.3831E+02
     -2.691  0.6401E+02  0.3965E+02
     -2.670  0.3986E+02  0.4048E+02
     -2.649  0.6790E+02  0.4190E+02
     -2.628  0.1182E+03  0.4438E+02
     -2.607  0.1491E+03  0.4750E+02
     -2.586  0.1308E+03  0.5024E+02
     -2.565  0.8341E+02  0.5199E+02
     -2.544  0.8207E+02  0.5371E+02
     -2.523  0.1351E+03  0.5654E+02
     -2.502  0.1786E+03  0.6027E+02
     -2.481  0.1829E+03  0.6410E+02
     -2.460  0.1533E+03  0.6731E+02
     -2.439  0.9838E+02  0.6937E+02
     -2.418  0.5771E+02  0.7058E+02
     -2.398  0.6156E+02  0.7187E+02
     -2.377  0.8168E+02  0.7358E+02
     -2.356  0.7535E+02  0.7516E+02
     -2.335  0.5553E+02  0.7632E+02
     -2.314  0.8113E+02  0.7802E+02
     -2.293  0.1405E+03  0.8097E+02
     -2.272  0.1695E+03  0.8452E+02
     -2.251  0.1474E+03  0.8760E+02
     -2.230  0.1010E+03  0.8972E+02
     -2.209  0.9103E+02  0.9162E+02
     -2.188  0.1319E+03  0.9439E+02
     -2.167  0.1713E+03  0.9797E+02
     -2.146  0.1825E+03  0.1018E+03
     -2.125  0.1602E+03  0.1051E+03
     -2.104  0.1107E+03  0.1075E+03
     -2.083  0.9079E+02  0.1094E+03
     -2.062  0.1263E+03  0.1120E+03
     -2.042  0.1494E+03  0.1151E+03
     -2.021  0.1328E+03  0.1179E+03
     -2.000  0.1081E+03  0.1202E+03
     -1.979  0.1183E+03  0.1227E+03
     -1.958  0.1593E+03  0.1260E+03
     -1.937  0.1852E+03  0.1299E+03
     -1.916  0.1806E+03  0.1337E+03
     -1.895  0.1390E+03  0.1366E+03
     -1.874  0.9843E+02  0.1386E+03
     -1.853  0.1194E+03  0.1411E+03
     -1.832  0.1727E+03  0.1448E+03
     -1.811  0.1953E+03  0.1488E+03
     -1.790  0.1698E+03  0.1524E+03
     -1.769  0.1197E+03  0.1549E+03
     -1.748  0.9425E+02  0.1569E+03
     -1.727  0.1188E+03  0.1594E+03
     -1.706  0.1489E+03  0.1625E+03
     -1.686  0.1420E+03  0.1655E+03
     -1.665  0.1111E+03  0.1678E+03
     -1.644  0.1083E+03  0.1701E+03
     -1.623  0.1409E+03  0.1730E+03
     -1.602  0.1568E+03  0.1763E+03
     -1.581  0.1288E+03  0.1790E+03
     -1.560  0.1048E+03  0.1812E+03
     -1.539  0.1361E+03  0.1840E+03
     -1.518  0.1956E+03  0.1881E+03
     -1.497  0.2488E+03  0.1933E+03
     -1.476  0.2690E+03  0.1990E+03
     -1.455  0.2439E+03  0.2041E+03
     -1.434  0.1910E+03  0.2081E+03
     -1.413  0.1525E+03  0.2113E+03
     -1.392  0.1673E+03  0.2148E+03
     -1.371  0.1983E+03  0.2189E+03
     -1.350  0.1940E+03  0.2230E+03
     -1.330  0.1565E+03  0.2263E+03
     -1.309  0.1257E+03  0.2289E+03
     -1.288  0.1353E+03  0.2317E+03
     -1.267  0.1627E+03  0.2351E+03
     -1.246  0.1683E+03  0.2387E+03
     -1.225  0.1549E+03  0.2419E+03
     -1.204  0.1565E+03  0.2452E+03
     -1.183  0.1770E+03  0.2489E+03
     -1.162  0.2054E+03  0.2532E+03
     -1.141  0.2279E+03  0.2580E+03
     -1.120  0.2033E+03  0.2622E+03
     -1.099  0.1347E+03  0.2650E+03
     -1.078  0.8962E+02  0.2669E+03
     -1.057  0.9147E+02  0.2688E+03
     -1.036  0.9694E+02  0.2709E+03
     -1.015  0.1009E+03  0.2730E+03
     -0.994  0.1480E+03  0.2761E+03
     -0.974  0.2154E+03  0.2806E+03
     -0.953  0.2563E+03  0.2860E+03
     -0.932  0.2653E+03  0.2915E+03
     -0.911  0.2511E+03  0.2968E+03
     -0.890  0.2299E+03  0.3016E+03
     -0.869  0.2228E+03  0.3063E+03
     -0.848  0.2317E+03  0.3111E+03
     -0.827  0.2451E+03  0.3162E+03
     -0.806  0.2517E+03  0.3215E+03
     -0.785  0.2406E+03  0.3265E+03
     -0.764  0.2115E+03  0.3310E+03
     -0.743  0.1797E+03  0.3347E+03
     -0.722  0.1636E+03  0.3382E+03
     -0.701  0.1633E+03  0.3416E+03
     -0.680  0.1668E+03  0.3451E+03
     -0.659  0.1723E+03  0.3487E+03
     -0.638  0.1872E+03  0.3526E+03
     -0.618  0.2055E+03  0.3569E+03
     -0.597  0.2082E+03  0.3613E+03
     -0.576  0.1923E+03  0.3653E+03
     -0.555  0.1815E+03  0.3691E+03
     -0.534  0.2012E+03  0.3733E+03
     -0.513  0.2312E+03  0.3781E+03
     -0.492  0.2444E+03  0.3833E+03
     -0.471  0.2427E+03  0.3884E+03
     -0.450  0.2316E+03  0.3932E+03
     -0.429  0.2207E+03  0.3978E+03
     -0.408  0.2243E+03  0.4025E+03
     -0.387  0.2196E+03  0.4071E+03
     -0.366  0.1949E+03  0.4112E+03
     -0.345  0.1783E+03  0.4149E+03
     -0.324  0.1914E+03  0.4189E+03
     -0.303  0.2142E+03  0.4234E+03
     -0.283  0.2274E+03  0.4282E+03
     -0.262  0.2323E+03  0.4331E+03
     -0.241  0.2283E+03  0.4378E+03
     -0.220  0.2321E+03  0.4427E+03
     -0.199  0.2442E+03  0.4478E+03
     -0.178  0.2484E+03  0.4530E+03
     -0.157  0.2323E+03  0.4579E+03
     -0.136  0.2098E+03  0.4623E+03
     -0.115  0.2028E+03  0.4665E+03
     -0.094  0.2129E+03  0.4710E+03
     -0.073  0.2304E+03  0.4758E+03
     -0.052  0.2425E+03  0.4809E+03
     -0.031  0.2505E+03  0.4861E+03
     -0.010  0.2599E+03  0.4916E+03
      0.011  0.2653E+03  0.4971E+03
      0.032  0.2631E+03  0.5026E+03
      0.053  0.2547E+03  0.5080E+03
      0.073  0.2503E+03  0.5132E+03
      0.094  0.2548E+03  0.5185E+03
      0.115  0.2660E+03  0.5241E+03
      0.136  0.2801E+03  0.5300E+03
      0.157  0.2909E+03  0.5361E+03
      0.178  0.2968E+03  0.5423E+03
      0.199  0.2936E+03  0.5484E+03
      0.220  0.2869E+03  0.5544E+03
      0.241  0.2863E+03  0.5604E+03
      0.262  0.2915E+03  0.5665E+03
      0.283  0.2886E+03  0.5726E+03
      0.304  0.2748E+03  0.5783E+03
      0.325  0.2566E+03  0.5837E+03
      0.346  0.2475E+03  0.5889E+03
      0.367  0.2374E+03  0.5939E+03
      0.388  0.2190E+03  0.5985E+03
      0.409  0.2130E+03  0.6029E+03
      0.429  0.2225E+03  0.6076E+03
      0.450  0.2269E+03  0.6123E+03
      0.471  0.2260E+03  0.6171E+03
      0.492  0.2284E+03  0.6218E+03
      0.513  0.2275E+03  0.6266E+03
      0.534  0.2175E+03  0.6312E+03
      0.555  0.2089E+03  0.6355E+03
      0.576  0.2131E+03  0.6400E+03
      0.597  0.2228E+03  0.6447E+03
      0.618  0.2310E+03  0.6495E+03
      0.639  0.2443E+03  0.6546E+03
      0.660  0.2611E+03  0.6601E+03
      0.681  0.2662E+03  0.6657E+03
      0.702  0.2616E+03  0.6711E+03
      0.723  0.2543E+03  0.6765E+03
      0.744  0.2535E+03  0.6818E+03
      0.765  0.2587E+03  0.6872E+03
      0.785  0.2589E+03  0.6926E+03
      0.806  0.2517E+03  0.6979E+03
      0.827  0.2455E+03  0.7030E+03
      0.848  0.2468E+03  0.7082E+03
      0.869  0.2478E+03  0.7134E+03
      0.890  0.2378E+03  0.7184E+03
      0.911  0.2220E+03  0.7230E+03
      0.932  0.2174E+03  0.7276E+03
      0.953  0.2182E+03  0.7321E+03
      0.974  0.2147E+03  0.7366E+03
      0.995  0.2223E+03  0.7413E+03
      1.016  0.2305E+03  0.7461E+03
      1.037  0.2195E+03  0.7507E+03
      1.058  0.2045E+03  0.7550E+03
      1.079  0.1947E+03  0.7591E+03
      1.100  0.1919E+03  0.7631E+03
      1.121  0.1966E+03  0.7672E+03
      1.141  0.1988E+03  0.7714E+03
      1.162  0.1913E+03  0.7754E+03
      1.183  0.1738E+03  0.7790E+03
      1.204  0.1628E+03  0.7824E+03
      1.225  0.1677E+03  0.7859E+03
      1.246  0.1756E+03  0.7896E+03
      1.267  0.1854E+03  0.7935E+03
      1.288  0.1934E+03  0.7975E+03
      1.309  0.1956E+03  0.8016E+03
      1.330  0.2020E+03  0.8059E+03
      1.351  0.2124E+03  0.8103E+03
      1.372  0.2114E+03  0.8147E+03
      1.393  0.1998E+03  0.8189E+03
      1.414  0.2029E+03  0.8232E+03
      1.435  0.2137E+03  0.8276E+03
      1.456  0.2146E+03  0.8321E+03
      1.477  0.2133E+03  0.8366E+03
      1.497  0.2074E+03  0.8410E+03
      1.518  0.2003E+03  0.8451E+03
      1.539  0.1913E+03  0.8492E+03
      1.560  0.1862E+03  0.8531E+03
      1.581  0.1888E+03  0.8570E+03
      1.602  0.1830E+03  0.8608E+03
      1.623  0.1710E+03  0.8644E+03
      1.644  0.1638E+03  0.8678E+03
      1.665  0.1604E+03  0.8712E+03
      1.686  0.1615E+03  0.8746E+03
      1.707  0.1684E+03  0.8781E+03
      1.728  0.1740E+03  0.8818E+03
      1.749  0.1751E+03  0.8854E+03
      1.770  0.1749E+03  0.8891E+03
      1.791  0.1712E+03  0.8927E+03
      1.812  0.1711E+03  0.8963E+03
      1.833  0.1722E+03  0.8999E+03
      1.853  0.1723E+03  0.9035E+03
      1.874  0.1731E+03  0.9071E+03
      1.895  0.1751E+03  0.9108E+03
      1.916  0.1796E+03  0.9145E+03
      1.937  0.1812E+03  0.9183E+03
      1.958  0.1755E+03  0.9220E+03
      1.979  0.1739E+03  0.9256E+03
      2.000  0.1805E+03  0.9294E+03
      2.021  0.1793E+03  0.9332E+03
      2.042  0.1741E+03  0.9368E+03
      2.063  0.1789E+03  0.9406E+03
      2.084  0.1869E+03  0.9445E+03
      2.105  0.1890E+03  0.9484E+03
      2.126  0.1811E+03  0.9522E+03
      2.147  0.1715E+03  0.9558E+03
      2.168  0.1826E+03  0.9596E+03
      2.189  0.2025E+03  0.9639E+03
      2.209  0.2125E+03  0.9683E+03
      2.230  0.2144E+03  0.9728E+03
      2.251  0.2020E+03  0.9771E+03
      2.272  0.1818E+03  0.9809E+03
      2.293  0.1734E+03  0.9845E+03
      2.314  0.1761E+03  0.9882E+03
      2.335  0.1826E+03  0.9920E+03
      2.356  0.1799E+03  0.9958E+03
      2.377  0.1509E+03  0.9989E+03
      2.398  0.9713E+02  0.1001E+04
      2.419  0.4001E+02  0.1002E+04
      2.440  0.8605E+01  0.1002E+04
      2.461  0.8474E+00  0.1002E+04
      2.482  0.3563E-01  0.1002E+04
      2.503  0.6154E-03  0.1002E+04
      2.524  0.4260E-05  0.1002E+04
      2.545  0.1164E-07  0.1002E+04
      2.565  0.1240E-10  0.1002E+04
      2.586  0.5302E-14  0.1002E+04
      2.607  0.0000E+00  0.1002E+04
      2.628  0.0000E+00  0.1002E+04
      2.649  0.0000E+00  0.1002E+04
      2.670  0.0000E+00  0.1002E+04
      2.691  0.0000E+00  0.1002E+04
