       N       E                     dE             d eps       ncg     rms          rms(c)
DAV:   1    -0.291095609035E+03   -0.29110E+03   -0.11642E+05  4008   0.642E+02
DAV:   2    -0.856988724233E+03   -0.56589E+03   -0.51628E+03  4620   0.636E+01
DAV:   3    -0.900828967178E+03   -0.43840E+02   -0.40322E+02  5272   0.139E+01
DAV:   4    -0.902427873323E+03   -0.15989E+01   -0.15760E+01  4792   0.293E+00
DAV:   5    -0.902468413048E+03   -0.40540E-01   -0.40461E-01  4976   0.483E-01    0.119E+01
DAV:   6    -0.906285914490E+03   -0.38175E+01   -0.16687E+01  5059   0.726E+00    0.116E+01
DAV:   7    -0.884110543420E+03    0.22175E+02   -0.17214E+01  5480   0.613E+00    0.596E+00
DAV:   8    -0.880373406510E+03    0.37371E+01   -0.12159E+01  4888   0.327E+00    0.327E+00
DAV:   9    -0.879708516676E+03    0.66489E+00   -0.63066E+00  4624   0.198E+00    0.168E+00
DAV:  10    -0.879866415956E+03   -0.15790E+00   -0.12771E+00  4832   0.116E+00    0.160E+00
DAV:  11    -0.879548266013E+03    0.31815E+00   -0.54709E-01  4832   0.754E-01    0.688E-01
DAV:  12    -0.879555168592E+03   -0.69026E-02   -0.15947E-01  4728   0.348E-01    0.465E-01
DAV:  13    -0.879545148328E+03    0.10020E-01   -0.61873E-02  4832   0.264E-01    0.319E-01
DAV:  14    -0.879538467518E+03    0.66808E-02   -0.17039E-02  4768   0.142E-01    0.174E-01
DAV:  15    -0.879536999371E+03    0.14681E-02   -0.63850E-03  4608   0.773E-02    0.870E-02
DAV:  16    -0.879537727546E+03   -0.72818E-03   -0.19044E-03  5080   0.535E-02    0.834E-02
DAV:  17    -0.879536749843E+03    0.97770E-03   -0.12080E-03  5232   0.408E-02    0.299E-02
DAV:  18    -0.879536742986E+03    0.68569E-05   -0.43241E-04  4624   0.172E-02    0.161E-02
DAV:  19    -0.879536740563E+03    0.24228E-05   -0.83699E-05  4784   0.950E-03
   1 F= -.87953674E+03 E0= -.87947751E+03  d E =-.118461E+00
