Li                                      
           1
    22.732500   -0.000000    0.000000
    -0.000000   22.732500    0.000000
     0.000000    0.000000   22.732500
   Li
   500
Direct configuration=     1
   0.98645142  0.00009960  0.01585335
   0.01412715  0.10140532  0.12407191
   0.00671278  0.21729356  0.19409708
   0.01498993  0.29543101  0.30353466
   0.00358475  0.39947506  0.40530816
   0.01718302  0.51635967  0.49003725
   0.00642945  0.61979310  0.58985326
   0.02864594  0.70551752  0.70349243
   0.99634289  0.79997439  0.82036196
   0.01185388  0.94050871  0.92687473
   0.11673360  0.98011988  0.11002646
   0.08246356  0.07569578  0.23199477
   0.09822389  0.19035932  0.30481073
   0.10814804  0.32273899  0.42614372
   0.11075476  0.39314650  0.49937895
   0.10408494  0.49174417  0.61066635
   0.10822047  0.59642234  0.72027909
   0.10287406  0.69892217  0.81037438
   0.11512487  0.79971489  0.88776433
   0.15043989  0.91187715  0.99255301
   0.15655252  0.97471621  0.21881742
   0.19004350  0.06885511  0.31740573
   0.16788704  0.19859477  0.40458472
   0.23480451  0.31119182  0.48459499
   0.20700176  0.38848925  0.58560074
   0.20015786  0.47232453  0.69480301
   0.19111496  0.59630972  0.78936287
   0.22911286  0.69046249  0.89252011
   0.23616561  0.80265852  0.98667251
   0.23173813  0.87510766  0.11926402
   0.28961026  0.96558540  0.29731589
   0.30352314  0.06003408  0.36908407
   0.28777669  0.18169928  0.47584774
   0.32145904  0.26015137  0.57805990
   0.26842600  0.37537866  0.70711635
   0.28426710  0.46770139  0.79513334
   0.27616984  0.55551199  0.88217328
   0.31183660  0.69669751  0.01304447
   0.32067716  0.81917111  0.11547407
   0.31822249  0.89112332  0.20763441
   0.42770460  0.99001778  0.39178537
   0.41075466  0.09175852  0.47135812
   0.40795711  0.16501420  0.56712562
   0.41135082  0.29652163  0.68409483
   0.42203970  0.37560559  0.80381078
   0.39295777  0.48377982  0.88627497
   0.39087891  0.60924443  0.00436499
   0.38136188  0.70426837  0.08381079
   0.37540946  0.79266968  0.20487517
   0.38246862  0.88583600  0.29272884
   0.51255554  0.99621191  0.48338307
   0.52939938  0.10889787  0.59902590
   0.47667354  0.17234247  0.68836425
   0.50582686  0.26146668  0.81891298
   0.53929743  0.38727476  0.86919079
   0.49200579  0.46770072  0.98112195
   0.47227267  0.57971757  0.10639415
   0.47105399  0.69325655  0.18706992
   0.47810355  0.80582807  0.29699325
   0.51768783  0.89373508  0.38680012
   0.59833641  0.99584357  0.58616293
   0.59392159  0.09436016  0.68042327
   0.58584059  0.19448756  0.80785930
   0.61286418  0.29622430  0.90521382
   0.61753736  0.39777978  0.02473225
   0.59302974  0.50503351  0.09741996
   0.59758008  0.58949852  0.21750968
   0.55626473  0.68062167  0.27997301
   0.59699202  0.80019206  0.38696550
   0.60577904  0.89761191  0.51439680
   0.71379833  0.02655309  0.69442839
   0.70804760  0.11943104  0.76784452
   0.68357459  0.22230332  0.86808983
   0.68663459  0.32336480  0.97678617
   0.69330769  0.40278759  0.11005983
   0.68678047  0.49158460  0.20818514
   0.67354610  0.61480844  0.32374645
   0.68159020  0.68920508  0.39667470
   0.70086530  0.79714693  0.49510474
   0.70755269  0.88486750  0.60199337
   0.80432637  0.98283478  0.78458874
   0.80197769  0.09336246  0.87559364
   0.79080214  0.19883047  0.99450956
   0.80457561  0.30945665  0.08013892
   0.78242208  0.40058466  0.18405992
   0.81016536  0.50742295  0.30579695
   0.77141145  0.59454462  0.38953105
   0.80804399  0.71185223  0.50729805
   0.78399311  0.81989351  0.61355188
   0.82485637  0.90298861  0.69657705
   0.89338910  0.99945329  0.90236812
   0.91390509  0.09755297  0.99705832
   0.89349791  0.19430922  0.10893655
   0.88761594  0.32226419  0.19541214
   0.88990747  0.39764773  0.31724580
   0.90766974  0.53524040  0.40929057
   0.91190951  0.62232167  0.51916338
   0.91566188  0.71469803  0.58648948
   0.92985010  0.80353212  0.70204249
   0.91722006  0.91938039  0.78775755
   0.10828530  0.08270709  0.00513237
   0.11083517  0.20110509  0.12865688
   0.12647218  0.28700114  0.22374747
   0.13580401  0.40908985  0.29049700
   0.08624790  0.50791358  0.40165808
   0.12627090  0.61168998  0.52081649
   0.10666295  0.70441017  0.60726744
   0.08952403  0.82544233  0.71483214
   0.08034350  0.93497526  0.80914139
   0.08561030  0.00926688  0.89678923
   0.19336345  0.10133564  0.11919588
   0.21163598  0.18326360  0.21749076
   0.22014191  0.30363544  0.32223487
   0.17620627  0.41714848  0.41488034
   0.18486275  0.51196150  0.48341319
   0.21307364  0.60959553  0.60751709
   0.19594897  0.72067652  0.70987606
   0.22506135  0.79483736  0.79555510
   0.20826642  0.90057429  0.88056337
   0.21872571  0.00429654  0.99439121
   0.30568850  0.08537901  0.21463582
   0.29768515  0.18314204  0.32002754
   0.32449051  0.31472402  0.41522482
   0.32771570  0.42152245  0.48381048
   0.29647061  0.51213119  0.59461689
   0.32594904  0.60228766  0.71685096
   0.31193201  0.68653133  0.79446377
   0.34804420  0.78807771  0.90996684
   0.31360102  0.88763613  0.01139328
   0.30489581  0.98567152  0.11648336
   0.41328733  0.07005621  0.27542303
   0.38421386  0.19533485  0.38963770
   0.41100275  0.28643587  0.49247398
   0.36437584  0.38517393  0.59738099
   0.41483113  0.51146042  0.71579328
   0.40845957  0.59685125  0.80845545
   0.38425562  0.67264610  0.90077294
   0.39204086  0.82625801  0.00914902
   0.38850957  0.91188673  0.09730566
   0.39170555  0.96481949  0.19964338
   0.54211882  0.09459557  0.36299459
   0.51290483  0.20086667  0.47923572
   0.51006840  0.27635109  0.60475288
   0.51207320  0.37965580  0.69326950
   0.52051111  0.49767199  0.78049150
   0.49007047  0.58259187  0.90224560
   0.47906000  0.69253589  0.02013813
   0.47635152  0.79389590  0.08677389
   0.50097878  0.89074807  0.20500486
   0.52797361  0.97555197  0.27722325
   0.58829704  0.11453689  0.49383212
   0.62069901  0.18857379  0.58262365
   0.59367096  0.29712510  0.70266285
   0.61238708  0.39785045  0.78615374
   0.58929158  0.48441622  0.88584462
   0.58202157  0.56468636  0.98490569
   0.58609864  0.67076593  0.09452858
   0.58012827  0.77143114  0.21036370
   0.61925110  0.89252594  0.28775719
   0.60717072  0.99235086  0.37644218
   0.70881303  0.08276597  0.59403644
   0.69544711  0.21227774  0.71285993
   0.69338236  0.32144085  0.79357928
   0.69736025  0.43296928  0.90149110
   0.70694805  0.50243344  0.00334944
   0.68819901  0.60427766  0.10860190
   0.70746670  0.70555751  0.22152834
   0.70718044  0.81092769  0.31028850
   0.71062942  0.90071329  0.38241169
   0.68492351  0.00257224  0.50073528
   0.80807843  0.11432881  0.71692613
   0.80572386  0.19126778  0.80082927
   0.80441691  0.32904290  0.89807219
   0.80568850  0.39117163  0.00057026
   0.79275211  0.50902071  0.09621447
   0.80228089  0.59436206  0.20503572
   0.80186812  0.67946626  0.30856093
   0.80356665  0.79172244  0.40464485
   0.80272100  0.87619366  0.49724967
   0.81138173  0.98170706  0.59235238
   0.90961194  0.10948661  0.77899969
   0.89518036  0.17632265  0.89256628
   0.91326543  0.28800202  0.99332380
   0.92015928  0.39980986  0.09188760
   0.88478638  0.48782929  0.19529619
   0.91594928  0.61064341  0.31708769
   0.90191488  0.70422760  0.39917039
   0.92399307  0.77515146  0.48465106
   0.90347390  0.88491094  0.58294453
   0.89082622  0.99870988  0.67894430
   0.97922173  0.08357965  0.90965736
   0.00924035  0.18970343  0.02291269
   0.00878674  0.28004926  0.12865958
   0.99822243  0.39896731  0.23064368
   0.97662905  0.50107598  0.30232361
   0.00988620  0.62288834  0.40714935
   0.03106304  0.71031067  0.50400873
   0.02764674  0.79300587  0.59128171
   0.99404995  0.91416103  0.67696179
   0.00150659  0.99771301  0.77654273
   0.19519704  0.20731420  0.01741676
   0.18769078  0.32264544  0.10805022
   0.19946371  0.39049986  0.20213004
   0.17187010  0.53929653  0.29114203
   0.19820291  0.61239021  0.39966833
   0.21774061  0.70354377  0.50396453
   0.19717384  0.80859871  0.62987330
   0.18200363  0.91112295  0.72460862
   0.19316046  0.00762977  0.76779310
   0.19620452  0.07789839  0.90416282
   0.26859044  0.20126280  0.12353572
   0.27525845  0.30510067  0.20350857
   0.28019570  0.40986945  0.32910270
   0.27010141  0.50826368  0.39895995
   0.27748397  0.61426185  0.50561646
   0.29450668  0.73371217  0.59781839
   0.31650298  0.80982218  0.69746047
   0.29299854  0.90944575  0.78933278
   0.30117274  0.98648464  0.91055163
   0.28014629  0.11995256  0.02193721
   0.36808906  0.19965031  0.19680169
   0.41620154  0.30727654  0.27965349
   0.39386586  0.41794609  0.38893065
   0.38710249  0.51180868  0.51977280
   0.39461026  0.62697890  0.61046064
   0.40394808  0.71922742  0.70834943
   0.41895326  0.81359490  0.80143955
   0.39459738  0.90831427  0.88656517
   0.40977275  0.01459796  0.00615846
   0.40136138  0.09818058  0.10247713
   0.48642620  0.20352270  0.29284087
   0.48567835  0.30445182  0.41671949
   0.48392448  0.39756032  0.52319737
   0.51084007  0.49667829  0.63363220
   0.48032765  0.60549886  0.68937785
   0.49374348  0.69829641  0.81700591
   0.47844593  0.82079523  0.92113290
   0.49740741  0.92368084  0.98761975
   0.51839859  0.01418224  0.11971115
   0.50243510  0.07419326  0.21499688
   0.59184542  0.22461045  0.34810024
   0.59863368  0.28652069  0.52308413
   0.59876314  0.42152430  0.60711297
   0.60415024  0.53297061  0.71051140
   0.55957073  0.63197093  0.79024433
   0.59448963  0.69151903  0.90848931
   0.59798506  0.79187159  0.99032736
   0.58735792  0.90043411  0.12307309
   0.67237510  0.00689638  0.18010923
   0.59141774  0.09399652  0.27851952
   0.69882638  0.18950825  0.47876908
   0.70292371  0.33533882  0.61953258
   0.67436184  0.43495053  0.70950134
   0.68384901  0.54349449  0.76322839
   0.68197613  0.60813628  0.90372058
   0.69829883  0.69249665  0.98387272
   0.69012874  0.79352321  0.11249941
   0.72518251  0.86060098  0.21466524
   0.71162281  0.99144242  0.28076018
   0.69098715  0.10116675  0.36611455
   0.79049818  0.20862744  0.59668258
   0.80515572  0.29690535  0.70594890
   0.81718117  0.42061319  0.77741757
   0.80719185  0.51272150  0.87964548
   0.80330897  0.60162438  0.99646571
   0.77541098  0.70187848  0.12468967
   0.80482359  0.80101419  0.22338514
   0.81724628  0.88688001  0.31488737
   0.79792867  0.99290957  0.42366911
   0.78612697  0.10097349  0.50198633
   0.89881679  0.20623953  0.71135036
   0.90462964  0.28536693  0.79551003
   0.90086569  0.41561758  0.88413677
   0.89040629  0.49700218  0.99752139
   0.88676845  0.59311594  0.09123009
   0.88338267  0.68724134  0.19174762
   0.92542657  0.79480748  0.30569754
   0.92304721  0.88282879  0.42547124
   0.88980297  0.95280841  0.51339809
   0.89769847  0.11640294  0.59806740
   0.00101177  0.18992812  0.80792006
   0.01444685  0.28917247  0.91961753
   0.01588880  0.39545206  0.00381934
   0.99588693  0.51998766  0.09991363
   0.01246184  0.60983968  0.17793103
   0.99460076  0.72221932  0.31371723
   0.00608371  0.76781752  0.37074092
   0.03991417  0.87728688  0.47552203
   0.99394382  0.00662687  0.57874550
   0.97086817  0.09352073  0.69085296
   0.11674544  0.19944590  0.90885823
   0.09918883  0.27218955  0.99768595
   0.11852943  0.39231542  0.12632886
   0.11797703  0.49806056  0.20267785
   0.08978494  0.60759106  0.29143526
   0.14174925  0.73364985  0.41714275
   0.11238521  0.80862574  0.51511838
   0.10838538  0.89163542  0.57660135
   0.08336866  0.01345382  0.68752625
   0.09975813  0.09822515  0.78146742
   0.28762895  0.29570616  0.98706284
   0.28486448  0.41276985  0.10771986
   0.27928133  0.50781989  0.21236981
   0.30005455  0.60837285  0.29712318
   0.29226064  0.69156781  0.38690719
   0.30162260  0.79995757  0.50221505
   0.32161766  0.89622390  0.59175676
   0.29909272  0.01184519  0.69347610
   0.29947762  0.11571084  0.79531911
   0.28722218  0.19067900  0.89412067
   0.40189269  0.27697114  0.11022064
   0.37257676  0.42258831  0.17667760
   0.41222308  0.51262380  0.31020186
   0.38706519  0.59261162  0.38567859
   0.39925538  0.66922414  0.48339304
   0.41936806  0.78848204  0.58779873
   0.39980451  0.89840794  0.68839230
   0.39628112  0.01590234  0.81123886
   0.37608836  0.10192280  0.90570056
   0.36895374  0.21516811  0.01535694
   0.50152952  0.30715921  0.17883305
   0.46301122  0.40901151  0.28563149
   0.48794737  0.45895820  0.40911349
   0.49812785  0.60276863  0.50165994
   0.50260204  0.71181138  0.62443536
   0.48831216  0.82611099  0.70510685
   0.50604221  0.91568526  0.81646441
   0.52546028  0.01317593  0.88869295
   0.49111801  0.11173803  0.01980058
   0.50055949  0.18184046  0.11154830
   0.58648430  0.31456489  0.27177398
   0.60028422  0.40812876  0.42651212
   0.58561214  0.53743699  0.52368191
   0.57400619  0.62082974  0.60545303
   0.58756572  0.71575424  0.72039247
   0.58268716  0.79043747  0.83179257
   0.60626542  0.93377684  0.90066097
   0.62453305  0.02733997  0.01162908
   0.61285969  0.10942388  0.09920020
   0.61563446  0.19820364  0.20701945
   0.68894395  0.30527997  0.41972851
   0.70421589  0.39777257  0.50565878
   0.69436287  0.52392078  0.62018657
   0.71127530  0.63665095  0.68688715
   0.72587630  0.70850060  0.80866282
   0.70602207  0.80669315  0.88152114
   0.72898541  0.90594554  0.02556027
   0.72131400  0.01005802  0.09315329
   0.70688782  0.12031542  0.21098189
   0.70765700  0.21829915  0.26744417
   0.78495529  0.31781584  0.51099842
   0.81632209  0.42853460  0.61374451
   0.78992727  0.51120250  0.70115386
   0.82057333  0.61132757  0.78300450
   0.79800194  0.73285295  0.90099464
   0.80805575  0.78057430  0.00627651
   0.81725666  0.87608197  0.11342220
   0.79343021  0.99176041  0.21818349
   0.82662818  0.10454481  0.31030507
   0.79643394  0.19345839  0.41631369
   0.90214302  0.29894532  0.59222346
   0.90013565  0.39298062  0.67148137
   0.90985176  0.50587691  0.78789018
   0.88790697  0.61098663  0.89661870
   0.91177537  0.72421836  0.03286546
   0.88993709  0.80990675  0.11898825
   0.90194629  0.90043858  0.21297529
   0.89614644  0.00003427  0.30294649
   0.89140961  0.09580976  0.44903805
   0.90472650  0.22374685  0.52191383
   0.00978107  0.29014966  0.67988212
   0.00807499  0.39512825  0.80545766
   0.00662861  0.48762869  0.92618701
   0.99259470  0.60537138  0.97975067
   0.03634095  0.72177155  0.10747083
   0.99679105  0.79834875  0.21213282
   0.00550465  0.88976800  0.30400813
   0.97969271  0.98407729  0.39832701
   0.00709401  0.09346845  0.51077446
   0.00945437  0.20236014  0.58767688
   0.09655278  0.27842643  0.80780831
   0.09318432  0.37932103  0.89654591
   0.11123268  0.51869907  0.02194005
   0.10124458  0.59361818  0.09295298
   0.09629106  0.70106859  0.19530652
   0.09663488  0.79061918  0.30298186
   0.09143258  0.88953240  0.40880501
   0.10756852  0.96100812  0.48025386
   0.10225535  0.10531658  0.59360424
   0.08059544  0.17048818  0.70070338
   0.16899029  0.29772310  0.89031432
   0.18014767  0.40440869  0.99059856
   0.20573894  0.45386141  0.11407531
   0.19761521  0.60504944  0.19011846
   0.17921011  0.66223417  0.31325520
   0.20068478  0.79219512  0.40643279
   0.20817750  0.89227241  0.49151389
   0.22677143  0.98748774  0.59508387
   0.20582111  0.09716740  0.69064492
   0.20203087  0.17922410  0.78797491
   0.39698440  0.37125623  0.99039910
   0.40251888  0.49994382  0.10172789
   0.38653273  0.61913076  0.17710191
   0.40300417  0.68908855  0.29028502
   0.39312070  0.79348351  0.40089675
   0.39672438  0.89225652  0.45404422
   0.40602589  0.01779167  0.60225388
   0.39145119  0.09244660  0.68930793
   0.40103050  0.22176027  0.79620908
   0.41071446  0.28517230  0.90781834
   0.49652108  0.40457778  0.09853135
   0.50103622  0.49590994  0.21852276
   0.48749813  0.57334592  0.27953814
   0.49258691  0.69234940  0.40743823
   0.50302955  0.78520127  0.50965660
   0.49715782  0.92722577  0.60855173
   0.49525047  0.99393986  0.69425843
   0.49685212  0.10403714  0.78660494
   0.49647834  0.16773437  0.90921578
   0.49754811  0.27941268  0.00407336
   0.59555245  0.42074028  0.19264850
   0.57691267  0.48831966  0.28226209
   0.57246733  0.60580367  0.41283021
   0.59512604  0.71071148  0.51387973
   0.57552522  0.81978136  0.64009716
   0.59236207  0.91159437  0.71127817
   0.61652361  0.03339309  0.80786384
   0.60267564  0.10898679  0.89341816
   0.61300579  0.20083553  0.98330444
   0.60139999  0.27073198  0.07534685
   0.70670984  0.40199298  0.28947869
   0.68892506  0.51388905  0.41713943
   0.68939609  0.64189010  0.50700784
   0.69056981  0.72702170  0.63082547
   0.67923958  0.82403593  0.72800726
   0.68715971  0.90322210  0.77532991
   0.71525231  0.00780732  0.88926196
   0.72968700  0.09469645  0.99361645
   0.72568249  0.20949451  0.09354020
   0.67134783  0.30387255  0.17981930
   0.78449858  0.41464382  0.42146706
   0.78890419  0.52468946  0.50464314
   0.80564900  0.64474405  0.60974065
   0.82138453  0.74575711  0.70164252
   0.82893741  0.81223092  0.78102694
   0.81029023  0.90612725  0.87862218
   0.81343049  0.99509044  0.00347068
   0.81172537  0.10995750  0.09865951
   0.79103867  0.21104675  0.19377973
   0.77555257  0.29337374  0.29914752
   0.90372316  0.40357485  0.48819663
   0.89213950  0.51678005  0.58038520
   0.90836576  0.63461888  0.68158509
   0.93073445  0.71480346  0.81017328
   0.90832554  0.82191274  0.91232946
   0.87659162  0.90245671  0.02539219
   0.91007750  0.99667185  0.10793987
   0.87729140  0.09901812  0.21205105
   0.89895817  0.22952376  0.31380859
   0.89973794  0.30051672  0.41110305
   0.99898327  0.40756771  0.57155126
   0.98340766  0.51269063  0.67033002
   0.00739979  0.62291631  0.80930172
   0.00352101  0.73002727  0.90600709
   0.00337949  0.81940761  0.00354736
   0.99446409  0.89775243  0.10467226
   0.98651488  0.97378648  0.21695130
   0.97519732  0.09784677  0.30980450
   0.01072751  0.20755700  0.40967947
   0.99774776  0.29201239  0.48449174
   0.10315378  0.36371510  0.67065083
   0.06080082  0.48394278  0.78408653
   0.09615725  0.59668149  0.87631487
   0.09415760  0.70280468  0.99549115
   0.09662963  0.81086016  0.08424980
   0.08373333  0.88727889  0.19270000
   0.07792455  0.98335440  0.30710886
   0.10336156  0.07919031  0.40053856
   0.10402752  0.18825455  0.49497300
   0.09478453  0.29098101  0.58160526
   0.17012098  0.38648869  0.80195170
   0.18393457  0.47816593  0.90362090
   0.19831090  0.57377592  0.99826259
   0.20106910  0.69546093  0.08420451
   0.19613176  0.80804520  0.20447177
   0.20084221  0.87433435  0.27710208
   0.19227704  0.97501485  0.39440989
   0.19375417  0.09261193  0.49278624
   0.20148341  0.19060497  0.59911017
   0.19556990  0.26648489  0.69679567
   0.30005619  0.37951925  0.87427340
   0.29968089  0.48062815  0.96228023
   0.28518420  0.57770517  0.09994965
   0.29030751  0.69977034  0.18978200
   0.27041442  0.77584438  0.31902560
   0.31777538  0.88659987  0.42120013
   0.30167918  0.98322384  0.50949644
   0.27971297  0.10953605  0.58166660
   0.31158657  0.20292374  0.69653444
   0.28673473  0.28019081  0.80717298
