 500 500   0   0
  0.2153794E+02  0.2208300E-08  0.2208300E-08  0.2208300E-08  0.5000000E-15
  1.000000000000000E-004
  CAR 
 Li                                      
      3.24608753     -3.50962523  301      0.24447110      1.00000000
     -3.510  0.0000E+00  0.0000E+00
     -3.487  0.0000E+00  0.0000E+00
     -3.465  0.0000E+00  0.0000E+00
     -3.442  0.0000E+00  0.0000E+00
     -3.420  0.0000E+00  0.0000E+00
     -3.397  0.0000E+00  0.0000E+00
     -3.375  0.2465E-13  0.5551E-15
     -3.352  0.8197E-10  0.1846E-11
     -3.329  0.9656E-07  0.2176E-08
     -3.307  0.3785E-04  0.8544E-06
     -3.284  0.4978E-02  0.1129E-03
     -3.262  0.2223E+00  0.5120E-02
     -3.239  0.3425E+01  0.8224E-01
     -3.217  0.1850E+02  0.4989E+00
     -3.194  0.3557E+02  0.1300E+01
     -3.172  0.2453E+02  0.1852E+01
     -3.149  0.6473E+01  0.1998E+01
     -3.127  0.7599E+01  0.2169E+01
     -3.104  0.4251E+02  0.3126E+01
     -3.082  0.9752E+02  0.5322E+01
     -3.059  0.8608E+02  0.7261E+01
     -3.037  0.2923E+02  0.7919E+01
     -3.014  0.8117E+01  0.8102E+01
     -2.992  0.3220E+02  0.8827E+01
     -2.969  0.8831E+02  0.1082E+02
     -2.947  0.9492E+02  0.1295E+02
     -2.924  0.3999E+02  0.1385E+02
     -2.902  0.1127E+02  0.1411E+02
     -2.879  0.3594E+02  0.1492E+02
     -2.857  0.1049E+03  0.1728E+02
     -2.834  0.1282E+03  0.2017E+02
     -2.812  0.6621E+02  0.2166E+02
     -2.789  0.1977E+02  0.2210E+02
     -2.766  0.4210E+02  0.2305E+02
     -2.744  0.1290E+03  0.2596E+02
     -2.721  0.1867E+03  0.3016E+02
     -2.699  0.1266E+03  0.3301E+02
     -2.676  0.3939E+02  0.3390E+02
     -2.654  0.1463E+02  0.3423E+02
     -2.631  0.5183E+02  0.3539E+02
     -2.609  0.1031E+03  0.3771E+02
     -2.586  0.7752E+02  0.3946E+02
     -2.564  0.2441E+02  0.4001E+02
     -2.541  0.2665E+02  0.4061E+02
     -2.519  0.9716E+02  0.4280E+02
     -2.496  0.1771E+03  0.4679E+02
     -2.474  0.1544E+03  0.5026E+02
     -2.451  0.6688E+02  0.5177E+02
     -2.429  0.3895E+02  0.5265E+02
     -2.406  0.1127E+03  0.5518E+02
     -2.384  0.2225E+03  0.6020E+02
     -2.361  0.2398E+03  0.6560E+02
     -2.339  0.1447E+03  0.6885E+02
     -2.316  0.4693E+02  0.6991E+02
     -2.294  0.2685E+02  0.7051E+02
     -2.271  0.7123E+02  0.7212E+02
     -2.249  0.1000E+03  0.7437E+02
     -2.226  0.5866E+02  0.7569E+02
     -2.204  0.2354E+02  0.7622E+02
     -2.181  0.5822E+02  0.7753E+02
     -2.158  0.1547E+03  0.8102E+02
     -2.136  0.2102E+03  0.8575E+02
     -2.113  0.1401E+03  0.8890E+02
     -2.091  0.4985E+02  0.9003E+02
     -2.068  0.5576E+02  0.9128E+02
     -2.046  0.1620E+03  0.9493E+02
     -2.023  0.2539E+03  0.1006E+03
     -2.001  0.2116E+03  0.1054E+03
     -1.978  0.9436E+02  0.1075E+03
     -1.956  0.3237E+02  0.1083E+03
     -1.933  0.7124E+02  0.1099E+03
     -1.911  0.1637E+03  0.1136E+03
     -1.888  0.1772E+03  0.1175E+03
     -1.866  0.9309E+02  0.1196E+03
     -1.843  0.5655E+02  0.1209E+03
     -1.821  0.1278E+03  0.1238E+03
     -1.798  0.2191E+03  0.1287E+03
     -1.776  0.2270E+03  0.1338E+03
     -1.753  0.1386E+03  0.1370E+03
     -1.731  0.5672E+02  0.1382E+03
     -1.708  0.8724E+02  0.1402E+03
     -1.686  0.2049E+03  0.1448E+03
     -1.663  0.2596E+03  0.1507E+03
     -1.641  0.1719E+03  0.1545E+03
     -1.618  0.6130E+02  0.1559E+03
     -1.596  0.4750E+02  0.1570E+03
     -1.573  0.1270E+03  0.1598E+03
     -1.550  0.1844E+03  0.1640E+03
     -1.528  0.1302E+03  0.1669E+03
     -1.505  0.5552E+02  0.1682E+03
     -1.483  0.6437E+02  0.1696E+03
     -1.460  0.1289E+03  0.1725E+03
     -1.438  0.1606E+03  0.1761E+03
     -1.415  0.1203E+03  0.1789E+03
     -1.393  0.6538E+02  0.1803E+03
     -1.370  0.1045E+03  0.1827E+03
     -1.348  0.2325E+03  0.1879E+03
     -1.325  0.3388E+03  0.1955E+03
     -1.303  0.3386E+03  0.2032E+03
     -1.280  0.2190E+03  0.2081E+03
     -1.258  0.1045E+03  0.2105E+03
     -1.235  0.1287E+03  0.2134E+03
     -1.213  0.2192E+03  0.2183E+03
     -1.190  0.2324E+03  0.2235E+03
     -1.168  0.1496E+03  0.2269E+03
     -1.145  0.6943E+02  0.2285E+03
     -1.123  0.7833E+02  0.2302E+03
     -1.100  0.1514E+03  0.2336E+03
     -1.078  0.1988E+03  0.2381E+03
     -1.055  0.1489E+03  0.2415E+03
     -1.033  0.1270E+03  0.2443E+03
     -1.010  0.2009E+03  0.2488E+03
     -0.987  0.2573E+03  0.2546E+03
     -0.965  0.2545E+03  0.2604E+03
     -0.942  0.1756E+03  0.2643E+03
     -0.920  0.6586E+02  0.2658E+03
     -0.897  0.3001E+02  0.2665E+03
     -0.875  0.7146E+02  0.2681E+03
     -0.852  0.1014E+03  0.2704E+03
     -0.830  0.6657E+02  0.2719E+03
     -0.807  0.6722E+02  0.2734E+03
     -0.785  0.1625E+03  0.2770E+03
     -0.762  0.2807E+03  0.2834E+03
     -0.740  0.3464E+03  0.2912E+03
     -0.717  0.3255E+03  0.2985E+03
     -0.695  0.2429E+03  0.3040E+03
     -0.672  0.1756E+03  0.3079E+03
     -0.650  0.1927E+03  0.3123E+03
     -0.627  0.2909E+03  0.3188E+03
     -0.605  0.3268E+03  0.3262E+03
     -0.582  0.2440E+03  0.3317E+03
     -0.560  0.1551E+03  0.3352E+03
     -0.537  0.1040E+03  0.3375E+03
     -0.515  0.9766E+02  0.3397E+03
     -0.492  0.1263E+03  0.3425E+03
     -0.470  0.1438E+03  0.3458E+03
     -0.447  0.1857E+03  0.3500E+03
     -0.425  0.2067E+03  0.3546E+03
     -0.402  0.2048E+03  0.3592E+03
     -0.379  0.1974E+03  0.3637E+03
     -0.357  0.1468E+03  0.3670E+03
     -0.334  0.1253E+03  0.3698E+03
     -0.312  0.2114E+03  0.3746E+03
     -0.289  0.3143E+03  0.3816E+03
     -0.267  0.3333E+03  0.3891E+03
     -0.244  0.2598E+03  0.3950E+03
     -0.222  0.1741E+03  0.3989E+03
     -0.199  0.1906E+03  0.4032E+03
     -0.177  0.2353E+03  0.4085E+03
     -0.154  0.1976E+03  0.4130E+03
     -0.132  0.1144E+03  0.4155E+03
     -0.109  0.8952E+02  0.4175E+03
     -0.087  0.1596E+03  0.4211E+03
     -0.064  0.2490E+03  0.4267E+03
     -0.042  0.3060E+03  0.4336E+03
     -0.019  0.3000E+03  0.4404E+03
      0.003  0.2271E+03  0.4455E+03
      0.026  0.1897E+03  0.4498E+03
      0.048  0.2269E+03  0.4549E+03
      0.071  0.2375E+03  0.4602E+03
      0.093  0.1808E+03  0.4643E+03
      0.116  0.1353E+03  0.4674E+03
      0.138  0.1927E+03  0.4717E+03
      0.161  0.2756E+03  0.4779E+03
      0.183  0.2984E+03  0.4846E+03
      0.206  0.2774E+03  0.4909E+03
      0.229  0.2488E+03  0.4965E+03
      0.251  0.2170E+03  0.5014E+03
      0.274  0.2046E+03  0.5060E+03
      0.296  0.2385E+03  0.5113E+03
      0.319  0.2547E+03  0.5171E+03
      0.341  0.2291E+03  0.5222E+03
      0.364  0.2384E+03  0.5276E+03
      0.386  0.3000E+03  0.5344E+03
      0.409  0.3574E+03  0.5424E+03
      0.431  0.3822E+03  0.5510E+03
      0.454  0.3843E+03  0.5597E+03
      0.476  0.3585E+03  0.5677E+03
      0.499  0.3211E+03  0.5750E+03
      0.521  0.2917E+03  0.5815E+03
      0.544  0.2775E+03  0.5878E+03
      0.566  0.2636E+03  0.5937E+03
      0.589  0.2555E+03  0.5995E+03
      0.611  0.2626E+03  0.6054E+03
      0.634  0.2381E+03  0.6107E+03
      0.656  0.1595E+03  0.6143E+03
      0.679  0.9019E+02  0.6164E+03
      0.701  0.1010E+03  0.6186E+03
      0.724  0.1463E+03  0.6219E+03
      0.746  0.1715E+03  0.6258E+03
      0.769  0.1774E+03  0.6298E+03
      0.792  0.1647E+03  0.6335E+03
      0.814  0.1682E+03  0.6373E+03
      0.837  0.2130E+03  0.6421E+03
      0.859  0.2509E+03  0.6477E+03
      0.882  0.2530E+03  0.6534E+03
      0.904  0.2408E+03  0.6589E+03
      0.927  0.2452E+03  0.6644E+03
      0.949  0.2741E+03  0.6706E+03
      0.972  0.3075E+03  0.6775E+03
      0.994  0.3152E+03  0.6846E+03
      1.017  0.3067E+03  0.6915E+03
      1.039  0.2896E+03  0.6980E+03
      1.062  0.2658E+03  0.7040E+03
      1.084  0.2363E+03  0.7093E+03
      1.107  0.2036E+03  0.7139E+03
      1.129  0.1826E+03  0.7180E+03
      1.152  0.1808E+03  0.7221E+03
      1.174  0.2018E+03  0.7266E+03
      1.197  0.2227E+03  0.7316E+03
      1.219  0.2307E+03  0.7368E+03
      1.242  0.2360E+03  0.7421E+03
      1.264  0.2390E+03  0.7475E+03
      1.287  0.2285E+03  0.7527E+03
      1.309  0.2045E+03  0.7573E+03
      1.332  0.1902E+03  0.7616E+03
      1.354  0.1896E+03  0.7658E+03
      1.377  0.1689E+03  0.7696E+03
      1.400  0.1245E+03  0.7724E+03
      1.422  0.1298E+03  0.7754E+03
      1.445  0.1665E+03  0.7791E+03
      1.467  0.1712E+03  0.7830E+03
      1.490  0.1490E+03  0.7863E+03
      1.512  0.1219E+03  0.7891E+03
      1.535  0.1050E+03  0.7914E+03
      1.557  0.1177E+03  0.7941E+03
      1.580  0.1497E+03  0.7975E+03
      1.602  0.1895E+03  0.8017E+03
      1.625  0.2303E+03  0.8069E+03
      1.647  0.2538E+03  0.8126E+03
      1.670  0.2619E+03  0.8185E+03
      1.692  0.2715E+03  0.8246E+03
      1.715  0.2774E+03  0.8309E+03
      1.737  0.2788E+03  0.8372E+03
      1.760  0.2773E+03  0.8434E+03
      1.782  0.2631E+03  0.8493E+03
      1.805  0.2410E+03  0.8548E+03
      1.827  0.2226E+03  0.8598E+03
      1.850  0.2124E+03  0.8646E+03
      1.872  0.2081E+03  0.8692E+03
      1.895  0.1971E+03  0.8737E+03
      1.917  0.1592E+03  0.8773E+03
      1.940  0.9614E+02  0.8794E+03
      1.963  0.6435E+02  0.8809E+03
      1.985  0.9661E+02  0.8831E+03
      2.008  0.1436E+03  0.8863E+03
      2.030  0.1671E+03  0.8900E+03
      2.053  0.1682E+03  0.8938E+03
      2.075  0.1580E+03  0.8974E+03
      2.098  0.1594E+03  0.9010E+03
      2.120  0.1753E+03  0.9049E+03
      2.143  0.1883E+03  0.9092E+03
      2.165  0.1998E+03  0.9137E+03
      2.188  0.1855E+03  0.9178E+03
      2.210  0.1380E+03  0.9210E+03
      2.233  0.1107E+03  0.9234E+03
      2.255  0.1265E+03  0.9263E+03
      2.278  0.1507E+03  0.9297E+03
      2.300  0.1433E+03  0.9329E+03
      2.323  0.1217E+03  0.9357E+03
      2.345  0.1229E+03  0.9384E+03
      2.368  0.1269E+03  0.9413E+03
      2.390  0.1134E+03  0.9438E+03
      2.413  0.9740E+02  0.9460E+03
      2.435  0.9886E+02  0.9483E+03
      2.458  0.1145E+03  0.9508E+03
      2.480  0.1289E+03  0.9537E+03
      2.503  0.1462E+03  0.9570E+03
      2.525  0.1552E+03  0.9605E+03
      2.548  0.1575E+03  0.9641E+03
      2.571  0.1613E+03  0.9677E+03
      2.593  0.1675E+03  0.9715E+03
      2.616  0.1756E+03  0.9754E+03
      2.638  0.1812E+03  0.9795E+03
      2.661  0.1689E+03  0.9833E+03
      2.683  0.1233E+03  0.9861E+03
      2.706  0.6209E+02  0.9875E+03
      2.728  0.1927E+02  0.9879E+03
      2.751  0.3703E+01  0.9880E+03
      2.773  0.5258E+01  0.9881E+03
      2.796  0.1778E+02  0.9885E+03
      2.818  0.3784E+02  0.9894E+03
      2.841  0.6481E+02  0.9908E+03
      2.863  0.8789E+02  0.9928E+03
      2.886  0.1070E+03  0.9952E+03
      2.908  0.1219E+03  0.9980E+03
      2.931  0.1039E+03  0.1000E+04
      2.953  0.5603E+02  0.1002E+04
      2.976  0.1646E+02  0.1002E+04
      2.998  0.2218E+01  0.1002E+04
      3.021  0.1196E+00  0.1002E+04
      3.043  0.2380E-02  0.1002E+04
      3.066  0.1666E-04  0.1002E+04
      3.088  0.3997E-07  0.1002E+04
      3.111  0.3229E-10  0.1002E+04
      3.133  0.7395E-14  0.1002E+04
      3.156  0.0000E+00  0.1002E+04
      3.179  0.0000E+00  0.1002E+04
      3.201  0.0000E+00  0.1002E+04
      3.224  0.0000E+00  0.1002E+04
      3.246  0.0000E+00  0.1002E+04
