 running on   64 total cores
 distrk:  each k-point on   32 cores,    2 groups
 distr:  one band on   32 cores,    1 groups
 vasp.6.2.1 16May21 (build Nov 23 2021 15:40:41) complex                        
  
 POSCAR found type information on POSCAR Li
 POSCAR found :  1 types and     500 ions
 scaLAPACK will be used
 -----------------------------------------------------------------------------
|                                                                             |
|           W    W    AA    RRRRR   N    N  II  N    N   GGGG   !!!           |
|           W    W   A  A   R    R  NN   N  II  NN   N  G    G  !!!           |
|           W    W  A    A  R    R  N N  N  II  N N  N  G       !!!           |
|           W WW W  AAAAAA  RRRRR   N  N N  II  N  N N  G  GGG   !            |
|           WW  WW  A    A  R   R   N   NN  II  N   NN  G    G                |
|           W    W  A    A  R    R  N    N  II  N    N   GGGG   !!!           |
|                                                                             |
|     For optimal performance we recommend to set                             |
|       NCORE = 2 up to number-of-cores-per-socket                            |
|     NCORE specifies how many cores store one orbital (NPAR=cpu/NCORE).      |
|     This setting can greatly improve the performance of VASP for DFT.       |
|     The default, NCORE=1 might be grossly inefficient on modern             |
|     multi-core architectures or massively parallel machines. Do your        |
|     own testing! More info at https://www.vasp.at/wiki/index.php/NCORE      |
|     Unfortunately you need to use the default for GW and RPA                |
|     calculations (for HF NCORE is supported but not extensively tested      |
|     yet).                                                                   |
|                                                                             |
 -----------------------------------------------------------------------------

 -----------------------------------------------------------------------------
|                                                                             |
|               ----> ADVICE to this user running VASP <----                  |
|                                                                             |
|     You have a (more or less) 'large supercell' and for larger cells it     |
|     might be more efficient to use real-space projection operators.         |
|     Therefore, try LREAL= Auto in the INCAR file.                           |
|     Mind: If you want to do very accurate calculations, keep the            |
|     reciprocal projection scheme (i.e. LREAL=.FALSE.).                      |
|                                                                             |
 -----------------------------------------------------------------------------

 LDA part: xc-table for Pade appr. of Perdew
 POSCAR found type information on POSCAR Li
 POSCAR found :  1 types and     500 ions
 POSCAR, INCAR and KPOINTS ok, starting setup
 FFT: planning ...
 WAVECAR not read
 entering main loop
       N       E                     dE             d eps       ncg     rms          rms(c)
DAV:   1    -0.319598674722E+03   -0.31960E+03   -0.11949E+05  4008   0.651E+02
DAV:   2    -0.893197547570E+03   -0.57360E+03   -0.52596E+03  4596   0.653E+01
DAV:   3    -0.934231897088E+03   -0.41034E+02   -0.37424E+02  5184   0.138E+01
DAV:   4    -0.935637397320E+03   -0.14055E+01   -0.13841E+01  4624   0.279E+00
DAV:   5    -0.935669350469E+03   -0.31953E-01   -0.31900E-01  4808   0.449E-01    0.745E+00
DAV:   6    -0.942457152380E+03   -0.67878E+01   -0.75121E+00  4768   0.482E+00    0.877E+00
DAV:   7    -0.928230382678E+03    0.14227E+02   -0.84624E+00  4888   0.416E+00    0.337E+00
DAV:   8    -0.927560430910E+03    0.66995E+00   -0.42663E+00  4496   0.163E+00    0.198E+00
DAV:   9    -0.927292381024E+03    0.26805E+00   -0.17211E+00  4368   0.106E+00    0.105E+00
DAV:  10    -0.927321534118E+03   -0.29153E-01   -0.25470E-01  4688   0.514E-01    0.858E-01
DAV:  11    -0.927252037733E+03    0.69496E-01   -0.11659E-01  4544   0.399E-01    0.497E-01
DAV:  12    -0.927240034161E+03    0.12004E-01   -0.32924E-02  4432   0.171E-01    0.223E-01
DAV:  13    -0.927241667752E+03   -0.16336E-02   -0.11757E-02  4632   0.118E-01    0.169E-01
DAV:  14    -0.927239293991E+03    0.23738E-02   -0.53521E-03  4632   0.885E-02    0.992E-02
DAV:  15    -0.927238332495E+03    0.96150E-03   -0.14370E-03  4536   0.447E-02    0.485E-02
DAV:  16    -0.927238191575E+03    0.14092E-03   -0.77451E-04  4304   0.226E-02    0.196E-02
DAV:  17    -0.927238213418E+03   -0.21843E-04   -0.11667E-04  4976   0.135E-02    0.199E-02
DAV:  18    -0.927238154535E+03    0.58883E-04   -0.48223E-05  4648   0.889E-03    0.716E-03
DAV:  19    -0.927238148941E+03    0.55931E-05   -0.21410E-05  2992   0.441E-03
   1 F= -.92723815E+03 E0= -.92719098E+03  d E =-.943281E-01
