Li                                      
           1
    22.083000   -0.000000    0.000000
    -0.000000   22.083000    0.000000
     0.000000    0.000000   22.083000
   Li
   500
Direct configuration=     1
   0.01076770  0.00085900  0.00736156
   0.99502329  0.08468001  0.11307911
   0.98714938  0.19225022  0.19883714
   0.99579577  0.29951063  0.30806002
   0.00124373  0.40842051  0.40091358
   0.00007277  0.51719287  0.49666499
   0.00565408  0.61260185  0.58299330
   0.01300794  0.68415807  0.71046494
   0.00312213  0.77611651  0.79803965
   0.01192667  0.89023060  0.88722289
   0.10273877  0.99795305  0.10380490
   0.08931109  0.10444077  0.18986161
   0.09659693  0.21289002  0.30685156
   0.09294069  0.30621137  0.41327157
   0.08127340  0.40434413  0.50489386
   0.10362763  0.50860420  0.58559170
   0.10432397  0.59557904  0.70466864
   0.11213118  0.71174935  0.81325983
   0.10481587  0.80633229  0.89973910
   0.10131929  0.89123192  0.01027499
   0.19634317  0.00244398  0.20986683
   0.18932303  0.10772008  0.29967186
   0.19631502  0.21138382  0.40725853
   0.19218307  0.30791440  0.50444070
   0.19227768  0.40071393  0.59712082
   0.19126797  0.51502302  0.70691706
   0.19317488  0.59932720  0.81190660
   0.19226756  0.71903299  0.90912196
   0.20039700  0.81682698  0.02528853
   0.19643894  0.88964432  0.10413423
   0.29721677  0.99419481  0.29609815
   0.29838197  0.09264153  0.40148556
   0.30511189  0.21424689  0.50022322
   0.31486335  0.30507262  0.59736045
   0.29477505  0.39450025  0.70677149
   0.29661412  0.50386160  0.79866187
   0.29319439  0.59471595  0.91639659
   0.30107025  0.70895510  0.99698620
   0.30500540  0.79375541  0.11043802
   0.30529362  0.89484235  0.19410397
   0.39378800  0.99535301  0.40002515
   0.41058765  0.11477023  0.49121406
   0.41478965  0.20025826  0.60059863
   0.41245550  0.30623438  0.69348059
   0.41478201  0.39934670  0.80495035
   0.39366008  0.50975279  0.89039658
   0.40869755  0.61650701  0.99726905
   0.39976694  0.69886534  0.11152866
   0.40691092  0.79735601  0.19800340
   0.40141916  0.90931859  0.29393263
   0.50854150  0.00670505  0.50967827
   0.49443597  0.10986818  0.60813397
   0.51355765  0.19996215  0.71174515
   0.51469372  0.30937311  0.79710630
   0.49767506  0.40825866  0.88996414
   0.48776645  0.49611428  0.97970423
   0.49651449  0.60732515  0.09713153
   0.50098008  0.69662242  0.20619382
   0.49847483  0.80146837  0.29481402
   0.51094823  0.90425547  0.40408276
   0.60692930  0.00510322  0.59306386
   0.59818632  0.10958218  0.70013885
   0.60139708  0.20544128  0.82088684
   0.60082167  0.31434394  0.91434246
   0.59225381  0.40441852  0.00020669
   0.57677455  0.51842177  0.09279120
   0.59684142  0.60198059  0.20157584
   0.59978617  0.70104843  0.28995734
   0.59016237  0.79720674  0.40397418
   0.59803300  0.89060952  0.50478610
   0.70914148  0.98353507  0.70346015
   0.70355135  0.09888921  0.79357954
   0.70291287  0.21034566  0.89977364
   0.69846965  0.30233096  0.00102182
   0.68200275  0.40789458  0.10756815
   0.69260949  0.49821208  0.20160013
   0.70438880  0.58607264  0.29423073
   0.69230307  0.69262427  0.39473103
   0.70281859  0.78888001  0.50739688
   0.70436820  0.88397544  0.60399811
   0.80859789  0.99895381  0.80586533
   0.78955105  0.09432711  0.90222615
   0.80071771  0.21622341  0.97644672
   0.80377553  0.30981285  0.10024448
   0.79088371  0.40498482  0.18923945
   0.80166835  0.51133034  0.28266542
   0.79983112  0.60070270  0.39992480
   0.80225104  0.69370001  0.49372179
   0.79877460  0.79329605  0.59245355
   0.80527858  0.90061496  0.71265900
   0.90959475  0.99914789  0.90338816
   0.89466006  0.09348801  0.00429730
   0.89868254  0.19879300  0.09710038
   0.88306096  0.30405117  0.19695339
   0.91190118  0.39633467  0.29801032
   0.89554664  0.49462241  0.39837045
   0.88966592  0.60153859  0.49405703
   0.89109536  0.70672686  0.59301354
   0.89715891  0.77276783  0.68789864
   0.89635516  0.89627135  0.80148342
   0.11172447  0.09114575  0.00393764
   0.09353195  0.20371608  0.09194398
   0.09348225  0.31407918  0.19153119
   0.10057949  0.39629301  0.29413213
   0.09806498  0.50667117  0.38807303
   0.10711141  0.61754312  0.49197607
   0.10074278  0.71184515  0.60817315
   0.11629441  0.79983499  0.70684259
   0.08818413  0.89129979  0.79340772
   0.08779159  0.99850256  0.90212259
   0.19315659  0.09818077  0.10918400
   0.19818864  0.21706872  0.19522565
   0.20030357  0.30015356  0.31432151
   0.18139286  0.40330343  0.41074619
   0.19495484  0.49218991  0.49412705
   0.20830577  0.60066029  0.58222842
   0.20040771  0.68491339  0.70363753
   0.20122120  0.81797616  0.80747386
   0.20605708  0.90218493  0.90340320
   0.18598211  0.98058291  0.00058435
   0.29709389  0.10360581  0.20753314
   0.30214987  0.19998259  0.29941857
   0.31304796  0.29392234  0.40036922
   0.29880555  0.40063662  0.50468721
   0.29456760  0.49651783  0.61617729
   0.30854251  0.59737911  0.70930544
   0.29904186  0.68445891  0.81453187
   0.29758421  0.80574112  0.91441480
   0.29362843  0.89902844  0.01639824
   0.29088271  0.00205207  0.10098381
   0.40073829  0.09963379  0.31368469
   0.40877467  0.21868039  0.39682582
   0.42090114  0.31578373  0.48925144
   0.40818006  0.40349346  0.59132083
   0.41092958  0.51416138  0.70159838
   0.39673290  0.60853060  0.81299948
   0.40252147  0.70985883  0.91036375
   0.40492202  0.80483800  0.00925879
   0.39353374  0.89939842  0.09926308
   0.40759512  0.99921438  0.19881508
   0.50346005  0.08633689  0.40071281
   0.49938914  0.20319226  0.48278639
   0.51011689  0.29118369  0.60114318
   0.50991381  0.39358713  0.70206744
   0.49057730  0.50568594  0.80768400
   0.50107595  0.61690903  0.90196140
   0.50383225  0.71629281  0.00969230
   0.49454851  0.79481038  0.09915778
   0.49221474  0.89125023  0.19386407
   0.50784317  0.00623452  0.29046393
   0.61176185  0.08766064  0.49754830
   0.60794601  0.17920861  0.57948048
   0.60046329  0.28519891  0.70405613
   0.60459063  0.40198331  0.79897515
   0.60640672  0.51054810  0.90074498
   0.60958852  0.60616382  0.99691037
   0.60006039  0.68199721  0.09864283
   0.59369171  0.79215406  0.18863396
   0.59734681  0.89703369  0.29469233
   0.60969251  0.98222024  0.40904239
   0.69927185  0.08996507  0.59503561
   0.70343125  0.20174610  0.70168623
   0.70074735  0.29937441  0.81272690
   0.71139462  0.41736705  0.89845836
   0.70188683  0.49518184  0.99367218
   0.70927296  0.59887868  0.09670679
   0.69644346  0.69047430  0.18783179
   0.69240873  0.80149492  0.29626172
   0.68429401  0.87779966  0.40409483
   0.71816873  0.98672233  0.50376103
   0.79846893  0.10868172  0.69726019
   0.79582796  0.21337738  0.82248965
   0.80972240  0.30430427  0.89881823
   0.81392552  0.39786853  0.01811228
   0.80593484  0.48908324  0.10105058
   0.79676202  0.60323343  0.18996853
   0.78399443  0.69785256  0.28613872
   0.78775452  0.80040771  0.39577701
   0.80967500  0.89730272  0.49816545
   0.79767322  0.99119549  0.60217688
   0.89679455  0.11109879  0.80351649
   0.90230573  0.19206373  0.89661276
   0.91794715  0.29809077  0.99626413
   0.90297081  0.39768461  0.11129693
   0.90040901  0.51170948  0.19692627
   0.89138720  0.60995594  0.30894965
   0.88851712  0.69852964  0.37680349
   0.89758506  0.79445070  0.48070745
   0.88504288  0.89650945  0.60435878
   0.89311880  0.00877032  0.70786378
   0.00849015  0.10174357  0.90861216
   0.00188344  0.19108754  0.99912197
   0.98166856  0.30361300  0.10819675
   0.99657173  0.40724842  0.19234642
   0.97222276  0.50844590  0.29808798
   0.98936595  0.61694155  0.39857199
   0.99853144  0.70383929  0.49481339
   0.01266576  0.79748460  0.61417608
   0.99629695  0.90001175  0.69401260
   0.99776966  0.98919735  0.80390416
   0.19881842  0.20811567  0.01279309
   0.20236721  0.31204807  0.09201819
   0.19571927  0.39790589  0.19930893
   0.18650986  0.50668519  0.30086360
   0.20049071  0.59339711  0.39626490
   0.19735595  0.71340967  0.51347916
   0.20477987  0.80474466  0.60678856
   0.20577855  0.91248287  0.70389777
   0.20046166  0.99520925  0.79608768
   0.18501926  0.09144940  0.90444175
   0.30379016  0.18853039  0.10606967
   0.31601690  0.30052314  0.19828928
   0.28582331  0.40545762  0.29966939
   0.29326871  0.50511906  0.41276904
   0.30547696  0.60790632  0.50412551
   0.29664869  0.70799062  0.60262455
   0.28760483  0.79781030  0.70900901
   0.31448760  0.90552658  0.81457089
   0.29675921  0.01220952  0.90506065
   0.29608819  0.09645205  0.00545732
   0.40859843  0.19847840  0.22635624
   0.39961572  0.30861267  0.29902386
   0.39790794  0.37946533  0.39049275
   0.39549929  0.50696087  0.50753529
   0.38996585  0.60130875  0.61563164
   0.40378700  0.69847458  0.70117182
   0.39459132  0.79550107  0.79588143
   0.39353038  0.90273388  0.91880099
   0.39889537  0.98819080  0.01697340
   0.40073699  0.10683051  0.09266931
   0.49769100  0.20511882  0.31466074
   0.51766869  0.32660263  0.39888631
   0.51293731  0.42683274  0.49426447
   0.50983398  0.51591179  0.60492360
   0.48865158  0.61486412  0.70599822
   0.50432239  0.71471811  0.80669876
   0.50462597  0.81406810  0.89789594
   0.50944307  0.89003716  0.01983073
   0.50899436  0.00347993  0.11257896
   0.50614103  0.10369661  0.21806665
   0.60544608  0.19746287  0.38450309
   0.61506116  0.29820629  0.49236048
   0.60495709  0.40566899  0.60920161
   0.59125238  0.51441485  0.71009232
   0.59627777  0.59617856  0.80305261
   0.61661575  0.72316043  0.88953473
   0.60876876  0.79806998  0.01943167
   0.59165187  0.90746098  0.10274564
   0.61011932  0.99502530  0.19596457
   0.61490291  0.08617786  0.30739953
   0.70761234  0.19162575  0.50576475
   0.70064267  0.28837717  0.57872510
   0.69379975  0.39518803  0.69778087
   0.71185706  0.49588766  0.78511477
   0.70997052  0.60003187  0.88640436
   0.70676276  0.69855668  0.99126831
   0.69117312  0.79976956  0.08420550
   0.71041845  0.88664168  0.19014311
   0.68380370  0.98910662  0.31183736
   0.69480250  0.10106455  0.40043695
   0.80867950  0.19687005  0.59991113
   0.80740579  0.30571163  0.68703446
   0.79385232  0.40404727  0.78121360
   0.80441511  0.49065056  0.88263104
   0.80763975  0.58920140  0.98740622
   0.78480438  0.70513109  0.08323766
   0.79151389  0.80409223  0.17915309
   0.80613923  0.90081989  0.29944333
   0.79826330  0.96550078  0.40411945
   0.80933360  0.10081332  0.49789457
   0.90102481  0.20416824  0.71170040
   0.91061368  0.30154802  0.80244834
   0.90320069  0.40654823  0.90430698
   0.89492802  0.48930938  0.98817522
   0.90628589  0.60146526  0.07807608
   0.89055004  0.70123940  0.18023438
   0.88246205  0.79357104  0.29806031
   0.90706835  0.90596720  0.39686164
   0.88565346  0.00023183  0.50282389
   0.90831367  0.08684674  0.58351710
   0.00619300  0.20221224  0.79684300
   0.99677269  0.29820766  0.90133662
   0.99736535  0.39578624  0.01384299
   0.98994218  0.51134105  0.10010137
   0.98008810  0.60659625  0.20495205
   0.99729920  0.69617927  0.31065608
   0.00158003  0.79966669  0.38757602
   0.98866290  0.90338023  0.51304762
   0.98948486  0.99603186  0.60151426
   0.99055217  0.08617425  0.69860729
   0.09679357  0.20881642  0.91767000
   0.09292461  0.30480879  0.99060075
   0.09621302  0.39811273  0.10241498
   0.09584469  0.50067906  0.21398935
   0.10021767  0.60822715  0.30280029
   0.11605598  0.70599327  0.39882053
   0.08978798  0.80328205  0.50727496
   0.11636429  0.90216180  0.60356260
   0.08686863  0.00330526  0.69816520
   0.10167545  0.11777846  0.78947973
   0.31449954  0.29396221  0.99618189
   0.29727560  0.40547751  0.10799330
   0.29646308  0.49279745  0.18039962
   0.29216767  0.60065716  0.30773258
   0.29506877  0.70782141  0.39720552
   0.31065473  0.79592075  0.49321953
   0.29333379  0.90416740  0.59404035
   0.30911139  0.00261002  0.71114549
   0.28804093  0.10556659  0.80607227
   0.29848918  0.20332321  0.90548452
   0.40587887  0.29679875  0.09995623
   0.39345585  0.40442674  0.19240920
   0.37726503  0.50114111  0.29073192
   0.39638188  0.60814006  0.39526355
   0.39740546  0.69581723  0.49127852
   0.38586648  0.80187502  0.59967334
   0.39670038  0.89671564  0.69751473
   0.39779937  0.99920143  0.80510775
   0.39432725  0.10567768  0.90406654
   0.39536536  0.18899227  0.99196027
   0.49184537  0.29865272  0.20284133
   0.49722827  0.39634883  0.28905822
   0.48815491  0.50985094  0.38764909
   0.48938710  0.59418809  0.49171305
   0.48600035  0.70067708  0.61059399
   0.48990726  0.80538589  0.69981625
   0.47945690  0.90223374  0.79253920
   0.49329456  0.99866178  0.92094921
   0.50583154  0.09559720  0.01921237
   0.49361439  0.18634703  0.10329576
   0.61132065  0.30365961  0.29139296
   0.61965262  0.41556501  0.38619292
   0.60496986  0.51247951  0.49449384
   0.61092921  0.61761064  0.59983165
   0.60969971  0.69686331  0.71635848
   0.60194364  0.79460061  0.79228143
   0.60064189  0.89435517  0.87721139
   0.60513092  0.99377783  0.01770217
   0.61392122  0.09685456  0.10071584
   0.60031759  0.19985497  0.21102981
   0.70545297  0.29089081  0.38775803
   0.70134315  0.41000146  0.49262750
   0.69214602  0.50101068  0.59938566
   0.71000902  0.60079454  0.69678049
   0.71441776  0.71055981  0.80502331
   0.70360271  0.81479373  0.91462227
   0.71039762  0.90442415  0.00773824
   0.69214093  0.99718858  0.10571816
   0.70134981  0.08307871  0.21447483
   0.69973286  0.20566886  0.28578013
   0.82562550  0.29751274  0.50039114
   0.80260013  0.40777392  0.58980292
   0.79575603  0.49199530  0.68513266
   0.79915157  0.61474101  0.79438900
   0.79369660  0.70931823  0.91646911
   0.79517814  0.80923493  0.00348917
   0.79758100  0.89262453  0.09724651
   0.80638133  0.99030757  0.19116483
   0.79798203  0.08508987  0.30454765
   0.79721874  0.20341946  0.38935425
   0.91020902  0.29613589  0.58563766
   0.90013263  0.39513773  0.69112293
   0.89835092  0.50294914  0.77526263
   0.88796382  0.57964279  0.89093836
   0.90201748  0.70250035  0.99740765
   0.91276823  0.77969351  0.08871996
   0.90362518  0.89241962  0.19591292
   0.91124457  0.00071627  0.30042511
   0.89864022  0.09006689  0.40080850
   0.91187961  0.19054658  0.49539361
   0.01058907  0.29308324  0.69748835
   0.00265770  0.39973410  0.79672468
   0.00651583  0.48921795  0.89398381
   0.99463962  0.58301092  0.98467206
   0.00171139  0.69199764  0.08979834
   0.99635108  0.78804564  0.18674624
   0.00143430  0.88396709  0.28899997
   0.99338451  0.98577428  0.39641133
   0.00235575  0.09223900  0.50522705
   0.99747970  0.18117360  0.61144941
   0.10172208  0.30161904  0.80531665
   0.09722408  0.40608116  0.90392009
   0.08503439  0.50168571  0.99958675
   0.08812276  0.58433341  0.09569398
   0.08351397  0.69279578  0.19983093
   0.09400883  0.79564806  0.29364062
   0.09351163  0.90154777  0.40424383
   0.10053104  0.00749094  0.50464681
   0.09362639  0.10243717  0.59942735
   0.10374824  0.19608118  0.68864492
   0.19681040  0.31088006  0.89456538
   0.20762391  0.39564099  0.00131582
   0.19105150  0.50459877  0.10722267
   0.21184726  0.60288795  0.20034086
   0.19530737  0.69823269  0.29150803
   0.19774642  0.79590644  0.40304489
   0.20577226  0.90785516  0.48737077
   0.19970335  0.00388572  0.59472150
   0.21279559  0.09791245  0.69124708
   0.20460359  0.19691934  0.79947739
   0.39636122  0.41705170  0.00508681
   0.41112864  0.51655538  0.09071654
   0.38972367  0.59007137  0.20756108
   0.40377381  0.70120412  0.29474519
   0.40778026  0.80480974  0.40877276
   0.41203160  0.90162261  0.50996526
   0.40813076  0.00010421  0.60358025
   0.40580097  0.10440066  0.71639006
   0.40826377  0.20316342  0.80342164
   0.40297638  0.29540733  0.90371394
   0.50007719  0.41483425  0.10085120
   0.48691763  0.50710183  0.21065452
   0.49786694  0.58964676  0.31156448
   0.50121930  0.70118046  0.38954661
   0.49896002  0.80183259  0.50206240
   0.50037696  0.88981126  0.61546097
   0.49359539  0.00034527  0.70048128
   0.51264725  0.09630717  0.81961846
   0.50311421  0.20854135  0.90880405
   0.47968338  0.30472172  0.01433210
   0.58803751  0.41343428  0.20825030
   0.59136155  0.50160375  0.29865595
   0.59381183  0.59363326  0.37378573
   0.58117330  0.69588496  0.49180721
   0.59936882  0.78725005  0.60127941
   0.60474045  0.89331073  0.70925877
   0.59340595  0.00020682  0.80337276
   0.60159517  0.08893870  0.91608925
   0.59739718  0.20675679  0.99491640
   0.57881029  0.30414692  0.10073354
   0.70178935  0.39278688  0.27531141
   0.71183991  0.49336472  0.39216379
   0.69261013  0.58194105  0.49383334
   0.71615450  0.69464409  0.59636513
   0.72008000  0.78531199  0.70170617
   0.71231382  0.90639625  0.80726016
   0.69919447  0.99106028  0.90546195
   0.70046596  0.09977709  0.00637864
   0.69139081  0.20545377  0.09932199
   0.69425342  0.31236181  0.18787234
   0.79220526  0.39325583  0.38973056
   0.79613871  0.50082748  0.49593205
   0.79472395  0.60146554  0.59083261
   0.79727200  0.68349294  0.69235959
   0.81425393  0.78273199  0.79990671
   0.80837074  0.90074209  0.90080185
   0.79545326  0.98923377  0.01165381
   0.77257466  0.10777253  0.08874281
   0.79439694  0.19695023  0.20293414
   0.80016255  0.31002625  0.28492139
   0.89867988  0.40214434  0.49160116
   0.90201364  0.50316138  0.59653390
   0.89780154  0.60390278  0.68261805
   0.89239958  0.68310318  0.80711352
   0.90927387  0.79972891  0.90171295
   0.89995315  0.90416429  0.99400031
   0.90954643  0.99582743  0.10554953
   0.88416879  0.09589774  0.20725453
   0.88667954  0.18719966  0.29212406
   0.90413977  0.30180286  0.38852222
   0.01109684  0.39980337  0.62178557
   0.00637222  0.50859690  0.69978888
   0.00501222  0.60145910  0.80826933
   0.99597458  0.69062306  0.90015683
   0.99914161  0.80191455  0.01402165
   0.99169928  0.89628283  0.09724620
   0.00225974  0.99630291  0.19683370
   0.00843676  0.10882939  0.29567564
   0.98124602  0.19818592  0.40101436
   0.98845344  0.29905615  0.51495468
   0.10189549  0.39564885  0.70218101
   0.10156208  0.49005794  0.80811950
   0.10019690  0.58927999  0.89615238
   0.10347582  0.70883467  0.98920306
   0.09748991  0.78816316  0.10179359
   0.09741833  0.88103072  0.19139445
   0.10483598  0.99732456  0.30021069
   0.10117435  0.09596165  0.41894446
   0.09456745  0.20054068  0.50696261
   0.10481773  0.30624702  0.59030326
   0.20082789  0.39583528  0.79719144
   0.20672783  0.47933319  0.88832339
   0.19034907  0.59314112  0.99423504
   0.19320070  0.68823959  0.09108761
   0.19859247  0.78822551  0.19295518
   0.19425313  0.88691239  0.29540060
   0.20332666  0.99622537  0.40163081
   0.18856048  0.09988245  0.50816392
   0.20970339  0.20301491  0.59162303
   0.19983895  0.30259817  0.69349700
   0.30710623  0.38873945  0.89951215
   0.30991273  0.49995831  0.00979971
   0.32191218  0.61746140  0.08569946
   0.30620612  0.70204584  0.20470372
   0.30011510  0.80658099  0.29713325
   0.30704297  0.89210051  0.40058681
   0.30761429  0.00533529  0.50490876
   0.31283801  0.11829143  0.60434000
   0.31393978  0.19686774  0.69484853
   0.30774152  0.27767904  0.79780437
