 500 500   0   0
  0.2349479E+02  0.2273250E-08  0.2273250E-08  0.2273250E-08  0.5000000E-15
  1.000000000000000E-004
  CAR 
 Li                                      
      2.81928454     -3.59217569  301      0.03420351      1.00000000
     -3.592  0.0000E+00  0.0000E+00
     -3.571  0.0000E+00  0.0000E+00
     -3.549  0.0000E+00  0.0000E+00
     -3.528  0.0000E+00  0.0000E+00
     -3.507  0.0000E+00  0.0000E+00
     -3.485  0.0000E+00  0.0000E+00
     -3.464  0.2597E-13  0.5551E-15
     -3.443  0.6063E-10  0.1296E-11
     -3.421  0.5369E-07  0.1149E-08
     -3.400  0.1763E-04  0.3778E-06
     -3.378  0.2160E-02  0.4654E-04
     -3.357  0.9971E-01  0.2178E-02
     -3.336  0.1753E+01  0.3965E-01
     -3.314  0.1189E+02  0.2937E+00
     -3.293  0.3146E+02  0.9661E+00
     -3.272  0.3273E+02  0.1666E+01
     -3.250  0.1359E+02  0.1956E+01
     -3.229  0.5787E+01  0.2080E+01
     -3.207  0.2617E+02  0.2639E+01
     -3.186  0.7831E+02  0.4313E+01
     -3.165  0.1011E+03  0.6472E+01
     -3.143  0.5653E+02  0.7680E+01
     -3.122  0.1549E+02  0.8011E+01
     -3.101  0.1852E+02  0.8407E+01
     -3.079  0.6456E+02  0.9787E+01
     -3.058  0.1031E+03  0.1199E+02
     -3.037  0.7070E+02  0.1350E+02
     -3.015  0.2242E+02  0.1398E+02
     -2.994  0.1845E+02  0.1437E+02
     -2.972  0.6482E+02  0.1576E+02
     -2.951  0.1214E+03  0.1835E+02
     -2.930  0.1106E+03  0.2072E+02
     -2.908  0.5059E+02  0.2180E+02
     -2.887  0.2638E+02  0.2236E+02
     -2.866  0.7407E+02  0.2395E+02
     -2.844  0.1573E+03  0.2731E+02
     -2.823  0.1729E+03  0.3100E+02
     -2.801  0.1021E+03  0.3319E+02
     -2.780  0.3514E+02  0.3394E+02
     -2.759  0.2566E+02  0.3448E+02
     -2.737  0.6825E+02  0.3594E+02
     -2.716  0.1014E+03  0.3811E+02
     -2.695  0.6737E+02  0.3955E+02
     -2.673  0.2434E+02  0.4007E+02
     -2.652  0.3675E+02  0.4085E+02
     -2.630  0.1091E+03  0.4319E+02
     -2.609  0.1773E+03  0.4698E+02
     -2.588  0.1527E+03  0.5024E+02
     -2.566  0.7270E+02  0.5179E+02
     -2.545  0.5215E+02  0.5291E+02
     -2.524  0.1274E+03  0.5563E+02
     -2.502  0.2235E+03  0.6041E+02
     -2.481  0.2322E+03  0.6537E+02
     -2.459  0.1482E+03  0.6853E+02
     -2.438  0.5948E+02  0.6981E+02
     -2.417  0.3573E+02  0.7057E+02
     -2.395  0.7557E+02  0.7218E+02
     -2.374  0.1008E+03  0.7434E+02
     -2.353  0.6095E+02  0.7564E+02
     -2.331  0.2444E+02  0.7616E+02
     -2.310  0.5200E+02  0.7728E+02
     -2.289  0.1407E+03  0.8028E+02
     -2.267  0.2065E+03  0.8470E+02
     -2.246  0.1645E+03  0.8821E+02
     -2.224  0.7677E+02  0.8985E+02
     -2.203  0.6350E+02  0.9121E+02
     -2.182  0.1452E+03  0.9431E+02
     -2.160  0.2275E+03  0.9917E+02
     -2.139  0.2219E+03  0.1039E+03
     -2.118  0.1371E+03  0.1068E+03
     -2.096  0.5873E+02  0.1081E+03
     -2.075  0.6756E+02  0.1095E+03
     -2.053  0.1451E+03  0.1126E+03
     -2.032  0.1807E+03  0.1165E+03
     -2.011  0.1204E+03  0.1191E+03
     -1.989  0.6032E+02  0.1204E+03
     -1.968  0.9492E+02  0.1224E+03
     -1.947  0.1925E+03  0.1265E+03
     -1.925  0.2442E+03  0.1317E+03
     -1.904  0.1908E+03  0.1358E+03
     -1.882  0.9337E+02  0.1378E+03
     -1.861  0.7279E+02  0.1394E+03
     -1.840  0.1520E+03  0.1426E+03
     -1.818  0.2340E+03  0.1476E+03
     -1.797  0.2203E+03  0.1523E+03
     -1.776  0.1269E+03  0.1550E+03
     -1.754  0.6163E+02  0.1564E+03
     -1.733  0.8909E+02  0.1583E+03
     -1.711  0.1595E+03  0.1617E+03
     -1.690  0.1673E+03  0.1652E+03
     -1.669  0.9986E+02  0.1674E+03
     -1.647  0.5429E+02  0.1685E+03
     -1.626  0.8895E+02  0.1704E+03
     -1.605  0.1496E+03  0.1736E+03
     -1.583  0.1581E+03  0.1770E+03
     -1.562  0.1070E+03  0.1793E+03
     -1.541  0.7878E+02  0.1810E+03
     -1.519  0.1547E+03  0.1843E+03
     -1.498  0.2849E+03  0.1904E+03
     -1.476  0.3496E+03  0.1978E+03
     -1.455  0.3028E+03  0.2043E+03
     -1.434  0.1889E+03  0.2084E+03
     -1.412  0.1171E+03  0.2109E+03
     -1.391  0.1654E+03  0.2144E+03
     -1.370  0.2436E+03  0.2196E+03
     -1.348  0.2210E+03  0.2243E+03
     -1.327  0.1287E+03  0.2271E+03
     -1.305  0.7101E+02  0.2286E+03
     -1.284  0.8827E+02  0.2305E+03
     -1.263  0.1538E+03  0.2338E+03
     -1.241  0.1942E+03  0.2379E+03
     -1.220  0.1559E+03  0.2412E+03
     -1.199  0.1361E+03  0.2442E+03
     -1.177  0.2073E+03  0.2486E+03
     -1.156  0.2742E+03  0.2544E+03
     -1.134  0.2660E+03  0.2601E+03
     -1.113  0.1830E+03  0.2640E+03
     -1.092  0.7777E+02  0.2657E+03
     -1.070  0.3521E+02  0.2665E+03
     -1.049  0.6582E+02  0.2679E+03
     -1.028  0.9858E+02  0.2700E+03
     -1.006  0.7699E+02  0.2716E+03
     -0.985  0.7046E+02  0.2731E+03
     -0.963  0.1592E+03  0.2765E+03
     -0.942  0.2850E+03  0.2826E+03
     -0.921  0.3461E+03  0.2900E+03
     -0.899  0.3222E+03  0.2969E+03
     -0.878  0.2571E+03  0.3024E+03
     -0.857  0.2138E+03  0.3070E+03
     -0.835  0.2221E+03  0.3117E+03
     -0.814  0.2760E+03  0.3176E+03
     -0.793  0.3106E+03  0.3242E+03
     -0.771  0.2645E+03  0.3299E+03
     -0.750  0.1837E+03  0.3338E+03
     -0.728  0.1338E+03  0.3367E+03
     -0.707  0.1166E+03  0.3392E+03
     -0.686  0.1238E+03  0.3418E+03
     -0.664  0.1241E+03  0.3445E+03
     -0.643  0.1529E+03  0.3477E+03
     -0.622  0.2050E+03  0.3521E+03
     -0.600  0.2274E+03  0.3570E+03
     -0.579  0.2195E+03  0.3617E+03
     -0.557  0.1793E+03  0.3655E+03
     -0.536  0.1345E+03  0.3684E+03
     -0.515  0.1639E+03  0.3719E+03
     -0.493  0.2628E+03  0.3775E+03
     -0.472  0.3306E+03  0.3846E+03
     -0.451  0.3121E+03  0.3912E+03
     -0.429  0.2339E+03  0.3962E+03
     -0.408  0.1869E+03  0.4002E+03
     -0.386  0.2189E+03  0.4049E+03
     -0.365  0.2306E+03  0.4098E+03
     -0.344  0.1754E+03  0.4136E+03
     -0.322  0.1098E+03  0.4159E+03
     -0.301  0.1097E+03  0.4183E+03
     -0.280  0.1857E+03  0.4222E+03
     -0.258  0.2703E+03  0.4280E+03
     -0.237  0.3141E+03  0.4347E+03
     -0.215  0.2929E+03  0.4410E+03
     -0.194  0.2272E+03  0.4458E+03
     -0.173  0.2069E+03  0.4503E+03
     -0.151  0.2393E+03  0.4554E+03
     -0.130  0.2424E+03  0.4606E+03
     -0.109  0.1794E+03  0.4644E+03
     -0.087  0.1237E+03  0.4670E+03
     -0.066  0.1792E+03  0.4709E+03
     -0.045  0.2837E+03  0.4769E+03
     -0.023  0.3263E+03  0.4839E+03
     -0.002  0.3083E+03  0.4905E+03
      0.020  0.2758E+03  0.4964E+03
      0.041  0.2421E+03  0.5016E+03
      0.062  0.2195E+03  0.5063E+03
      0.084  0.2219E+03  0.5110E+03
      0.105  0.2357E+03  0.5160E+03
      0.126  0.2429E+03  0.5212E+03
      0.148  0.2560E+03  0.5267E+03
      0.169  0.3050E+03  0.5332E+03
      0.191  0.3571E+03  0.5408E+03
      0.212  0.3763E+03  0.5489E+03
      0.233  0.3749E+03  0.5569E+03
      0.255  0.3600E+03  0.5646E+03
      0.276  0.3361E+03  0.5718E+03
      0.297  0.3202E+03  0.5786E+03
      0.319  0.3081E+03  0.5852E+03
      0.340  0.2723E+03  0.5910E+03
      0.362  0.2323E+03  0.5960E+03
      0.383  0.2303E+03  0.6009E+03
      0.404  0.2470E+03  0.6062E+03
      0.426  0.2320E+03  0.6111E+03
      0.447  0.1692E+03  0.6148E+03
      0.468  0.1240E+03  0.6174E+03
      0.490  0.1532E+03  0.6207E+03
      0.511  0.1897E+03  0.6247E+03
      0.533  0.1928E+03  0.6289E+03
      0.554  0.1689E+03  0.6325E+03
      0.575  0.1521E+03  0.6357E+03
      0.597  0.1753E+03  0.6395E+03
      0.618  0.2046E+03  0.6438E+03
      0.639  0.2355E+03  0.6489E+03
      0.661  0.2723E+03  0.6547E+03
      0.682  0.2947E+03  0.6610E+03
      0.704  0.3092E+03  0.6676E+03
      0.725  0.3174E+03  0.6744E+03
      0.746  0.3220E+03  0.6813E+03
      0.768  0.3252E+03  0.6882E+03
      0.789  0.3177E+03  0.6950E+03
      0.810  0.2957E+03  0.7013E+03
      0.832  0.2772E+03  0.7073E+03
      0.853  0.2513E+03  0.7126E+03
      0.874  0.2006E+03  0.7169E+03
      0.896  0.1681E+03  0.7205E+03
      0.917  0.1852E+03  0.7245E+03
      0.939  0.2251E+03  0.7293E+03
      0.960  0.2555E+03  0.7347E+03
      0.981  0.2713E+03  0.7405E+03
      1.003  0.2751E+03  0.7464E+03
      1.024  0.2564E+03  0.7519E+03
      1.045  0.2330E+03  0.7569E+03
      1.067  0.2249E+03  0.7617E+03
      1.088  0.2070E+03  0.7661E+03
      1.110  0.1676E+03  0.7697E+03
      1.131  0.1378E+03  0.7726E+03
      1.152  0.1465E+03  0.7758E+03
      1.174  0.1691E+03  0.7794E+03
      1.195  0.1512E+03  0.7826E+03
      1.216  0.1149E+03  0.7851E+03
      1.238  0.1092E+03  0.7874E+03
      1.259  0.1152E+03  0.7899E+03
      1.281  0.1229E+03  0.7925E+03
      1.302  0.1568E+03  0.7958E+03
      1.323  0.2110E+03  0.8003E+03
      1.345  0.2500E+03  0.8057E+03
      1.366  0.2619E+03  0.8113E+03
      1.387  0.2610E+03  0.8169E+03
      1.409  0.2633E+03  0.8225E+03
      1.430  0.2719E+03  0.8283E+03
      1.452  0.2844E+03  0.8344E+03
      1.473  0.2902E+03  0.8406E+03
      1.494  0.2805E+03  0.8466E+03
      1.516  0.2694E+03  0.8523E+03
      1.537  0.2530E+03  0.8577E+03
      1.558  0.2242E+03  0.8625E+03
      1.580  0.2013E+03  0.8668E+03
      1.601  0.1885E+03  0.8709E+03
      1.622  0.1761E+03  0.8746E+03
      1.644  0.1475E+03  0.8778E+03
      1.665  0.1022E+03  0.8800E+03
      1.687  0.8242E+02  0.8817E+03
      1.708  0.1076E+03  0.8840E+03
      1.729  0.1528E+03  0.8873E+03
      1.751  0.1806E+03  0.8911E+03
      1.772  0.1763E+03  0.8949E+03
      1.793  0.1638E+03  0.8984E+03
      1.815  0.1709E+03  0.9021E+03
      1.836  0.1918E+03  0.9062E+03
      1.858  0.1997E+03  0.9104E+03
      1.879  0.1889E+03  0.9145E+03
      1.900  0.1727E+03  0.9182E+03
      1.922  0.1493E+03  0.9213E+03
      1.943  0.1386E+03  0.9243E+03
      1.964  0.1476E+03  0.9275E+03
      1.986  0.1439E+03  0.9305E+03
      2.007  0.1291E+03  0.9333E+03
      2.029  0.1243E+03  0.9360E+03
      2.050  0.1376E+03  0.9389E+03
      2.071  0.1401E+03  0.9419E+03
      2.093  0.1182E+03  0.9444E+03
      2.114  0.9610E+02  0.9465E+03
      2.135  0.9993E+02  0.9486E+03
      2.157  0.1216E+03  0.9512E+03
      2.178  0.1484E+03  0.9544E+03
      2.200  0.1733E+03  0.9581E+03
      2.221  0.1817E+03  0.9620E+03
      2.242  0.1779E+03  0.9658E+03
      2.264  0.1774E+03  0.9696E+03
      2.285  0.1802E+03  0.9734E+03
      2.306  0.1846E+03  0.9773E+03
      2.328  0.1785E+03  0.9812E+03
      2.349  0.1495E+03  0.9844E+03
      2.370  0.1043E+03  0.9866E+03
      2.392  0.5553E+02  0.9878E+03
      2.413  0.3949E+02  0.9886E+03
      2.435  0.7443E+02  0.9902E+03
      2.456  0.1144E+03  0.9926E+03
      2.477  0.1270E+03  0.9954E+03
      2.499  0.1321E+03  0.9982E+03
      2.520  0.1094E+03  0.1001E+04
      2.541  0.5413E+02  0.1002E+04
      2.563  0.1338E+02  0.1002E+04
      2.584  0.1471E+01  0.1002E+04
      2.606  0.6691E-01  0.1002E+04
      2.627  0.1212E-02  0.1002E+04
      2.648  0.8534E-05  0.1002E+04
      2.670  0.2303E-07  0.1002E+04
      2.691  0.2356E-10  0.1002E+04
      2.712  0.5195E-14  0.1002E+04
      2.734  0.0000E+00  0.1002E+04
      2.755  0.0000E+00  0.1002E+04
      2.777  0.0000E+00  0.1002E+04
      2.798  0.0000E+00  0.1002E+04
      2.819  0.0000E+00  0.1002E+04
