       N       E                     dE             d eps       ncg     rms          rms(c)
DAV:   1    -0.342110603340E+03   -0.34211E+03   -0.11621E+05  4008   0.642E+02
DAV:   2    -0.887251285155E+03   -0.54514E+03   -0.49989E+03  4588   0.628E+01
DAV:   3    -0.926984357504E+03   -0.39733E+02   -0.36311E+02  5216   0.133E+01
DAV:   4    -0.928394952122E+03   -0.14106E+01   -0.13884E+01  4688   0.275E+00
DAV:   5    -0.928427452828E+03   -0.32501E-01   -0.32445E-01  4864   0.445E-01    0.718E+00
DAV:   6    -0.928274038189E+03    0.15341E+00   -0.66437E+00  4704   0.368E+00    0.658E+00
DAV:   7    -0.922074202116E+03    0.61998E+01   -0.67862E+00  4760   0.356E+00    0.372E+00
DAV:   8    -0.920710973453E+03    0.13632E+01   -0.34925E+00  4592   0.173E+00    0.208E+00
DAV:   9    -0.920431562874E+03    0.27941E+00   -0.16999E+00  4480   0.108E+00    0.121E+00
DAV:  10    -0.920499231577E+03   -0.67669E-01   -0.45712E-01  4808   0.736E-01    0.115E+00
DAV:  11    -0.920343928089E+03    0.15530E+00   -0.21400E-01  4640   0.483E-01    0.475E-01
DAV:  12    -0.920345309319E+03   -0.13812E-02   -0.72116E-02  4440   0.205E-01    0.254E-01
DAV:  13    -0.920345310198E+03   -0.87859E-06   -0.16897E-02  4864   0.146E-01    0.209E-01
DAV:  14    -0.920341451564E+03    0.38586E-02   -0.44802E-03  4624   0.855E-02    0.103E-01
DAV:  15    -0.920340772689E+03    0.67887E-03   -0.17217E-03  4512   0.453E-02    0.502E-02
DAV:  16    -0.920340918327E+03   -0.14564E-03   -0.80346E-04  4624   0.309E-02    0.419E-02
DAV:  17    -0.920340675858E+03    0.24247E-03   -0.39722E-04  4568   0.225E-02    0.177E-02
DAV:  18    -0.920340655131E+03    0.20728E-04   -0.10427E-04  4320   0.907E-03    0.897E-03
DAV:  19    -0.920340650979E+03    0.41514E-05   -0.21616E-05  3320   0.504E-03
   1 F= -.92034065E+03 E0= -.92028761E+03  d E =-.106087E+00
