Li                                      
           1
    22.732500   -0.000000    0.000000
    -0.000000   22.732500    0.000000
     0.000000    0.000000   22.732500
   Li
   500
Direct configuration=     1
   0.00262933  0.99729842  0.00520930
   0.98438223  0.10138979  0.09040105
   0.99712638  0.19050710  0.19545574
   0.01158991  0.30051728  0.30562912
   0.00946120  0.40696225  0.40690862
   0.99568212  0.51412662  0.49755262
   0.01766672  0.59045453  0.61997527
   0.01346724  0.69680791  0.69796991
   0.02645646  0.78418787  0.80630060
   0.01469276  0.89102528  0.90912603
   0.10928829  0.01402267  0.09970525
   0.09382008  0.07939757  0.19706470
   0.10390922  0.18645283  0.30467971
   0.09940317  0.30379227  0.39771605
   0.09870825  0.40473896  0.50560161
   0.08760535  0.49548177  0.61363167
   0.11031192  0.60007506  0.70923329
   0.09668607  0.70188593  0.80522536
   0.12521579  0.78325191  0.92567385
   0.11458961  0.91139680  0.00569504
   0.19349645  0.01368772  0.21082018
   0.19540720  0.09350451  0.29866141
   0.19497731  0.20681099  0.39678433
   0.19288348  0.30815022  0.49568815
   0.19932612  0.39776873  0.59660107
   0.19994627  0.49826570  0.71813967
   0.20834145  0.62229272  0.81265884
   0.22042991  0.70515097  0.90896248
   0.22072045  0.81235873  0.02130810
   0.20288586  0.90563569  0.11264158
   0.30507758  0.00410607  0.29972198
   0.29393657  0.09358293  0.40302682
   0.29939672  0.21337523  0.48829706
   0.28457350  0.28637574  0.59455431
   0.29839581  0.38805446  0.70602247
   0.31291655  0.49760318  0.80011920
   0.30441764  0.58520885  0.89548839
   0.30956798  0.68737433  0.00229968
   0.30831557  0.78557607  0.11717090
   0.30660853  0.90619008  0.20866232
   0.38902596  0.01145118  0.40345762
   0.39487672  0.10009278  0.49172157
   0.39971336  0.19251567  0.58731880
   0.38904995  0.30689250  0.70007527
   0.40346541  0.40718851  0.81069335
   0.41038546  0.49032442  0.88512803
   0.39571322  0.58582223  0.00145482
   0.41100276  0.68634010  0.10793952
   0.38812914  0.79754372  0.21085693
   0.39626052  0.90507156  0.30306047
   0.49548019  0.99898028  0.49090436
   0.50151484  0.08588176  0.60089175
   0.49395386  0.19631832  0.69657924
   0.50303378  0.30943486  0.80317124
   0.51039349  0.39970461  0.90689999
   0.49923945  0.48691508  0.98619419
   0.48649806  0.59049512  0.09302352
   0.49365747  0.69762527  0.20068361
   0.50956515  0.80025497  0.30214107
   0.50953477  0.89098734  0.40477594
   0.60052973  0.00382615  0.59628897
   0.58582000  0.10076971  0.68885044
   0.59607416  0.18672799  0.80363749
   0.61144460  0.29214403  0.90035247
   0.60256100  0.38094119  0.00013559
   0.59981975  0.49008281  0.09701478
   0.58873862  0.59205093  0.19819657
   0.61543301  0.69705649  0.31295070
   0.60883357  0.78825530  0.40570100
   0.60176348  0.89881310  0.50036967
   0.71053524  0.99443724  0.68903275
   0.69977094  0.12074709  0.80145623
   0.70044135  0.20298705  0.91256714
   0.70226689  0.30152981  0.99670004
   0.69628058  0.38366925  0.12249317
   0.70644761  0.50059535  0.19438324
   0.72193782  0.59826522  0.30632737
   0.70142426  0.68566521  0.39861637
   0.70322279  0.79278603  0.51002675
   0.70239668  0.90740456  0.58880697
   0.80114764  0.01151743  0.79610580
   0.78792690  0.09948632  0.90507630
   0.79299890  0.20222252  0.00920893
   0.81788098  0.30422964  0.10507725
   0.81137055  0.39661055  0.21260352
   0.79284011  0.49814820  0.29499779
   0.80964136  0.60398461  0.39548427
   0.80575287  0.70035204  0.48978393
   0.80781984  0.80429430  0.60396619
   0.80887210  0.90282473  0.69987478
   0.90499088  0.00223963  0.91021046
   0.89154212  0.09871160  0.99635778
   0.89268476  0.18860549  0.09576280
   0.90790705  0.29212521  0.20349053
   0.89384634  0.38884476  0.29608776
   0.90100378  0.51404261  0.38621239
   0.90421416  0.60212794  0.49974741
   0.89506765  0.69806770  0.59720582
   0.90298182  0.82283909  0.71225718
   0.91277559  0.90643661  0.81330597
   0.10693151  0.11716294  0.00238223
   0.09944862  0.18777374  0.10770339
   0.09218368  0.29843095  0.18975085
   0.10366684  0.38851490  0.29457827
   0.11064202  0.50934275  0.41119330
   0.11098251  0.59175741  0.51264653
   0.09495071  0.70118354  0.60837435
   0.11420204  0.78874365  0.69239542
   0.10838165  0.89966234  0.81162498
   0.09255096  0.01818461  0.90953280
   0.21575444  0.11159831  0.11408681
   0.19005498  0.20131923  0.20150584
   0.18480914  0.29590383  0.28459353
   0.18807706  0.40404751  0.39453795
   0.19403498  0.48200430  0.50078275
   0.17320283  0.58181727  0.60519294
   0.20115392  0.69830294  0.68256197
   0.20999018  0.80375771  0.79261425
   0.19480698  0.90379622  0.89113778
   0.20361735  0.99751575  0.00443558
   0.30462386  0.11790634  0.21738342
   0.29731835  0.19851404  0.30283455
   0.29344352  0.30848754  0.40426805
   0.29562864  0.40269435  0.49367183
   0.29435521  0.51315085  0.60574311
   0.28071480  0.58888531  0.71654204
   0.31075037  0.71237315  0.79408360
   0.30903287  0.82168846  0.92209273
   0.29125090  0.91048486  0.01299782
   0.29835764  0.01017597  0.10376597
   0.41341351  0.10874998  0.30397499
   0.40206626  0.19529925  0.40246231
   0.40658556  0.30246398  0.50381041
   0.39879948  0.40624603  0.61348363
   0.39790128  0.49668558  0.69793592
   0.39944359  0.60772973  0.79108265
   0.39758911  0.70133115  0.89748098
   0.40300474  0.79277703  0.99657876
   0.40123876  0.90158201  0.10753372
   0.40180034  0.00847968  0.19830264
   0.51598791  0.10065258  0.41245848
   0.50831434  0.20185790  0.50452486
   0.50836193  0.29101078  0.60142203
   0.50774933  0.40310030  0.70049489
   0.51396498  0.50742188  0.80162099
   0.49658033  0.60272271  0.89798221
   0.49676059  0.68552145  0.99512503
   0.48558884  0.79871977  0.09967073
   0.51230583  0.89840140  0.20804824
   0.49353198  0.00969300  0.30277964
   0.60115823  0.08479397  0.49503232
   0.58897895  0.20293218  0.60454128
   0.59882737  0.30225493  0.70759767
   0.61297253  0.39760615  0.79746158
   0.61089882  0.48580660  0.92026397
   0.60145488  0.59316157  0.99478540
   0.60274474  0.70683946  0.09575155
   0.58473640  0.78451491  0.19145196
   0.61231214  0.90491946  0.28130589
   0.59942253  0.98805654  0.37800167
   0.69011947  0.09288810  0.59057825
   0.69638922  0.19642352  0.69351276
   0.70004948  0.29887668  0.80401885
   0.72143528  0.39071715  0.90820515
   0.69682828  0.49329780  0.00890135
   0.70762783  0.59982196  0.09866226
   0.69106157  0.68654732  0.19925421
   0.69724739  0.79658970  0.29110800
   0.69060052  0.88317410  0.39599137
   0.70229453  0.99616556  0.48069811
   0.79319285  0.10537024  0.70074336
   0.79734996  0.19908426  0.80186327
   0.80428230  0.29376468  0.91109080
   0.80708066  0.39580624  0.01332937
   0.79728067  0.50664515  0.10754023
   0.80243425  0.58592221  0.20928063
   0.82065526  0.68805868  0.29468514
   0.79537362  0.79534262  0.38998864
   0.79289449  0.91176559  0.48554908
   0.81219835  0.00324036  0.60068121
   0.90969574  0.09662658  0.80267905
   0.89753883  0.18803378  0.89520926
   0.91920917  0.30623140  0.99845143
   0.90311873  0.39415379  0.10806634
   0.89907426  0.50383766  0.20910907
   0.89445119  0.59792295  0.28858258
   0.91460970  0.70033049  0.38902151
   0.89992458  0.80775158  0.49192818
   0.90354664  0.90853283  0.59564444
   0.91443452  0.00175621  0.69166846
   0.99807504  0.09566576  0.91044166
   0.00600157  0.20971370  0.00876992
   0.01303796  0.29879851  0.09892768
   0.00018669  0.40433002  0.20663562
   0.00735599  0.48852562  0.30693373
   0.01123886  0.60317126  0.39708536
   0.99540561  0.68747957  0.51791449
   0.98992099  0.80021642  0.59845160
   0.01535564  0.90375006  0.70329013
   0.00105606  0.99342902  0.80816977
   0.21670577  0.21099078  0.01339118
   0.20785903  0.30439726  0.10819379
   0.20196669  0.39664654  0.18340859
   0.20492908  0.49852437  0.30807024
   0.19896570  0.59460831  0.41155096
   0.19587326  0.69514582  0.50772905
   0.21265798  0.80388070  0.60755870
   0.18912962  0.90799457  0.70671432
   0.18083450  0.00150114  0.79632898
   0.18723168  0.11227285  0.90526665
   0.30743398  0.20720109  0.11267951
   0.29142236  0.29667318  0.19704589
   0.30309166  0.39568535  0.29644870
   0.27849104  0.50701176  0.40453916
   0.28353559  0.60480721  0.49818325
   0.30066197  0.69012535  0.59971077
   0.31600538  0.80007570  0.69737717
   0.29426404  0.90353782  0.79506420
   0.29906398  0.00374880  0.90688036
   0.29453033  0.10461792  0.00072057
   0.41432462  0.20663367  0.21484112
   0.39012853  0.28672192  0.29942581
   0.40068042  0.39322540  0.39759935
   0.38555050  0.50944872  0.50387797
   0.39125237  0.58630316  0.59547267
   0.39516453  0.68857628  0.69199474
   0.40881940  0.79802826  0.79095511
   0.39968755  0.90938220  0.89055232
   0.40050093  0.99555544  0.00736159
   0.39463678  0.10257008  0.11187130
   0.50101947  0.20386170  0.31279780
   0.51824361  0.30640460  0.40052728
   0.50207080  0.41771742  0.50136922
   0.49434127  0.49966373  0.59838743
   0.48176920  0.59777259  0.71016740
   0.50290677  0.68513027  0.80767780
   0.50563241  0.80133447  0.89968709
   0.50800048  0.89794593  0.00018130
   0.50635232  0.99519421  0.09915991
   0.50923245  0.10222651  0.19709372
   0.58704041  0.20284651  0.40153565
   0.60581480  0.30839012  0.50302404
   0.59740412  0.39977509  0.60624933
   0.61295670  0.51075211  0.69385623
   0.61090040  0.59029760  0.80419346
   0.61616138  0.69550505  0.90125880
   0.59705720  0.81375016  0.00411212
   0.59391744  0.89858729  0.09398819
   0.60121429  0.00008940  0.18566527
   0.59901853  0.08895292  0.30740836
   0.67667331  0.21465423  0.49119248
   0.69715602  0.30788635  0.60061582
   0.71414236  0.40276437  0.68868985
   0.70812049  0.48647603  0.80456821
   0.69144252  0.59968143  0.90508972
   0.68540498  0.71121267  0.00788655
   0.70268104  0.79583291  0.08380237
   0.70164186  0.89525120  0.17976387
   0.69039830  0.00425899  0.28332379
   0.68262877  0.09869383  0.39517873
   0.78725823  0.21952884  0.59233905
   0.79486983  0.30620520  0.68695495
   0.81639084  0.39464850  0.79859163
   0.78753509  0.48569010  0.89802029
   0.78347373  0.60357703  0.99019210
   0.79870299  0.69622218  0.09573107
   0.80322380  0.78097392  0.21401626
   0.80401515  0.91302200  0.28478049
   0.79580067  0.99998598  0.36842407
   0.78236484  0.09576135  0.48772497
   0.88992640  0.19851745  0.70397283
   0.90580128  0.29325830  0.80578471
   0.91140072  0.38765539  0.89414028
   0.88897593  0.49026196  0.00116626
   0.90170424  0.60964466  0.08317174
   0.90283198  0.68678653  0.18381587
   0.91975425  0.80926654  0.29795431
   0.89844189  0.89444679  0.40010043
   0.87992944  0.00280270  0.49497755
   0.90031341  0.11127801  0.59373398
   0.99576315  0.19275577  0.80561460
   0.99462977  0.29907899  0.88633540
   0.99817357  0.38799870  0.99171521
   0.00132658  0.51798723  0.10801784
   0.99373966  0.60127595  0.19903907
   0.01205219  0.70483936  0.29001205
   0.00675228  0.80530633  0.41154758
   0.99481126  0.90687621  0.49982446
   0.99124547  0.99500888  0.58965667
   0.99817312  0.09788757  0.68682210
   0.10061654  0.20619401  0.90290689
   0.10231347  0.30013934  0.99872072
   0.09886126  0.41546980  0.08469498
   0.10885793  0.51316635  0.19971387
   0.10309394  0.59169001  0.29670590
   0.10166059  0.70019817  0.40759997
   0.09956599  0.79564877  0.51374823
   0.10745319  0.90312326  0.59034616
   0.08471540  0.00597557  0.70234521
   0.08626649  0.12547386  0.79347897
   0.30193884  0.31747043  0.00927238
   0.30863569  0.41749027  0.11054812
   0.29647138  0.51345170  0.19554218
   0.30957011  0.59257974  0.29090688
   0.29097065  0.69466857  0.39516987
   0.30320046  0.80054348  0.50032667
   0.29948941  0.88407581  0.58843225
   0.27607036  0.99866190  0.67821928
   0.28931691  0.08904127  0.80347650
   0.29655752  0.20204011  0.89691130
   0.39504896  0.31094165  0.10648125
   0.39254571  0.41229832  0.19294809
   0.38024641  0.50181088  0.30208211
   0.37559463  0.61427211  0.41142950
   0.39935321  0.70417407  0.50585764
   0.41592470  0.80105091  0.59803540
   0.39293776  0.90826226  0.70886301
   0.40028732  0.00815642  0.80208973
   0.39209251  0.09047139  0.90499153
   0.39572887  0.21289573  0.01283386
   0.49755421  0.28893940  0.20058985
   0.49893143  0.41433636  0.29914455
   0.48634903  0.49483869  0.41008437
   0.49794766  0.58499115  0.49491302
   0.48994281  0.69152105  0.59375448
   0.50470976  0.78861016  0.68597719
   0.50040450  0.90094897  0.80621281
   0.49506344  0.00844383  0.90203628
   0.50297869  0.10644194  0.00189754
   0.50835009  0.20996827  0.10189347
   0.58919497  0.31605865  0.30399706
   0.59782555  0.42129052  0.40540181
   0.60231706  0.51385805  0.50675514
   0.59501057  0.58372407  0.60728511
   0.60584169  0.67810904  0.70116651
   0.60516813  0.80029811  0.80684104
   0.60800823  0.89608405  0.89659157
   0.60178667  0.99700444  0.99729016
   0.60230897  0.09541079  0.08780933
   0.57927700  0.19475997  0.22311417
   0.67805947  0.30790466  0.39710559
   0.70760627  0.42068259  0.51691825
   0.70482220  0.51529967  0.60387571
   0.71352674  0.59310407  0.70389877
   0.69989762  0.69506398  0.80196713
   0.69235212  0.79176637  0.90630313
   0.69878200  0.88937803  0.99117093
   0.69613689  0.99860252  0.09320980
   0.68605327  0.10349017  0.20624571
   0.67915611  0.20685750  0.29654907
   0.78834078  0.30672442  0.49936907
   0.80844015  0.40694053  0.61388183
   0.80762417  0.51034793  0.70789166
   0.80670189  0.59982935  0.80825867
   0.80677178  0.70874079  0.89346616
   0.80479743  0.78352612  0.99349127
   0.79575135  0.88084174  0.10122448
   0.79024373  0.99298834  0.19276024
   0.78791255  0.11007556  0.29343293
   0.78863380  0.18134260  0.38944692
   0.90533851  0.30321232  0.59381731
   0.89735853  0.39252828  0.70839349
   0.90554537  0.49100127  0.80556974
   0.90599535  0.59612167  0.89248380
   0.88649810  0.69871940  0.98382414
   0.89736966  0.78679753  0.09924111
   0.90180571  0.90382756  0.20898540
   0.91183338  0.00460686  0.28832849
   0.88384976  0.09575057  0.40636966
   0.88541226  0.20586520  0.50418939
   0.00534051  0.30680572  0.69797397
   0.01637107  0.39336563  0.80141558
   0.99802835  0.50281982  0.89598964
   0.99821401  0.60631405  0.98276989
   0.02197861  0.70051756  0.09628926
   0.00187460  0.81003075  0.19951513
   0.01516243  0.91225723  0.30725700
   0.99833906  0.01027255  0.40704789
   0.98963273  0.09626083  0.49578516
   0.00738309  0.20432549  0.59245079
   0.10316633  0.29203141  0.80858839
   0.09479542  0.40301606  0.91613901
   0.09810450  0.51167737  0.98235187
   0.09695887  0.59269921  0.08567142
   0.10265061  0.70379910  0.19789152
   0.10520276  0.80886989  0.30470296
   0.10299202  0.89318026  0.39813267
   0.08280323  0.99758311  0.48169963
   0.09520556  0.09552019  0.59107999
   0.10203341  0.21115039  0.69905574
   0.20383123  0.29886962  0.91513812
   0.19604052  0.41932221  0.00115240
   0.21212737  0.51498766  0.10454496
   0.18889375  0.60431907  0.20628610
   0.20550530  0.69214098  0.30146655
   0.20813383  0.79523778  0.40240277
   0.19525416  0.89708351  0.49497404
   0.19748873  0.00243537  0.58893904
   0.19115358  0.09931956  0.68339995
   0.18738396  0.20884967  0.80951242
   0.39485015  0.40034606  0.99457704
   0.40627393  0.50125332  0.09242943
   0.40324531  0.58737678  0.19382493
   0.39563595  0.68984599  0.29134646
   0.40361629  0.80408807  0.40132217
   0.41307801  0.90112653  0.49669187
   0.40219483  0.99907860  0.59718009
   0.39908513  0.08590000  0.70258299
   0.39327264  0.20072193  0.79349127
   0.39189611  0.30767646  0.90198829
   0.50360030  0.39227525  0.08536329
   0.49447298  0.49886027  0.20113997
   0.48038436  0.59126465  0.31055129
   0.49240240  0.69051219  0.40987395
   0.50629402  0.78721506  0.49646145
   0.49082459  0.89949921  0.59160824
   0.48792967  0.99315906  0.69811286
   0.48800280  0.08568952  0.79477069
   0.48255680  0.20903132  0.89470454
   0.48064881  0.29105568  0.01120436
   0.60304295  0.40569948  0.20042731
   0.60373396  0.49749717  0.29544347
   0.59095834  0.59825220  0.38770229
   0.60282917  0.67995521  0.49881768
   0.59404615  0.80181800  0.58649921
   0.59947890  0.90366936  0.69594288
   0.60295733  0.00734412  0.81128265
   0.58608032  0.10970445  0.90763155
   0.60247745  0.20674183  0.00208285
   0.59457634  0.28930508  0.10068449
   0.69358898  0.40409182  0.29853047
   0.69880430  0.50783764  0.40396351
   0.70541946  0.59861754  0.49412359
   0.70985376  0.69010016  0.59450925
   0.69997817  0.80605887  0.69173453
   0.69701982  0.90919882  0.78808672
   0.69684821  0.02401195  0.90695099
   0.70140906  0.10656543  0.01196224
   0.70345876  0.21953782  0.10557668
   0.68432267  0.29883477  0.20832601
   0.80728513  0.41510583  0.37223723
   0.80698413  0.50058105  0.48673917
   0.80053181  0.60711055  0.59237893
   0.79103761  0.71312766  0.69987475
   0.79028894  0.80273982  0.79498160
   0.79205652  0.91243633  0.89214554
   0.80459130  0.99634113  0.01379281
   0.79978291  0.11213079  0.10721110
   0.79929035  0.19882104  0.20114606
   0.79581764  0.28062689  0.30456380
   0.88865404  0.41972234  0.49377030
   0.90944382  0.50871987  0.59478037
   0.89614800  0.59184826  0.70836563
   0.89541401  0.69729967  0.80422889
   0.89170779  0.82354821  0.88301298
   0.88839157  0.89803191  0.00163773
   0.89621369  0.99862901  0.10495790
   0.90625338  0.10042953  0.20002437
   0.90185937  0.18870240  0.30894988
   0.90228401  0.30502472  0.40302298
   0.98737162  0.38970024  0.59903304
   0.99556953  0.49112552  0.71126702
   0.00413221  0.60670647  0.80363802
   0.00376807  0.70833881  0.88902556
   0.00216431  0.79844735  0.98373038
   0.01167280  0.89948445  0.09399418
   0.02483048  0.00171349  0.21246754
   0.00365408  0.09410362  0.31362023
   0.00356783  0.19935821  0.39193454
   0.99927559  0.29801212  0.49163411
   0.09115391  0.39552888  0.70780450
   0.09752691  0.50504447  0.80689749
   0.09949212  0.59966474  0.90166355
   0.10934958  0.70319570  0.98859072
   0.10428228  0.78306819  0.08124939
   0.11281893  0.90625037  0.20274355
   0.10801337  0.98958771  0.30014324
   0.08848861  0.10928479  0.39586317
   0.09206332  0.17904559  0.48502996
   0.11022579  0.31130129  0.58776718
   0.19614710  0.38919980  0.80492829
   0.20273892  0.49907807  0.90393958
   0.19842859  0.59933844  0.99614053
   0.19293476  0.68524688  0.09836053
   0.20830255  0.79543552  0.18724057
   0.20535199  0.89794470  0.30429486
   0.19663913  0.00352930  0.39728916
   0.19488973  0.09948466  0.49518666
   0.20021297  0.19673093  0.59800145
   0.20191254  0.29452097  0.69849551
   0.29268359  0.40336679  0.90008821
   0.29930279  0.50235770  0.98412424
   0.30129183  0.60954213  0.09296578
   0.30305593  0.68581117  0.20804969
   0.29768651  0.78739247  0.30488682
   0.31626274  0.90738060  0.38485804
   0.29735783  0.99142457  0.49270365
   0.30785250  0.11225750  0.58196089
   0.30749740  0.18909296  0.70188882
   0.28683444  0.30126175  0.81627959
