 432 432   0   0
  0.1915683E+02  0.2022720E-08  0.2022720E-08  0.2022720E-08  0.5000000E-15
  1.000000000000000E-004
  CAR 
 Li                                      
      3.77902367     -3.35810143  301      0.55070249      1.00000000
     -3.358  0.0000E+00  0.0000E+00
     -3.334  0.0000E+00  0.0000E+00
     -3.311  0.0000E+00  0.0000E+00
     -3.287  0.0000E+00  0.0000E+00
     -3.263  0.0000E+00  0.0000E+00
     -3.239  0.0000E+00  0.0000E+00
     -3.215  0.0000E+00  0.0000E+00
     -3.192  0.3887E-11  0.9248E-13
     -3.168  0.1032E-07  0.2456E-09
     -3.144  0.8001E-05  0.1906E-06
     -3.120  0.1830E-02  0.4373E-04
     -3.096  0.1252E+00  0.3023E-02
     -3.073  0.2613E+01  0.6520E-01
     -3.049  0.1702E+02  0.4700E+00
     -3.025  0.3531E+02  0.1310E+01
     -3.001  0.2361E+02  0.1872E+01
     -2.977  0.5303E+01  0.1998E+01
     -2.954  0.4898E+01  0.2114E+01
     -2.930  0.2872E+02  0.2798E+01
     -2.906  0.7149E+02  0.4498E+01
     -2.882  0.8238E+02  0.6458E+01
     -2.859  0.4890E+02  0.7622E+01
     -2.835  0.1505E+02  0.7980E+01
     -2.811  0.1188E+02  0.8262E+01
     -2.787  0.4363E+02  0.9300E+01
     -2.763  0.8175E+02  0.1125E+02
     -2.740  0.7541E+02  0.1304E+02
     -2.716  0.3368E+02  0.1384E+02
     -2.692  0.9745E+01  0.1407E+02
     -2.668  0.2543E+02  0.1468E+02
     -2.644  0.7648E+02  0.1650E+02
     -2.621  0.1109E+03  0.1913E+02
     -2.597  0.8331E+02  0.2112E+02
     -2.573  0.3296E+02  0.2190E+02
     -2.549  0.2179E+02  0.2242E+02
     -2.525  0.6941E+02  0.2407E+02
     -2.502  0.1318E+03  0.2721E+02
     -2.478  0.1421E+03  0.3059E+02
     -2.454  0.9898E+02  0.3294E+02
     -2.430  0.3856E+02  0.3386E+02
     -2.406  0.1448E+02  0.3420E+02
     -2.383  0.4482E+02  0.3527E+02
     -2.359  0.9107E+02  0.3743E+02
     -2.335  0.7690E+02  0.3926E+02
     -2.311  0.2759E+02  0.3992E+02
     -2.288  0.1201E+02  0.4021E+02
     -2.264  0.4760E+02  0.4134E+02
     -2.240  0.1156E+03  0.4409E+02
     -2.216  0.1495E+03  0.4765E+02
     -2.192  0.1190E+03  0.5048E+02
     -2.169  0.5916E+02  0.5188E+02
     -2.145  0.4997E+02  0.5307E+02
     -2.121  0.1108E+03  0.5571E+02
     -2.097  0.1742E+03  0.5985E+02
     -2.073  0.1903E+03  0.6438E+02
     -2.050  0.1477E+03  0.6789E+02
     -2.026  0.7173E+02  0.6960E+02
     -2.002  0.2920E+02  0.7029E+02
     -1.978  0.4787E+02  0.7143E+02
     -1.954  0.7844E+02  0.7330E+02
     -1.931  0.7149E+02  0.7500E+02
     -1.907  0.3552E+02  0.7584E+02
     -1.883  0.2195E+02  0.7637E+02
     -1.859  0.6708E+02  0.7796E+02
     -1.836  0.1396E+03  0.8128E+02
     -1.812  0.1693E+03  0.8531E+02
     -1.788  0.1310E+03  0.8843E+02
     -1.764  0.6003E+02  0.8986E+02
     -1.740  0.4716E+02  0.9098E+02
     -1.717  0.1160E+03  0.9374E+02
     -1.693  0.1874E+03  0.9819E+02
     -1.669  0.1987E+03  0.1029E+03
     -1.645  0.1404E+03  0.1063E+03
     -1.621  0.6205E+02  0.1077E+03
     -1.598  0.3823E+02  0.1086E+03
     -1.574  0.8943E+02  0.1108E+03
     -1.550  0.1459E+03  0.1142E+03
     -1.526  0.1345E+03  0.1174E+03
     -1.502  0.8031E+02  0.1194E+03
     -1.479  0.5598E+02  0.1207E+03
     -1.455  0.1039E+03  0.1232E+03
     -1.431  0.1816E+03  0.1275E+03
     -1.407  0.2005E+03  0.1323E+03
     -1.383  0.1509E+03  0.1358E+03
     -1.360  0.8250E+02  0.1378E+03
     -1.336  0.7143E+02  0.1395E+03
     -1.312  0.1338E+03  0.1427E+03
     -1.288  0.1843E+03  0.1471E+03
     -1.265  0.1755E+03  0.1512E+03
     -1.241  0.1281E+03  0.1543E+03
     -1.217  0.6708E+02  0.1559E+03
     -1.193  0.5780E+02  0.1573E+03
     -1.169  0.1081E+03  0.1598E+03
     -1.146  0.1383E+03  0.1631E+03
     -1.122  0.1184E+03  0.1659E+03
     -1.098  0.6563E+02  0.1675E+03
     -1.074  0.3496E+02  0.1683E+03
     -1.050  0.6971E+02  0.1700E+03
     -1.027  0.1272E+03  0.1730E+03
     -1.003  0.1357E+03  0.1763E+03
     -0.979  0.1095E+03  0.1789E+03
     -0.955  0.1046E+03  0.1813E+03
     -0.931  0.1663E+03  0.1853E+03
     -0.908  0.2386E+03  0.1910E+03
     -0.884  0.2660E+03  0.1973E+03
     -0.860  0.2426E+03  0.2031E+03
     -0.836  0.1807E+03  0.2074E+03
     -0.813  0.1254E+03  0.2104E+03
     -0.789  0.1321E+03  0.2135E+03
     -0.765  0.1770E+03  0.2177E+03
     -0.741  0.1886E+03  0.2222E+03
     -0.717  0.1454E+03  0.2257E+03
     -0.694  0.8041E+02  0.2276E+03
     -0.670  0.5204E+02  0.2288E+03
     -0.646  0.9368E+02  0.2310E+03
     -0.622  0.1501E+03  0.2346E+03
     -0.598  0.1615E+03  0.2385E+03
     -0.575  0.1215E+03  0.2413E+03
     -0.551  0.1033E+03  0.2438E+03
     -0.527  0.1571E+03  0.2475E+03
     -0.503  0.2082E+03  0.2525E+03
     -0.479  0.2173E+03  0.2577E+03
     -0.456  0.1929E+03  0.2622E+03
     -0.432  0.1445E+03  0.2657E+03
     -0.408  0.1154E+03  0.2684E+03
     -0.384  0.9218E+02  0.2706E+03
     -0.361  0.5302E+02  0.2719E+03
     -0.337  0.5175E+02  0.2731E+03
     -0.313  0.1070E+03  0.2757E+03
     -0.289  0.1605E+03  0.2795E+03
     -0.265  0.1912E+03  0.2840E+03
     -0.242  0.2039E+03  0.2889E+03
     -0.218  0.1991E+03  0.2936E+03
     -0.194  0.1903E+03  0.2981E+03
     -0.170  0.1865E+03  0.3026E+03
     -0.146  0.1841E+03  0.3070E+03
     -0.123  0.1938E+03  0.3116E+03
     -0.099  0.2186E+03  0.3168E+03
     -0.075  0.2240E+03  0.3221E+03
     -0.051  0.1975E+03  0.3268E+03
     -0.027  0.1521E+03  0.3304E+03
     -0.004  0.1186E+03  0.3332E+03
      0.020  0.1276E+03  0.3363E+03
      0.044  0.1520E+03  0.3399E+03
      0.068  0.1501E+03  0.3435E+03
      0.092  0.1585E+03  0.3472E+03
      0.115  0.1977E+03  0.3519E+03
      0.139  0.2213E+03  0.3572E+03
      0.163  0.2281E+03  0.3626E+03
      0.187  0.2305E+03  0.3681E+03
      0.210  0.2204E+03  0.3734E+03
      0.234  0.1882E+03  0.3778E+03
      0.258  0.1704E+03  0.3819E+03
      0.282  0.1807E+03  0.3862E+03
      0.306  0.1797E+03  0.3905E+03
      0.329  0.1612E+03  0.3943E+03
      0.353  0.1584E+03  0.3981E+03
      0.377  0.1672E+03  0.4020E+03
      0.401  0.1552E+03  0.4057E+03
      0.425  0.1461E+03  0.4092E+03
      0.448  0.1586E+03  0.4130E+03
      0.472  0.1819E+03  0.4173E+03
      0.496  0.1920E+03  0.4219E+03
      0.520  0.1863E+03  0.4263E+03
      0.544  0.1826E+03  0.4307E+03
      0.567  0.1921E+03  0.4352E+03
      0.591  0.1960E+03  0.4399E+03
      0.615  0.1908E+03  0.4444E+03
      0.639  0.1892E+03  0.4489E+03
      0.662  0.1903E+03  0.4535E+03
      0.686  0.1855E+03  0.4579E+03
      0.710  0.1782E+03  0.4621E+03
      0.734  0.1733E+03  0.4662E+03
      0.758  0.1748E+03  0.4704E+03
      0.781  0.1924E+03  0.4750E+03
      0.805  0.2137E+03  0.4800E+03
      0.829  0.2237E+03  0.4854E+03
      0.853  0.2251E+03  0.4907E+03
      0.877  0.2289E+03  0.4962E+03
      0.900  0.2279E+03  0.5016E+03
      0.924  0.2224E+03  0.5069E+03
      0.948  0.2259E+03  0.5123E+03
      0.972  0.2285E+03  0.5177E+03
      0.996  0.2272E+03  0.5231E+03
      1.019  0.2254E+03  0.5285E+03
      1.043  0.2232E+03  0.5338E+03
      1.067  0.2204E+03  0.5390E+03
      1.091  0.2183E+03  0.5442E+03
      1.114  0.2215E+03  0.5495E+03
      1.138  0.2107E+03  0.5545E+03
      1.162  0.2031E+03  0.5593E+03
      1.186  0.2027E+03  0.5641E+03
      1.210  0.2012E+03  0.5689E+03
      1.233  0.2123E+03  0.5740E+03
      1.257  0.2186E+03  0.5792E+03
      1.281  0.2071E+03  0.5841E+03
      1.305  0.1969E+03  0.5888E+03
      1.329  0.1984E+03  0.5935E+03
      1.352  0.2021E+03  0.5983E+03
      1.376  0.1952E+03  0.6030E+03
      1.400  0.1877E+03  0.6074E+03
      1.424  0.1900E+03  0.6120E+03
      1.448  0.1860E+03  0.6164E+03
      1.471  0.1762E+03  0.6206E+03
      1.495  0.1742E+03  0.6247E+03
      1.519  0.1695E+03  0.6287E+03
      1.543  0.1745E+03  0.6329E+03
      1.567  0.1918E+03  0.6375E+03
      1.590  0.1803E+03  0.6417E+03
      1.614  0.1642E+03  0.6457E+03
      1.638  0.1622E+03  0.6495E+03
      1.662  0.1504E+03  0.6531E+03
      1.685  0.1386E+03  0.6564E+03
      1.709  0.1327E+03  0.6595E+03
      1.733  0.1311E+03  0.6627E+03
      1.757  0.1349E+03  0.6659E+03
      1.781  0.1484E+03  0.6694E+03
      1.804  0.1639E+03  0.6733E+03
      1.828  0.1692E+03  0.6773E+03
      1.852  0.1677E+03  0.6813E+03
      1.876  0.1708E+03  0.6854E+03
      1.900  0.1696E+03  0.6894E+03
      1.923  0.1641E+03  0.6933E+03
      1.947  0.1646E+03  0.6972E+03
      1.971  0.1696E+03  0.7013E+03
      1.995  0.1801E+03  0.7056E+03
      2.019  0.1841E+03  0.7099E+03
      2.042  0.1731E+03  0.7141E+03
      2.066  0.1653E+03  0.7180E+03
      2.090  0.1661E+03  0.7219E+03
      2.114  0.1664E+03  0.7259E+03
      2.137  0.1663E+03  0.7299E+03
      2.161  0.1743E+03  0.7340E+03
      2.185  0.1750E+03  0.7382E+03
      2.209  0.1728E+03  0.7423E+03
      2.233  0.1631E+03  0.7462E+03
      2.256  0.1537E+03  0.7498E+03
      2.280  0.1521E+03  0.7534E+03
      2.304  0.1422E+03  0.7568E+03
      2.328  0.1276E+03  0.7598E+03
      2.352  0.1234E+03  0.7628E+03
      2.375  0.1229E+03  0.7657E+03
      2.399  0.1234E+03  0.7686E+03
      2.423  0.1327E+03  0.7718E+03
      2.447  0.1302E+03  0.7749E+03
      2.471  0.1239E+03  0.7778E+03
      2.494  0.1249E+03  0.7808E+03
      2.518  0.1125E+03  0.7835E+03
      2.542  0.1049E+03  0.7860E+03
      2.566  0.1069E+03  0.7885E+03
      2.590  0.9820E+02  0.7909E+03
      2.613  0.8396E+02  0.7929E+03
      2.637  0.6993E+02  0.7945E+03
      2.661  0.4443E+02  0.7956E+03
      2.685  0.2075E+02  0.7961E+03
      2.708  0.2266E+02  0.7966E+03
      2.732  0.4750E+02  0.7978E+03
      2.756  0.7059E+02  0.7994E+03
      2.780  0.6994E+02  0.8011E+03
      2.804  0.5463E+02  0.8024E+03
      2.827  0.5108E+02  0.8036E+03
      2.851  0.6425E+02  0.8051E+03
      2.875  0.8361E+02  0.8071E+03
      2.899  0.9022E+02  0.8093E+03
      2.923  0.9168E+02  0.8115E+03
      2.946  0.9907E+02  0.8138E+03
      2.970  0.1041E+03  0.8163E+03
      2.994  0.1077E+03  0.8189E+03
      3.018  0.1162E+03  0.8216E+03
      3.042  0.1308E+03  0.8247E+03
      3.065  0.1312E+03  0.8278E+03
      3.089  0.1177E+03  0.8306E+03
      3.113  0.1079E+03  0.8332E+03
      3.137  0.1098E+03  0.8358E+03
      3.160  0.1176E+03  0.8386E+03
      3.184  0.1151E+03  0.8414E+03
      3.208  0.1066E+03  0.8439E+03
      3.232  0.9749E+02  0.8462E+03
      3.256  0.8381E+02  0.8482E+03
      3.279  0.6746E+02  0.8498E+03
      3.303  0.7050E+02  0.8515E+03
      3.327  0.8557E+02  0.8535E+03
      3.351  0.9732E+02  0.8558E+03
      3.375  0.1038E+03  0.8583E+03
      3.398  0.1036E+03  0.8608E+03
      3.422  0.9909E+02  0.8631E+03
      3.446  0.7391E+02  0.8649E+03
      3.470  0.3591E+02  0.8657E+03
      3.494  0.9480E+01  0.8660E+03
      3.517  0.1077E+01  0.8660E+03
      3.541  0.4409E-01  0.8660E+03
      3.565  0.5881E-03  0.8660E+03
      3.589  0.2430E-05  0.8660E+03
      3.612  0.3024E-08  0.8660E+03
      3.636  0.1113E-11  0.8660E+03
      3.660  0.0000E+00  0.8660E+03
      3.684  0.0000E+00  0.8660E+03
      3.708  0.0000E+00  0.8660E+03
      3.731  0.0000E+00  0.8660E+03
      3.755  0.0000E+00  0.8660E+03
      3.779  0.0000E+00  0.8660E+03
