       N       E                     dE             d eps       ncg     rms          rms(c)
DAV:   1    -0.206662478496E+03   -0.20666E+03   -0.10651E+05  3464   0.661E+02
DAV:   2    -0.744732568583E+03   -0.53807E+03   -0.49128E+03  3988   0.690E+01
DAV:   3    -0.782988838589E+03   -0.38256E+02   -0.34960E+02  4416   0.146E+01
DAV:   4    -0.784264020251E+03   -0.12752E+01   -0.12572E+01  4016   0.291E+00
DAV:   5    -0.784294190041E+03   -0.30170E-01   -0.30125E-01  4168   0.470E-01    0.102E+01
DAV:   6    -0.777768632111E+03    0.65256E+01   -0.13435E+01  4024   0.536E+00    0.758E+00
DAV:   7    -0.771837230505E+03    0.59314E+01   -0.10495E+01  4096   0.474E+00    0.486E+00
DAV:   8    -0.769063343763E+03    0.27739E+01   -0.52006E+00  3992   0.262E+00    0.242E+00
DAV:   9    -0.768760303962E+03    0.30304E+00   -0.28032E+00  3824   0.138E+00    0.134E+00
DAV:  10    -0.768785902797E+03   -0.25599E-01   -0.53451E-01  4088   0.850E-01    0.114E+00
DAV:  11    -0.768657580658E+03    0.12832E+00   -0.20118E-01  3976   0.537E-01    0.562E-01
DAV:  12    -0.768649735925E+03    0.78447E-02   -0.69240E-02  3816   0.230E-01    0.275E-01
DAV:  13    -0.768649575165E+03    0.16076E-03   -0.16831E-02  4080   0.156E-01    0.196E-01
DAV:  14    -0.768646479258E+03    0.30959E-02   -0.50195E-03  3968   0.977E-02    0.104E-01
DAV:  15    -0.768645886041E+03    0.59322E-03   -0.18154E-03  3904   0.466E-02    0.483E-02
DAV:  16    -0.768645939490E+03   -0.53449E-04   -0.65753E-04  4048   0.303E-02    0.360E-02
DAV:  17    -0.768645769092E+03    0.17040E-03   -0.31728E-04  3992   0.211E-02    0.143E-02
DAV:  18    -0.768645754649E+03    0.14443E-04   -0.83079E-05  3760   0.826E-03    0.761E-03
DAV:  19    -0.768645747815E+03    0.68337E-05   -0.14451E-05  2272   0.416E-03
   1 F= -.76864575E+03 E0= -.76860303E+03  d E =-.854317E-01
