Li                                      
           1
    20.227200    0.000000    0.000000
     0.000000   20.227200    0.000000
     0.000000    0.000000   20.227200
   Li
   432
Direct configuration=     1
   0.98549096  0.99662948  0.98954814
   0.91670824  0.08241303  0.07119623
   0.85086183  0.17567156  0.15304334
   0.75500827  0.25423905  0.24812176
   0.67745239  0.33604728  0.33679637
   0.57009031  0.41974840  0.40849009
   0.49911891  0.50384840  0.49441806
   0.42398866  0.61923218  0.58360594
   0.32077532  0.66765414  0.68939656
   0.24196936  0.73173716  0.77257762
   0.16844693  0.81801708  0.84843495
   0.08692050  0.90879318  0.93670462
   0.06419323  0.91354289  0.08323150
   0.96101393  0.99962101  0.15333589
   0.93731667  0.09409625  0.24208790
   0.83025053  0.16065066  0.31172062
   0.74329342  0.25189844  0.41431983
   0.66470135  0.33778816  0.51393462
   0.55588813  0.40559801  0.57086463
   0.49085304  0.49786097  0.65088298
   0.40479255  0.58125688  0.77035170
   0.33963055  0.68561582  0.84839390
   0.24134294  0.75115030  0.94429169
   0.15372210  0.83226051  0.02398085
   0.16402145  0.80656364  0.20385040
   0.06622382  0.92543745  0.24200992
   0.00606934  0.01222554  0.34079946
   0.90406466  0.09097249  0.41363358
   0.83939916  0.16612180  0.49218128
   0.74781168  0.24574726  0.57515748
   0.63952265  0.35309776  0.67036079
   0.56329237  0.41783992  0.76274193
   0.48444863  0.46906310  0.83061549
   0.41842458  0.59369484  0.92543792
   0.32599250  0.65888313  0.99961464
   0.25990080  0.78380215  0.05306634
   0.27091841  0.75727801  0.26523957
   0.17135735  0.84741174  0.33060927
   0.07975475  0.91400151  0.44259650
   0.00762241  0.02487376  0.52456468
   0.92675883  0.09829716  0.60344274
   0.83063355  0.20525523  0.67822350
   0.72668799  0.26480808  0.73877349
   0.65580680  0.36001192  0.82597556
   0.57580790  0.42777159  0.92908087
   0.48801766  0.50532481  0.01205064
   0.41384294  0.60129065  0.08374481
   0.33300682  0.67194031  0.15891084
   0.33289863  0.67475620  0.31431900
   0.27082162  0.77286673  0.39810894
   0.17885656  0.83763191  0.50303289
   0.05656434  0.91362687  0.58784406
   0.01206671  0.96507668  0.68528033
   0.91097345  0.06401737  0.73741599
   0.83657889  0.16058362  0.80434325
   0.74045758  0.27835716  0.91940292
   0.64138678  0.33671800  0.99140364
   0.55658957  0.40442790  0.08956727
   0.49258689  0.49832004  0.20266666
   0.38462277  0.60044883  0.25383069
   0.40093852  0.57702322  0.42500285
   0.33162410  0.69943795  0.50991115
   0.26970432  0.76060210  0.60871022
   0.18320359  0.85851575  0.65855227
   0.07337162  0.90119508  0.78606507
   0.99082278  0.96662997  0.82754149
   0.90189456  0.08850340  0.88710212
   0.84215723  0.18247686  0.98413029
   0.76401385  0.25864181  0.06884667
   0.67769225  0.33368453  0.15020987
   0.59178158  0.42220787  0.26083561
   0.49929647  0.52862882  0.30862924
   0.07899165  0.06807052  0.93351454
   0.98146110  0.17443780  0.96941218
   0.93338738  0.25852561  0.09784668
   0.83477890  0.34181739  0.17496540
   0.77464253  0.42366459  0.25588344
   0.65119301  0.49381245  0.35319779
   0.60099482  0.59709907  0.43675626
   0.48641923  0.68933214  0.50819960
   0.40336551  0.73795288  0.58794973
   0.34893481  0.83031613  0.69536034
   0.23613773  0.90613359  0.75473757
   0.18109657  0.97630199  0.84219506
   0.17573656  0.99812105  0.00858939
   0.05373918  0.08010427  0.09155656
   0.01758846  0.17979748  0.16611471
   0.91075843  0.23059241  0.27310307
   0.84207229  0.31713398  0.33079583
   0.76694876  0.41844673  0.42883848
   0.68089377  0.46357615  0.51247146
   0.60752922  0.57391547  0.57884704
   0.50409276  0.64901098  0.65630642
   0.42172105  0.74176022  0.74343485
   0.33720972  0.82821390  0.82332099
   0.25878380  0.92326684  0.94820585
   0.23884398  0.89170731  0.09346700
   0.15093038  0.98641308  0.14889484
   0.08856335  0.07365439  0.24102626
   0.00738594  0.14376492  0.32896372
   0.89941049  0.22206020  0.43125681
   0.85997839  0.31225722  0.50691390
   0.75397173  0.39837464  0.57535096
   0.64389176  0.48697890  0.66069298
   0.55237897  0.57645529  0.76998358
   0.48682576  0.66586017  0.83222819
   0.43244863  0.75241659  0.91249835
   0.36719917  0.85437367  0.01137414
   0.35810325  0.84312561  0.15978046
   0.24721505  0.93575539  0.24345533
   0.15169545  0.00487628  0.33401155
   0.07361531  0.07658240  0.41570867
   0.01578533  0.15694606  0.51012331
   0.91814874  0.24254204  0.57670515
   0.84287711  0.34738620  0.66227043
   0.76168233  0.43264191  0.73104107
   0.66306313  0.48785866  0.83594741
   0.56237922  0.57365973  0.91789417
   0.50032260  0.68319187  0.01741401
   0.42275397  0.75029752  0.07011400
   0.40292520  0.74444221  0.23236099
   0.35498806  0.87889318  0.33382974
   0.23058883  0.91465429  0.39167985
   0.14592858  0.01424045  0.53367512
   0.06832962  0.09918116  0.61217329
   0.99609524  0.18864561  0.69341478
   0.90642311  0.25415841  0.77682153
   0.83182380  0.34921246  0.81571970
   0.77362419  0.40876925  0.91742213
   0.66823576  0.48023949  0.01024518
   0.57846386  0.57958665  0.09430582
   0.49351377  0.66222692  0.17477599
   0.48748424  0.66749245  0.33924344
   0.42251029  0.74841660  0.41215695
   0.34655777  0.83956334  0.47416187
   0.27211508  0.90911158  0.57401439
   0.15601558  0.97263123  0.66768361
   0.08788251  0.08084136  0.72808841
   0.99865396  0.15435527  0.81515557
   0.90955244  0.25039099  0.90666888
   0.83991763  0.31407143  0.00937300
   0.76089731  0.38708708  0.07862064
   0.69194841  0.51906537  0.15421277
   0.61005332  0.59940381  0.26097708
   0.19284300  0.13313489  0.86566490
   0.10163815  0.21961775  0.88708930
   0.00548694  0.31258778  0.98684672
   0.93399601  0.39207870  0.09246274
   0.84109722  0.50224845  0.15094346
   0.75101049  0.58153155  0.26840363
   0.66996750  0.65815608  0.35930055
   0.57431026  0.75511487  0.45234759
   0.48259517  0.84326492  0.51977111
   0.39983458  0.93236785  0.62646527
   0.33035133  0.00573542  0.69430546
   0.26456560  0.05696176  0.75750487
   0.26567991  0.04759920  0.92775463
   0.16963017  0.14025041  0.00970722
   0.08359549  0.25418326  0.07078996
   0.01403198  0.30819887  0.19359531
   0.93378167  0.40507489  0.25279639
   0.84082646  0.51991457  0.33247730
   0.75765608  0.57470551  0.41722506
   0.68913113  0.66141651  0.51419603
   0.60212617  0.74723418  0.57570088
   0.50528278  0.81536637  0.66659097
   0.43716081  0.91053455  0.75833138
   0.35010185  0.99850435  0.82625612
   0.35010745  0.00181295  0.01842526
   0.23347474  0.04469744  0.09769840
   0.15619678  0.14549969  0.15722099
   0.09662578  0.23186405  0.25374437
   0.01306048  0.32769014  0.34309239
   0.93796621  0.41603719  0.42449983
   0.84450052  0.51175711  0.51648321
   0.72582766  0.56689351  0.59668608
   0.66743297  0.66885772  0.67081187
   0.58599116  0.74593163  0.74229176
   0.51210395  0.82903234  0.85230882
   0.46043264  0.91745174  0.91576301
   0.44629883  0.92639835  0.05822917
   0.37267432  0.00894465  0.15975067
   0.21421449  0.05321455  0.20862876
   0.15660481  0.14571443  0.35280854
   0.07661987  0.23457457  0.41823327
   0.01298666  0.32141501  0.49482359
   0.91839784  0.41059620  0.57927477
   0.82850389  0.51251571  0.64065041
   0.71634561  0.57105032  0.74056878
   0.66517078  0.66175654  0.82204314
   0.57811232  0.73283946  0.91923284
   0.54130817  0.83979632  0.01083282
   0.50133848  0.85706642  0.14011367
   0.43997257  0.92524447  0.25944712
   0.32084563  0.01401949  0.31233500
   0.24084750  0.08280335  0.43069961
   0.16493101  0.16306207  0.51537600
   0.08465050  0.26328884  0.61542907
   0.96059433  0.31771208  0.69016434
   0.91818091  0.41173992  0.76134791
   0.82700328  0.52153443  0.81485538
   0.74199979  0.58760621  0.92325998
   0.66844877  0.67289925  0.01544665
   0.58434370  0.74866811  0.11401140
   0.58876512  0.73042840  0.23884666
   0.50482149  0.81574999  0.31095533
   0.42482187  0.94466022  0.40754427
   0.33605505  0.98642626  0.49894008
   0.25205380  0.09150180  0.61240718
   0.19076756  0.17998996  0.66435033
   0.10826605  0.23988724  0.73862497
   0.03802189  0.33927928  0.82789566
   0.92574987  0.39476667  0.90277190
   0.85298371  0.50202894  0.01769742
   0.74297365  0.58391036  0.06453319
   0.68790247  0.65518195  0.18620099
   0.23602785  0.25703700  0.77841180
   0.16234572  0.34217865  0.84655981
   0.07305462  0.42975710  0.94297605
   0.99524153  0.51909718  0.01157744
   0.93420483  0.60894088  0.07765013
   0.84857392  0.66628375  0.17722900
   0.74540257  0.73484957  0.27397262
   0.67377931  0.80437619  0.35080307
   0.57584429  0.91713837  0.40915654
   0.47330949  0.00222925  0.52040747
   0.39719984  0.08547098  0.60652321
   0.32631161  0.18026853  0.70598606
   0.33920818  0.15359470  0.84105734
   0.24901841  0.25325847  0.91578312
   0.16396730  0.32883214  0.97880194
   0.08161779  0.41744366  0.06384408
   0.00339285  0.48755546  0.17511716
   0.92825818  0.58353414  0.25900285
   0.83891245  0.66174147  0.32982889
   0.75836987  0.74946139  0.42773267
   0.66637928  0.82092049  0.50963265
   0.56811695  0.93249020  0.56955792
   0.50660773  0.00545930  0.68410787
   0.45423671  0.10688613  0.75847988
   0.40856585  0.06803879  0.92468489
   0.31905772  0.16351770  0.00913626
   0.21439463  0.22819237  0.06306840
   0.16163277  0.34241878  0.14996921
   0.06554142  0.39204528  0.26600944
   0.04026229  0.48768727  0.33672427
   0.95815314  0.59377272  0.41113579
   0.83879340  0.63177075  0.51051545
   0.77490295  0.73604067  0.54822338
   0.67732964  0.82667846  0.64768600
   0.56382831  0.90074844  0.74534743
   0.52935450  0.98421388  0.82702314
   0.53401897  0.02395898  0.98031274
   0.43057263  0.11764841  0.07332142
   0.31314644  0.16657971  0.15466491
   0.21505756  0.23729626  0.24803364
   0.15075899  0.31818177  0.33785326
   0.11245345  0.41398450  0.40370785
   0.03631730  0.47388460  0.48405656
   0.96354171  0.58017893  0.56695757
   0.85409410  0.66800292  0.66099302
   0.77666682  0.75427879  0.72938297
   0.64480430  0.81671326  0.80771996
   0.61283089  0.90238895  0.90818970
   0.61343521  0.94108062  0.08020937
   0.49867667  0.01601456  0.16872765
   0.42026564  0.09384927  0.22753952
   0.31924023  0.13971343  0.31037818
   0.23942894  0.25805692  0.40809555
   0.14914214  0.31709806  0.50211165
   0.08833508  0.42752960  0.58344520
   0.99970073  0.49799670  0.67231942
   0.90723476  0.58520004  0.72501202
   0.82526111  0.64682450  0.82317000
   0.74519194  0.73521742  0.89328982
   0.68234008  0.81826057  0.99438816
   0.67664194  0.83757761  0.17734387
   0.56832689  0.92150394  0.23920910
   0.50965970  0.00443633  0.31047742
   0.42314062  0.08188163  0.40725576
   0.32485147  0.15309515  0.50091942
   0.25154865  0.26381042  0.61676932
   0.15222691  0.35739154  0.66686587
   0.07802012  0.43060231  0.74675113
   0.99911248  0.49298613  0.80616909
   0.90461139  0.57646096  0.90016817
   0.84365976  0.68995312  0.01511377
   0.77883425  0.74690430  0.12405545
   0.31231390  0.32277396  0.66154679
   0.23705890  0.43198429  0.73431235
   0.15450818  0.48510629  0.84515780
   0.06200402  0.59596316  0.92710218
   0.00795978  0.68939894  0.98522622
   0.92261038  0.74793942  0.10743970
   0.82663992  0.86352834  0.19420001
   0.72419190  0.92051589  0.22767137
   0.65863824  0.01069355  0.29749661
   0.59194021  0.06301074  0.42012299
   0.48989763  0.15766511  0.49493515
   0.39049026  0.23011250  0.59594887
   0.40787798  0.23140092  0.75038106
   0.33381645  0.32256393  0.84581620
   0.25631838  0.41026922  0.92092413
   0.17170033  0.50694990  0.00861276
   0.07789195  0.58930121  0.09870868
   0.98692525  0.68669858  0.17446604
   0.89841651  0.76978664  0.27404735
   0.81973346  0.88870576  0.32400580
   0.71994873  0.92643084  0.42549721
   0.67816993  0.03815771  0.50015033
   0.56801295  0.09864693  0.59213469
   0.49958824  0.17448924  0.66159772
   0.47734048  0.17584750  0.83332367
   0.40135094  0.25145527  0.94066319
   0.32648597  0.35116284  0.01685134
   0.23615666  0.44036783  0.08925403
   0.14858020  0.49711209  0.16647440
   0.08974263  0.58667136  0.24931514
   0.00806518  0.67335566  0.33030875
   0.86074238  0.75966541  0.39615457
   0.83174434  0.85614268  0.48707300
   0.76300843  0.92147351  0.55786706
   0.66730196  0.99597090  0.65605814
   0.58008197  0.10008945  0.76233448
   0.59014840  0.09163930  0.88664662
   0.49481384  0.16808549  0.98580938
   0.40398396  0.22447282  0.07342722
   0.31745453  0.31618012  0.15281612
   0.23471411  0.40643582  0.23891064
   0.16524683  0.47873766  0.34242296
   0.10536280  0.59686378  0.40974369
   0.01598583  0.69186500  0.47605396
   0.91395490  0.72731248  0.55160113
   0.82735523  0.81538143  0.64108117
   0.73710354  0.89507341  0.74346065
   0.67193560  0.01475739  0.80690171
   0.68390801  0.02307813  0.00367590
   0.58763926  0.12698151  0.06988173
   0.52064030  0.21449791  0.17465476
   0.39587930  0.22360835  0.24865073
   0.31682384  0.32198729  0.31374060
   0.25385858  0.39761851  0.39818342
   0.19046383  0.49367206  0.49008606
   0.07193017  0.59956042  0.55427187
   0.99852750  0.66293266  0.64546102
   0.93346218  0.74983200  0.75996536
   0.82862163  0.82367174  0.83597751
   0.74922549  0.92393345  0.90422293
   0.75231901  0.91865553  0.07210752
   0.67552563  0.03563545  0.15472505
   0.57655625  0.07882853  0.21953790
   0.51531277  0.17809760  0.33086801
   0.39336734  0.22823914  0.39057330
   0.34852114  0.31273877  0.47292864
   0.25452345  0.40495446  0.57925843
   0.18936028  0.50835094  0.64789714
   0.09001603  0.58149672  0.72131767
   0.98726767  0.65455423  0.82478053
   0.91287467  0.74145833  0.91181924
   0.82982036  0.82594524  0.00284499
   0.41539485  0.39884067  0.56669974
   0.36078362  0.51473963  0.63846927
   0.25542619  0.56001855  0.75531135
   0.15145986  0.66265008  0.83881471
   0.09301397  0.73665225  0.93336910
   0.96560341  0.83354269  0.00061534
   0.91156381  0.89922582  0.09301038
   0.82147303  0.01446318  0.17234721
   0.74867720  0.09808490  0.23475633
   0.66091385  0.17628867  0.33249792
   0.58021569  0.23253081  0.40535955
   0.49520675  0.31264516  0.47392411
   0.49494087  0.30862573  0.68544680
   0.40573747  0.40102911  0.74729151
   0.36477370  0.47806146  0.83921439
   0.25678166  0.57384425  0.88316105
   0.17256575  0.65567578  0.00571441
   0.09596643  0.76972381  0.08388760
   0.99854478  0.82833735  0.16924109
   0.91364175  0.93162841  0.27120995
   0.82516959  0.02644557  0.32081111
   0.73184371  0.09636506  0.40586652
   0.66221426  0.15647823  0.47748497
   0.58679636  0.24688019  0.58150438
   0.58515658  0.23895255  0.76735725
   0.47932571  0.32047803  0.84657387
   0.43718997  0.41113402  0.94193236
   0.33772384  0.50445773  0.99628851
   0.25183742  0.59345527  0.09414375
   0.15809271  0.69967873  0.17770540
   0.06052706  0.75852072  0.27665504
   0.99326019  0.84466601  0.34659590
   0.93013087  0.95149576  0.41317032
   0.84629872  0.01852888  0.49585883
   0.75535407  0.09874056  0.57128391
   0.65211531  0.16054714  0.66685745
   0.66915304  0.18135451  0.84438572
   0.58637776  0.25177610  0.91384602
   0.49877808  0.32346538  0.01648054
   0.41528040  0.41816810  0.10040492
   0.32968015  0.48701022  0.18372584
   0.22226759  0.58879189  0.23562688
   0.18224970  0.66030175  0.32578859
   0.11262843  0.77099033  0.38674754
   0.97827796  0.82642835  0.49102296
   0.91549343  0.90419113  0.60321688
   0.82492632  0.99815085  0.66967180
   0.74661417  0.08034614  0.72949070
   0.73251373  0.09717494  0.90991203
   0.66201256  0.19336487  0.99106394
   0.59865560  0.24464086  0.06244023
   0.47962260  0.31043990  0.18905214
   0.40551431  0.38930310  0.26090096
   0.30075313  0.50062365  0.31597592
   0.26600601  0.61952487  0.41051253
   0.18164898  0.69954228  0.49145670
   0.08062481  0.74935476  0.56326682
   0.98089282  0.80805213  0.66274996
   0.90659138  0.90714030  0.75561668
   0.79131802  0.01257937  0.82924117
   0.83484773  0.01695144  0.99716125
   0.75231358  0.13121839  0.07626095
   0.69480160  0.17354550  0.14208212
   0.60833951  0.24374047  0.23984982
   0.51154282  0.33705261  0.31633257
   0.42663954  0.42270158  0.41797008
   0.31220346  0.50758299  0.52563895
   0.25149181  0.61123998  0.57785473
   0.14790847  0.64873224  0.67044491
   0.07314865  0.74644156  0.76256796
   0.99280038  0.80477766  0.85988084
   0.89365845  0.92054580  0.90819190
