 running on   64 total cores
 distrk:  each k-point on   32 cores,    2 groups
 distr:  one band on   32 cores,    1 groups
 vasp.6.2.1 16May21 (build Nov 23 2021 15:40:41) complex                        
  
 POSCAR found type information on POSCAR Li
 POSCAR found :  1 types and     504 ions
 scaLAPACK will be used
 -----------------------------------------------------------------------------
|                                                                             |
|           W    W    AA    RRRRR   N    N  II  N    N   GGGG   !!!           |
|           W    W   A  A   R    R  NN   N  II  NN   N  G    G  !!!           |
|           W    W  A    A  R    R  N N  N  II  N N  N  G       !!!           |
|           W WW W  AAAAAA  RRRRR   N  N N  II  N  N N  G  GGG   !            |
|           WW  WW  A    A  R   R   N   NN  II  N   NN  G    G                |
|           W    W  A    A  R    R  N    N  II  N    N   GGGG   !!!           |
|                                                                             |
|     For optimal performance we recommend to set                             |
|       NCORE = 2 up to number-of-cores-per-socket                            |
|     NCORE specifies how many cores store one orbital (NPAR=cpu/NCORE).      |
|     This setting can greatly improve the performance of VASP for DFT.       |
|     The default, NCORE=1 might be grossly inefficient on modern             |
|     multi-core architectures or massively parallel machines. Do your        |
|     own testing! More info at https://www.vasp.at/wiki/index.php/NCORE      |
|     Unfortunately you need to use the default for GW and RPA                |
|     calculations (for HF NCORE is supported but not extensively tested      |
|     yet).                                                                   |
|                                                                             |
 -----------------------------------------------------------------------------

 -----------------------------------------------------------------------------
|                                                                             |
|               ----> ADVICE to this user running VASP <----                  |
|                                                                             |
|     You have a (more or less) 'large supercell' and for larger cells it     |
|     might be more efficient to use real-space projection operators.         |
|     Therefore, try LREAL= Auto in the INCAR file.                           |
|     Mind: If you want to do very accurate calculations, keep the            |
|     reciprocal projection scheme (i.e. LREAL=.FALSE.).                      |
|                                                                             |
 -----------------------------------------------------------------------------

 LDA part: xc-table for Pade appr. of Perdew
 POSCAR found type information on POSCAR Li
 POSCAR found :  1 types and     504 ions
 POSCAR, INCAR and KPOINTS ok, starting setup
 FFT: planning ...
 WAVECAR not read
 entering main loop
       N       E                     dE             d eps       ncg     rms          rms(c)
DAV:   1    -0.346617234296E+03   -0.34662E+03   -0.11787E+05  4040   0.644E+02
DAV:   2    -0.899972132244E+03   -0.55335E+03   -0.50764E+03  4628   0.634E+01
DAV:   3    -0.939419635272E+03   -0.39448E+02   -0.35994E+02  5168   0.134E+01
DAV:   4    -0.940820448930E+03   -0.14008E+01   -0.13767E+01  4664   0.274E+00
DAV:   5    -0.940851782051E+03   -0.31333E-01   -0.31273E-01  4824   0.441E-01    0.614E+00
DAV:   6    -0.939085740567E+03    0.17660E+01   -0.43984E+00  4600   0.254E+00    0.485E+00
DAV:   7    -0.937215597207E+03    0.18701E+01   -0.39756E+00  4632   0.270E+00    0.359E+00
DAV:   8    -0.936043610477E+03    0.11720E+01   -0.21951E+00  4624   0.163E+00    0.232E+00
DAV:   9    -0.935788364998E+03    0.25525E+00   -0.12706E+00  4600   0.120E+00    0.170E+00
DAV:  10    -0.935473428465E+03    0.31494E+00   -0.70882E-01  4648   0.822E-01    0.888E-01
DAV:  11    -0.935447626994E+03    0.25801E-01   -0.26566E-01  4288   0.378E-01    0.475E-01
DAV:  12    -0.935453944175E+03   -0.63172E-02   -0.39624E-02  4616   0.217E-01    0.383E-01
DAV:  13    -0.935442274800E+03    0.11669E-01   -0.21230E-02  4560   0.179E-01    0.239E-01
DAV:  14    -0.935439568965E+03    0.27058E-02   -0.68644E-03  4576   0.103E-01    0.136E-01
DAV:  15    -0.935438756987E+03    0.81198E-03   -0.34096E-03  4576   0.784E-02    0.961E-02
DAV:  16    -0.935437655100E+03    0.11019E-02   -0.17077E-03  4536   0.484E-02    0.415E-02
DAV:  17    -0.935437606773E+03    0.48327E-04   -0.63400E-04  4352   0.230E-02    0.244E-02
DAV:  18    -0.935437575320E+03    0.31453E-04   -0.16505E-04  4568   0.143E-02    0.181E-02
DAV:  19    -0.935437541003E+03    0.34317E-04   -0.50841E-05  4464   0.851E-03    0.104E-02
DAV:  20    -0.935437525240E+03    0.15763E-04   -0.25626E-05  3336   0.487E-03    0.362E-03
DAV:  21    -0.935437524588E+03    0.65138E-06   -0.87214E-06  2128   0.296E-03
   1 F= -.93543752E+03 E0= -.93536588E+03  d E =-.143293E+00
