Li                                      
           1
   -11.179105   19.362778   -0.000000
   -19.164180  -11.064444   -0.000000
     0.000000   -0.000000   23.447950
   Li
   504
Direct configuration=     1
   0.00431273  0.99484592  0.00010694
   0.92384851  0.04005741  0.65264827
   0.86074248  0.08775832  0.32864291
   0.77640877  0.13162327  0.02067766
   0.72053314  0.17051727  0.67433138
   0.64149665  0.20958799  0.33912957
   0.57141218  0.25339881  0.99732306
   0.49714028  0.28641402  0.67907013
   0.42726575  0.34372534  0.35484726
   0.35548771  0.36599921  0.01492803
   0.28465159  0.41557777  0.66681530
   0.21966673  0.45836420  0.34114009
   0.06595604  0.05531000  0.66018278
   0.99591915  0.07889637  0.33128344
   0.93196888  0.13198310  0.00269266
   0.86310057  0.16377901  0.67546481
   0.79086736  0.19926333  0.34656378
   0.71341942  0.25461979  0.99730287
   0.64096806  0.29753554  0.67156809
   0.57554085  0.33603940  0.35583996
   0.49646646  0.36756003  0.00252698
   0.43060711  0.41833794  0.67049370
   0.35462970  0.46539867  0.33460132
   0.28596051  0.48758981  0.00790999
   0.14512800  0.08054331  0.32772957
   0.06452685  0.11954842  0.99526555
   0.99533658  0.16289016  0.66963453
   0.92974038  0.20631630  0.33216816
   0.85250472  0.25460369  0.01359622
   0.79354302  0.28870826  0.67805561
   0.70844915  0.33406874  0.33965823
   0.64419496  0.37498570  0.00565860
   0.56469651  0.41435440  0.67855446
   0.49314506  0.46475063  0.35638833
   0.43181514  0.49738949  0.02161008
   0.34893166  0.54325628  0.67475456
   0.21174725  0.11139426  0.00456385
   0.14103441  0.16540846  0.65932709
   0.07331798  0.20865470  0.34499459
   0.00520679  0.25300637  0.01945452
   0.93097829  0.29561941  0.67222381
   0.84898492  0.33240262  0.34369891
   0.78502233  0.38450061  0.99923864
   0.72363472  0.41303979  0.66371565
   0.63512556  0.45701843  0.32362953
   0.56459869  0.49543644  0.99181919
   0.49823964  0.53369087  0.68136133
   0.41898891  0.57947124  0.33317220
   0.28315193  0.17143788  0.67246778
   0.21531900  0.21429582  0.32913055
   0.15163787  0.24608926  0.01501458
   0.08448604  0.28203258  0.67986346
   0.99809780  0.33437946  0.35583789
   0.94305330  0.38072548  0.01342412
   0.85408225  0.41158284  0.67488972
   0.78318371  0.46483470  0.34017943
   0.71230668  0.49920094  0.99806791
   0.64384955  0.53906819  0.66315976
   0.56949472  0.57848363  0.32594270
   0.50174445  0.63123748  0.99792988
   0.35502373  0.20897847  0.32567498
   0.28222328  0.24089275  0.00897050
   0.22037724  0.29840272  0.67039452
   0.13570698  0.33769239  0.33348062
   0.08165408  0.37938621  0.00483832
   0.00483590  0.41589707  0.67671331
   0.92171581  0.45968402  0.32789839
   0.86010449  0.50363740  0.99717844
   0.78795193  0.53656974  0.66588847
   0.71106247  0.59396315  0.33143567
   0.64251211  0.62327113  0.00279163
   0.57037042  0.66177480  0.65533920
   0.42593648  0.24398397  0.99787626
   0.36327409  0.29252904  0.67936456
   0.28585649  0.33644569  0.33413286
   0.21367382  0.36604247  0.99845574
   0.14702046  0.42261234  0.66912488
   0.06783783  0.45256775  0.34547100
   0.00098406  0.50416969  0.99693275
   0.92807746  0.53637864  0.68317954
   0.85836338  0.58230876  0.31981117
   0.78863792  0.62511406  0.99302663
   0.72277035  0.66226455  0.65434292
   0.63640080  0.71476855  0.32529181
   0.14645077  0.50564917  0.99320095
   0.06939818  0.53993838  0.66886337
   0.99406659  0.57607091  0.33339245
   0.92755554  0.62315591  0.98696741
   0.86051887  0.65484433  0.66301915
   0.78748859  0.70995458  0.31955353
   0.71818334  0.74891655  0.98832338
   0.20773957  0.55010685  0.66700438
   0.13709734  0.58325000  0.31983650
   0.06968951  0.63562855  0.99057639
   0.99924642  0.66334671  0.67157765
   0.93110572  0.70369925  0.32943082
   0.86354591  0.74676950  0.98776205
   0.79272198  0.79589298  0.67249930
   0.28394637  0.58803578  0.33171832
   0.22440754  0.62699718  0.99979122
   0.13819564  0.66689665  0.67074327
   0.07156329  0.70627266  0.33264613
   0.00534424  0.75493199  0.98770636
   0.92552521  0.78540690  0.64890385
   0.85516271  0.83685801  0.33143581
   0.37087580  0.62417316  0.01282094
   0.28468168  0.67224383  0.67321686
   0.20992753  0.70668517  0.32781098
   0.14839562  0.74962312  0.98100326
   0.06925981  0.78426441  0.66540339
   0.99912263  0.82619515  0.32446868
   0.93302203  0.87417162  0.98823041
   0.43704684  0.66647949  0.67864426
   0.34511272  0.69856126  0.33026663
   0.29240571  0.75276885  0.98669520
   0.21233001  0.79777279  0.65984356
   0.14246716  0.83171894  0.33483644
   0.06854348  0.88354165  0.98887102
   0.99779798  0.91587647  0.66504137
   0.93618420  0.95403750  0.32227362
   0.85842246  0.00155652  0.99725792
   0.78415726  0.04019325  0.68113232
   0.71914090  0.08154808  0.33595590
   0.64345637  0.13813787  0.99804598
   0.57963715  0.16370871  0.67481816
   0.49334491  0.20805454  0.34410092
   0.07415458  0.95117442  0.33076792
   0.13810839  0.00318005  0.00113611
   0.21321184  0.04393977  0.65759561
   0.28307988  0.08402699  0.32738931
   0.34902478  0.12180315  0.01846249
   0.42475171  0.17218704  0.67342376
   0.85487860  0.91641796  0.66313088
   0.79351891  0.95560641  0.31203918
   0.70980213  0.00278806  0.99990151
   0.63759613  0.03988087  0.66196160
   0.57405733  0.08213685  0.33488257
   0.49287100  0.13006627  0.99043225
   0.13711073  0.91701163  0.65574750
   0.21192786  0.96309078  0.34073719
   0.28548461  0.00282779  0.99727082
   0.35856749  0.04846757  0.66111032
   0.42568830  0.08575124  0.31924121
   0.78523666  0.87847818  0.99086034
   0.71608362  0.91340202  0.66380099
   0.63873825  0.96662292  0.32929041
   0.56640077  0.00340147  0.99794279
   0.51023204  0.04949495  0.66491181
   0.22541487  0.87870897  0.98954438
   0.28946765  0.91804048  0.64906650
   0.34876140  0.96310004  0.33758741
   0.41994869  0.00686618  0.99488823
   0.71597197  0.82858501  0.32449852
   0.64236289  0.88397228  0.99507367
   0.57344872  0.91722014  0.65354206
   0.49595268  0.96421927  0.33971240
   0.27927898  0.83119824  0.34052872
   0.35948026  0.88787113  0.99509830
   0.42939210  0.91792648  0.66949517
   0.64597431  0.79582634  0.66325862
   0.56848061  0.84057341  0.31960577
   0.49813226  0.88393497  0.99922137
   0.35630775  0.78417838  0.66512753
   0.42418096  0.84261597  0.33738073
   0.57282377  0.76015698  0.99466432
   0.50222493  0.79507785  0.68070851
   0.43634674  0.75426314  0.99796631
   0.49653736  0.71052060  0.32708062
   0.00503474  0.00659029  0.77271270
   0.90554411  0.03781285  0.43339387
   0.85462049  0.08117287  0.12502695
   0.77771739  0.12068936  0.78279497
   0.70867221  0.16132226  0.43590693
   0.66609586  0.20804642  0.12299305
   0.57732238  0.25042399  0.77626440
   0.49430938  0.28144931  0.47245462
   0.43271284  0.33288721  0.12394043
   0.36059322  0.35979955  0.78644634
   0.28527482  0.40353424  0.44006936
   0.21063922  0.45673650  0.10912235
   0.06651393  0.04988457  0.44013487
   0.00050232  0.08189662  0.10490862
   0.93449288  0.12609635  0.78322662
   0.85323657  0.15636723  0.44564978
   0.79301408  0.20369315  0.13656325
   0.70479597  0.25230885  0.77145447
   0.65029329  0.27794724  0.45182305
   0.58184751  0.33696069  0.11348791
   0.50424950  0.37182677  0.80420024
   0.43020985  0.40528551  0.44364365
   0.35257970  0.45744522  0.13129891
   0.29176158  0.49360755  0.77714050
   0.13835417  0.07354207  0.10995056
   0.07588750  0.12041546  0.78406745
   0.00070832  0.16498332  0.44934921
   0.91921768  0.20673049  0.11972930
   0.84970820  0.25285974  0.80003864
   0.77952090  0.28893252  0.45277530
   0.72173844  0.34146184  0.11757417
   0.63680032  0.38383620  0.79139590
   0.56820671  0.42127939  0.44481014
   0.50970137  0.46165621  0.10204224
   0.44031978  0.50262615  0.78016006
   0.36448576  0.53324263  0.44198935
   0.21983158  0.12225793  0.77393201
   0.13645753  0.15311705  0.43921651
   0.06081383  0.20252077  0.13019308
   0.99741564  0.24104678  0.78184300
   0.92179847  0.28027034  0.46803936
   0.86372587  0.33773861  0.11657363
   0.78482386  0.38251234  0.78065612
   0.71318188  0.41251544  0.43200698
   0.64757556  0.46266623  0.10442373
   0.57652507  0.50747287  0.78412571
   0.49465667  0.54758228  0.46234855
   0.43649278  0.57955866  0.11433543
   0.27295999  0.15642144  0.42577522
   0.21253114  0.19927378  0.11723304
   0.13873356  0.24758228  0.77224553
   0.06646537  0.28953447  0.45144204
   0.99897144  0.33115743  0.12494104
   0.93520232  0.37610058  0.79082124
   0.85244640  0.41232201  0.44732520
   0.78515794  0.47014982  0.10435409
   0.71875152  0.49651817  0.77177885
   0.63154943  0.53639379  0.42913030
   0.57539610  0.58477370  0.11409431
   0.50209968  0.63318774  0.77620666
   0.37633591  0.21452035  0.11528785
   0.28294262  0.24296895  0.78207308
   0.20283804  0.27767059  0.45805799
   0.15047084  0.33613638  0.10709807
   0.08123204  0.35989422  0.78804349
   0.99176477  0.42201243  0.44781201
   0.91847377  0.45140277  0.12035146
   0.86758859  0.49109124  0.78556931
   0.77970342  0.54294896  0.44044836
   0.72077777  0.58268502  0.10805660
   0.64177476  0.62448146  0.76449788
   0.56761500  0.66449369  0.43400742
   0.42715409  0.25036258  0.78257924
   0.34246537  0.27554367  0.45381803
   0.29499654  0.33457921  0.12039726
   0.22362527  0.37052641  0.79166408
   0.14316411  0.42289862  0.44457247
   0.06785574  0.44571110  0.10080028
   0.00411445  0.48917169  0.79771671
   0.92694312  0.53405788  0.44733267
   0.86848284  0.58908910  0.10598333
   0.77984654  0.61767785  0.76946421
   0.71687852  0.67326592  0.44393686
   0.65029239  0.70957684  0.10501489
   0.14560318  0.49252329  0.78784345
   0.05387489  0.54181820  0.44442817
   0.00523140  0.57266412  0.10036237
   0.93211064  0.62134736  0.78422349
   0.85901243  0.66068702  0.43880553
   0.78648526  0.70733134  0.08827877
   0.72331137  0.76870125  0.78009787
   0.21938049  0.52587217  0.44016242
   0.14458719  0.56648837  0.10442781
   0.06782233  0.62984218  0.79134496
   0.00874783  0.66463840  0.45378506
   0.93166380  0.70916869  0.11236042
   0.86188439  0.75203235  0.76891881
   0.79215195  0.80369182  0.46473224
   0.28969363  0.57767387  0.11361170
   0.19970088  0.61932862  0.76833475
   0.14308584  0.66430884  0.43545396
   0.06973972  0.70326990  0.09416280
   0.01674524  0.74345644  0.76118675
   0.93762895  0.79257476  0.43436028
   0.85859799  0.82567166  0.09651695
   0.35501361  0.62438435  0.79179415
   0.29120169  0.65424428  0.44078295
   0.21326038  0.70805014  0.10103344
   0.15627387  0.75860574  0.77220270
   0.07525253  0.78532880  0.44699348
   0.99472680  0.84033599  0.08086965
   0.94201890  0.87866934  0.76775794
   0.42943583  0.67336141  0.43414545
   0.36040713  0.71981776  0.10355053
   0.29212387  0.74891755  0.79120440
   0.22038449  0.79351505  0.44038246
   0.13763450  0.83912024  0.10496472
   0.08436208  0.86891185  0.77298473
   0.99595497  0.91776054  0.45003522
   0.93256680  0.96570654  0.10096543
   0.84672766  0.00293779  0.77955730
   0.77998114  0.02993971  0.43526803
   0.71261102  0.07543619  0.10666262
   0.61903598  0.12747246  0.78219818
   0.57053478  0.16563744  0.43916025
   0.52567272  0.20759551  0.11911329
   0.07144060  0.95785608  0.10260161
   0.14882239  0.99907307  0.76854527
   0.21136134  0.04331743  0.44072696
   0.28623750  0.08376518  0.11887837
   0.35185636  0.13220792  0.79018856
   0.42098958  0.16514101  0.45321585
   0.85580424  0.91369861  0.42789105
   0.78063261  0.95709027  0.11287824
   0.70664880  0.00759122  0.77996598
   0.63768216  0.04744025  0.45544279
   0.57691876  0.09164871  0.11109538
   0.49159202  0.12460827  0.77505795
   0.12910490  0.92096373  0.43369649
   0.20973496  0.95471662  0.10102008
   0.29660284  0.99089968  0.75664957
   0.35029885  0.03301733  0.44861614
   0.44332241  0.09371293  0.12151166
   0.79341494  0.87714634  0.77919979
   0.70228966  0.91901915  0.44336831
   0.64537288  0.96071860  0.11257043
   0.55046224  0.00252699  0.77191238
   0.49629411  0.04634278  0.43223699
   0.21537789  0.88124019  0.76527069
   0.27946430  0.90212019  0.45584972
   0.35822939  0.97313766  0.11162370
   0.42763919  0.99064061  0.76673823
   0.72029511  0.83340671  0.11516002
   0.64364861  0.87302051  0.78785067
   0.56613102  0.90722279  0.43407387
   0.50091541  0.96517307  0.11059495
   0.28760408  0.83441531  0.10151414
   0.35243285  0.86576691  0.77464892
   0.42470334  0.92567220  0.43825310
   0.65033477  0.79373175  0.45108525
   0.57448750  0.83370745  0.09135529
   0.50016396  0.86930680  0.78040244
   0.34945890  0.79674864  0.44100200
   0.43798939  0.83769133  0.10429699
   0.58398495  0.74721085  0.76273052
   0.49646450  0.79058738  0.44292799
   0.42725251  0.74698057  0.77838653
   0.50665866  0.71523550  0.10583802
   0.99425629  0.99839819  0.20197628
   0.92797623  0.03396274  0.88390149
   0.85229247  0.08897941  0.55852462
   0.78717190  0.12964137  0.23212168
   0.69739787  0.17475551  0.88752670
   0.63363260  0.19481873  0.55825556
   0.57748042  0.24480810  0.23777761
   0.49586431  0.29254630  0.89695504
   0.41412607  0.33297520  0.57086146
   0.36709011  0.38165071  0.23216667
   0.27722637  0.42575548  0.89980775
   0.22585124  0.45376291  0.55850830
   0.06740822  0.03554354  0.89009617
   0.00275477  0.08318205  0.55155598
   0.92873533  0.13170942  0.22031110
   0.85615490  0.15781260  0.89521634
   0.78370378  0.21841945  0.55749159
   0.72572545  0.24729627  0.24083367
   0.63783427  0.30016926  0.89575487
   0.55534544  0.32738941  0.55307055
   0.49884873  0.38692592  0.23429035
   0.40369758  0.41621956  0.90448687
   0.35150166  0.45461887  0.56320591
   0.28974746  0.50518396  0.21560244
   0.14788037  0.08799943  0.53409639
   0.08172662  0.12179654  0.21878827
   0.00473760  0.16015332  0.89284083
   0.92252653  0.20077624  0.56513523
   0.85481743  0.25238900  0.23059897
   0.78435796  0.28299945  0.90856150
   0.70371930  0.31630334  0.57508284
   0.65081595  0.37421799  0.21580261
   0.56531179  0.42507666  0.88675467
   0.49922021  0.45189196  0.56698553
   0.43890152  0.50533357  0.22796488
   0.35316944  0.55147185  0.90547678
   0.21967435  0.12671740  0.22033240
   0.13893168  0.18087011  0.87517497
   0.07758125  0.20442118  0.55897568
   0.00154568  0.24689181  0.23402829
   0.92487906  0.28118312  0.90105247
   0.85929170  0.31787645  0.56979376
   0.77806951  0.38035292  0.21428614
   0.70456205  0.42270789  0.88951801
   0.65165076  0.45255065  0.54974013
   0.57622077  0.50043673  0.21720828
   0.49252171  0.54169402  0.89226351
   0.42179513  0.58072002  0.55883607
   0.27906632  0.16463505  0.91440760
   0.20974718  0.20389102  0.56794246
   0.14444389  0.24770723  0.22203046
   0.06979630  0.29071369  0.90114934
   0.99676459  0.33385082  0.56449384
   0.93004755  0.37606518  0.23276298
   0.85428273  0.41824646  0.89773959
   0.79730924  0.45551742  0.55141539
   0.71877733  0.50098172  0.22165633
   0.62949336  0.55403239  0.87915115
   0.56534115  0.58645529  0.55007096
   0.51100280  0.63398400  0.21951967
   0.35351572  0.19530313  0.57367539
   0.28664153  0.25837215  0.22214649
   0.22335875  0.30358131  0.89761805
   0.14083378  0.33579041  0.56573785
   0.07350748  0.37823489  0.23886853
   0.99566230  0.40214768  0.89837939
   0.93112724  0.45222825  0.56217937
   0.86526979  0.49107950  0.22392770
   0.78915941  0.53720903  0.88443380
   0.71034183  0.57399531  0.53756159
   0.64508616  0.61977177  0.22168766
   0.57608281  0.66811605  0.88984989
   0.44691079  0.26556324  0.23337922
   0.36593777  0.29730034  0.88465958
   0.28210871  0.32281632  0.56045542
   0.23378651  0.38311294  0.22382033
   0.13620325  0.41664900  0.89976013
   0.07675689  0.47036236  0.56187067
   0.99202894  0.49690567  0.21877296
   0.93496831  0.53660839  0.89244377
   0.84594658  0.58110589  0.54185445
   0.78053799  0.62638233  0.21144868
   0.71457218  0.66673520  0.87259542
   0.64511985  0.70054503  0.54628787
   0.14146523  0.49762124  0.21561940
   0.06488047  0.53872940  0.89675794
   0.99603425  0.59036755  0.55799282
   0.93317877  0.62425393  0.21076392
   0.84942351  0.67409807  0.88333511
   0.77683362  0.71327596  0.56206332
   0.71784439  0.75885443  0.21920648
   0.21003773  0.54483156  0.88425755
   0.13672325  0.58378131  0.55899138
   0.07352321  0.62813647  0.21141751
   0.00596152  0.67332817  0.88075381
   0.92496157  0.69434216  0.54961185
   0.86835568  0.75135999  0.19869944
   0.76596120  0.79252706  0.88157209
   0.28855863  0.58253089  0.55587986
   0.22049701  0.62883607  0.21253637
   0.13562716  0.67117844  0.89111180
   0.07800907  0.71044004  0.55183790
   0.00553449  0.76361821  0.20482493
   0.91238365  0.79169839  0.86923288
   0.86601306  0.83851556  0.55113633
   0.36296500  0.63292096  0.23637997
   0.27543085  0.67748245  0.89418686
   0.21738906  0.70012709  0.54861520
   0.14897965  0.74641431  0.21172295
   0.06697085  0.80196071  0.86685896
   0.00571246  0.81290081  0.55616838
   0.93530214  0.87465644  0.20126173
   0.42173132  0.66761699  0.88937769
   0.35713298  0.70261487  0.55772907
   0.28432209  0.76631369  0.21634693
   0.22373608  0.79943766  0.88816435
   0.14123896  0.85163339  0.55005358
   0.06123291  0.87234625  0.21754543
   0.99012487  0.91080721  0.87234169
   0.92913449  0.95697111  0.55415861
   0.85087155  0.00530627  0.22259368
   0.77521610  0.05249953  0.89539117
   0.71760192  0.08737042  0.54725388
   0.63829285  0.12217370  0.23092881
   0.55951695  0.16943806  0.89941755
   0.49650690  0.20117278  0.55008044
   0.07483959  0.95957975  0.56113951
   0.13682371  0.00063663  0.20810939
   0.20757512  0.04019059  0.87801985
   0.29210802  0.09265420  0.55036082
   0.36668771  0.13317376  0.22719444
   0.42737146  0.17295040  0.89375451
   0.84746953  0.91866005  0.87397686
   0.78595194  0.96300004  0.55613947
   0.71886431  0.99279821  0.21674221
   0.63065148  0.04087427  0.87756198
   0.56782149  0.07200172  0.54924004
   0.51198406  0.13190262  0.22399109
   0.14884489  0.91714216  0.87794590
   0.21605993  0.97001381  0.55080719
   0.28166168  0.99655554  0.22515594
   0.35569781  0.03728068  0.88176471
   0.43928486  0.08601304  0.54783293
   0.78393442  0.87211168  0.21261603
   0.71950397  0.92115410  0.88221477
   0.64741844  0.95900388  0.54092218
   0.57487584  0.00137642  0.22523273
   0.48824164  0.03423476  0.88475139
   0.20653917  0.88687805  0.22064762
   0.28873699  0.91736933  0.87580419
   0.35629621  0.95975384  0.55757333
   0.43732852  0.00303349  0.22180268
   0.71382526  0.84146722  0.55861962
   0.63774978  0.87095091  0.21393222
   0.58883253  0.92542090  0.89405396
   0.49979532  0.97112847  0.55708556
   0.28703355  0.82943720  0.55267143
   0.35761245  0.87427697  0.21766933
   0.43017348  0.90918862  0.89548182
   0.64598619  0.79365562  0.87693427
   0.57178084  0.82957749  0.54767225
   0.50058934  0.87180011  0.22636674
   0.36026585  0.80262664  0.88891848
   0.42715770  0.83293886  0.55639982
   0.57634723  0.73848680  0.20993423
   0.51170222  0.78426313  0.89069336
   0.43331421  0.75125099  0.21511015
   0.51148999  0.70570219  0.54789852
