 500 500   0   0
  0.1852332E+02  0.2100050E-08  0.2100050E-08  0.2100050E-08  0.5000000E-15
  1.000000000000000E-004
  CAR 
 Li                                      
      4.01055505     -3.33039141  301      0.64099874      1.00000000
     -3.330  0.0000E+00  0.0000E+00
     -3.306  0.0000E+00  0.0000E+00
     -3.281  0.0000E+00  0.0000E+00
     -3.257  0.0000E+00  0.0000E+00
     -3.233  0.0000E+00  0.0000E+00
     -3.208  0.0000E+00  0.0000E+00
     -3.184  0.0000E+00  0.0000E+00
     -3.159  0.7611E-12  0.1862E-13
     -3.135  0.3149E-08  0.7706E-10
     -3.110  0.3538E-05  0.8665E-07
     -3.086  0.1091E-02  0.2679E-04
     -3.061  0.9378E-01  0.2322E-02
     -3.037  0.2295E+01  0.5847E-01
     -3.012  0.1641E+02  0.4601E+00
     -2.988  0.3521E+02  0.1322E+01
     -2.963  0.2295E+02  0.1883E+01
     -2.939  0.4923E+01  0.2004E+01
     -2.914  0.8053E+01  0.2201E+01
     -2.890  0.4746E+02  0.3362E+01
     -2.865  0.9844E+02  0.5771E+01
     -2.841  0.7144E+02  0.7519E+01
     -2.817  0.1842E+02  0.7970E+01
     -2.792  0.8554E+01  0.8180E+01
     -2.768  0.4470E+02  0.9273E+01
     -2.743  0.9716E+02  0.1165E+02
     -2.719  0.7429E+02  0.1347E+02
     -2.694  0.2033E+02  0.1397E+02
     -2.670  0.1060E+02  0.1423E+02
     -2.645  0.5577E+02  0.1559E+02
     -2.621  0.1243E+03  0.1863E+02
     -2.596  0.1028E+03  0.2115E+02
     -2.572  0.3221E+02  0.2193E+02
     -2.547  0.1676E+02  0.2234E+02
     -2.523  0.7877E+02  0.2427E+02
     -2.498  0.1756E+03  0.2857E+02
     -2.474  0.1579E+03  0.3243E+02
     -2.449  0.5641E+02  0.3382E+02
     -2.425  0.1117E+02  0.3409E+02
     -2.401  0.3387E+02  0.3492E+02
     -2.376  0.9405E+02  0.3722E+02
     -2.352  0.8568E+02  0.3932E+02
     -2.327  0.2594E+02  0.3995E+02
     -2.303  0.1178E+02  0.4024E+02
     -2.278  0.6507E+02  0.4183E+02
     -2.254  0.1682E+03  0.4595E+02
     -2.229  0.1702E+03  0.5011E+02
     -2.205  0.6796E+02  0.5177E+02
     -2.180  0.2555E+02  0.5240E+02
     -2.156  0.9538E+02  0.5473E+02
     -2.131  0.2303E+03  0.6037E+02
     -2.107  0.2467E+03  0.6641E+02
     -2.082  0.1201E+03  0.6934E+02
     -2.058  0.2766E+02  0.7002E+02
     -2.033  0.2683E+02  0.7068E+02
     -2.009  0.7830E+02  0.7259E+02
     -1.985  0.9182E+02  0.7484E+02
     -1.960  0.4095E+02  0.7584E+02
     -1.936  0.1502E+02  0.7621E+02
     -1.911  0.6534E+02  0.7781E+02
     -1.887  0.1826E+03  0.8228E+02
     -1.862  0.2041E+03  0.8727E+02
     -1.838  0.9400E+02  0.8957E+02
     -1.813  0.2745E+02  0.9024E+02
     -1.789  0.7522E+02  0.9208E+02
     -1.764  0.2078E+03  0.9717E+02
     -1.740  0.2592E+03  0.1035E+03
     -1.715  0.1464E+03  0.1071E+03
     -1.691  0.3603E+02  0.1080E+03
     -1.666  0.2731E+02  0.1086E+03
     -1.642  0.1111E+03  0.1114E+03
     -1.618  0.1889E+03  0.1160E+03
     -1.593  0.1274E+03  0.1191E+03
     -1.569  0.4465E+02  0.1202E+03
     -1.544  0.7797E+02  0.1221E+03
     -1.520  0.2049E+03  0.1271E+03
     -1.495  0.2570E+03  0.1334E+03
     -1.471  0.1496E+03  0.1371E+03
     -1.446  0.4226E+02  0.1381E+03
     -1.422  0.5916E+02  0.1395E+03
     -1.397  0.1783E+03  0.1439E+03
     -1.373  0.2518E+03  0.1501E+03
     -1.348  0.1762E+03  0.1544E+03
     -1.324  0.6124E+02  0.1559E+03
     -1.299  0.4018E+02  0.1569E+03
     -1.275  0.1218E+03  0.1598E+03
     -1.250  0.1823E+03  0.1643E+03
     -1.226  0.1173E+03  0.1672E+03
     -1.202  0.4356E+02  0.1682E+03
     -1.177  0.6623E+02  0.1699E+03
     -1.153  0.1240E+03  0.1729E+03
     -1.128  0.1391E+03  0.1763E+03
     -1.104  0.1091E+03  0.1790E+03
     -1.079  0.5271E+02  0.1803E+03
     -1.055  0.9216E+02  0.1825E+03
     -1.030  0.2436E+03  0.1885E+03
     -1.006  0.3638E+03  0.1974E+03
     -0.981  0.3206E+03  0.2052E+03
     -0.957  0.1611E+03  0.2092E+03
     -0.932  0.8080E+02  0.2111E+03
     -0.908  0.1653E+03  0.2152E+03
     -0.883  0.2486E+03  0.2213E+03
     -0.859  0.1906E+03  0.2259E+03
     -0.834  0.8743E+02  0.2281E+03
     -0.810  0.5299E+02  0.2294E+03
     -0.786  0.7586E+02  0.2312E+03
     -0.761  0.1571E+03  0.2351E+03
     -0.737  0.1884E+03  0.2397E+03
     -0.712  0.1459E+03  0.2433E+03
     -0.688  0.1831E+03  0.2477E+03
     -0.663  0.2351E+03  0.2535E+03
     -0.639  0.2444E+03  0.2595E+03
     -0.614  0.1879E+03  0.2641E+03
     -0.590  0.6945E+02  0.2658E+03
     -0.565  0.1645E+02  0.2662E+03
     -0.541  0.4365E+02  0.2672E+03
     -0.516  0.9514E+02  0.2696E+03
     -0.492  0.7731E+02  0.2715E+03
     -0.467  0.4519E+02  0.2726E+03
     -0.443  0.1220E+03  0.2755E+03
     -0.418  0.2593E+03  0.2819E+03
     -0.394  0.3267E+03  0.2899E+03
     -0.370  0.3352E+03  0.2981E+03
     -0.345  0.2743E+03  0.3048E+03
     -0.321  0.1677E+03  0.3089E+03
     -0.296  0.1616E+03  0.3129E+03
     -0.272  0.2403E+03  0.3187E+03
     -0.247  0.3032E+03  0.3262E+03
     -0.223  0.2627E+03  0.3326E+03
     -0.198  0.1534E+03  0.3363E+03
     -0.174  0.6665E+02  0.3380E+03
     -0.149  0.7136E+02  0.3397E+03
     -0.125  0.1458E+03  0.3433E+03
     -0.100  0.1916E+03  0.3480E+03
     -0.076  0.1907E+03  0.3526E+03
     -0.051  0.1380E+03  0.3560E+03
     -0.027  0.1355E+03  0.3593E+03
     -0.002  0.1820E+03  0.3638E+03
      0.022  0.1773E+03  0.3681E+03
      0.046  0.1727E+03  0.3723E+03
      0.071  0.2119E+03  0.3775E+03
      0.095  0.2868E+03  0.3845E+03
      0.120  0.2991E+03  0.3919E+03
      0.144  0.2277E+03  0.3974E+03
      0.169  0.2087E+03  0.4025E+03
      0.193  0.2477E+03  0.4086E+03
      0.218  0.2017E+03  0.4135E+03
      0.242  0.8813E+02  0.4157E+03
      0.267  0.5010E+02  0.4169E+03
      0.291  0.1338E+03  0.4202E+03
      0.316  0.2488E+03  0.4263E+03
      0.340  0.2870E+03  0.4333E+03
      0.365  0.2717E+03  0.4400E+03
      0.389  0.2206E+03  0.4454E+03
      0.413  0.1561E+03  0.4492E+03
      0.438  0.1819E+03  0.4536E+03
      0.462  0.2256E+03  0.4591E+03
      0.487  0.2341E+03  0.4649E+03
      0.511  0.2330E+03  0.4706E+03
      0.536  0.2032E+03  0.4756E+03
      0.560  0.1696E+03  0.4797E+03
      0.585  0.2130E+03  0.4849E+03
      0.609  0.2696E+03  0.4915E+03
      0.634  0.2710E+03  0.4981E+03
      0.658  0.2417E+03  0.5041E+03
      0.683  0.2092E+03  0.5092E+03
      0.707  0.2104E+03  0.5143E+03
      0.732  0.2212E+03  0.5197E+03
      0.756  0.2232E+03  0.5252E+03
      0.781  0.2561E+03  0.5315E+03
      0.805  0.2939E+03  0.5387E+03
      0.829  0.3096E+03  0.5462E+03
      0.854  0.3298E+03  0.5543E+03
      0.878  0.3307E+03  0.5624E+03
      0.903  0.3166E+03  0.5701E+03
      0.927  0.2951E+03  0.5774E+03
      0.952  0.2840E+03  0.5843E+03
      0.976  0.2994E+03  0.5916E+03
      1.001  0.3042E+03  0.5991E+03
      1.025  0.2771E+03  0.6059E+03
      1.050  0.2164E+03  0.6112E+03
      1.074  0.1342E+03  0.6144E+03
      1.099  0.5695E+02  0.6158E+03
      1.123  0.3909E+02  0.6168E+03
      1.148  0.8183E+02  0.6188E+03
      1.172  0.1176E+03  0.6217E+03
      1.197  0.1439E+03  0.6252E+03
      1.221  0.1835E+03  0.6297E+03
      1.245  0.1981E+03  0.6345E+03
      1.270  0.2167E+03  0.6398E+03
      1.294  0.2484E+03  0.6459E+03
      1.319  0.2459E+03  0.6519E+03
      1.343  0.2173E+03  0.6572E+03
      1.368  0.2185E+03  0.6626E+03
      1.392  0.2534E+03  0.6688E+03
      1.417  0.2769E+03  0.6756E+03
      1.441  0.2780E+03  0.6824E+03
      1.466  0.2729E+03  0.6891E+03
      1.490  0.2709E+03  0.6957E+03
      1.515  0.2547E+03  0.7019E+03
      1.539  0.2178E+03  0.7072E+03
      1.564  0.1966E+03  0.7121E+03
      1.588  0.1827E+03  0.7165E+03
      1.613  0.1780E+03  0.7209E+03
      1.637  0.1874E+03  0.7255E+03
      1.661  0.1891E+03  0.7301E+03
      1.686  0.1903E+03  0.7347E+03
      1.710  0.2074E+03  0.7398E+03
      1.735  0.2262E+03  0.7454E+03
      1.759  0.2269E+03  0.7509E+03
      1.784  0.1927E+03  0.7556E+03
      1.808  0.1627E+03  0.7596E+03
      1.833  0.1632E+03  0.7636E+03
      1.857  0.1601E+03  0.7675E+03
      1.882  0.1335E+03  0.7708E+03
      1.906  0.1195E+03  0.7737E+03
      1.931  0.1515E+03  0.7774E+03
      1.955  0.1761E+03  0.7817E+03
      1.980  0.1635E+03  0.7857E+03
      2.004  0.1245E+03  0.7888E+03
      2.028  0.8888E+02  0.7909E+03
      2.053  0.1059E+03  0.7935E+03
      2.077  0.1463E+03  0.7971E+03
      2.102  0.1737E+03  0.8014E+03
      2.126  0.1840E+03  0.8059E+03
      2.151  0.2002E+03  0.8108E+03
      2.175  0.2286E+03  0.8164E+03
      2.200  0.2451E+03  0.8224E+03
      2.224  0.2590E+03  0.8287E+03
      2.249  0.2657E+03  0.8352E+03
      2.273  0.2485E+03  0.8413E+03
      2.298  0.2161E+03  0.8466E+03
      2.322  0.2020E+03  0.8515E+03
      2.347  0.1960E+03  0.8563E+03
      2.371  0.1931E+03  0.8610E+03
      2.396  0.1704E+03  0.8652E+03
      2.420  0.1370E+03  0.8686E+03
      2.444  0.1426E+03  0.8720E+03
      2.469  0.1498E+03  0.8757E+03
      2.493  0.1163E+03  0.8786E+03
      2.518  0.8186E+02  0.8806E+03
      2.542  0.1080E+03  0.8832E+03
      2.567  0.1560E+03  0.8870E+03
      2.591  0.1672E+03  0.8911E+03
      2.616  0.1595E+03  0.8950E+03
      2.640  0.1461E+03  0.8986E+03
      2.665  0.1365E+03  0.9019E+03
      2.689  0.1415E+03  0.9054E+03
      2.714  0.1438E+03  0.9089E+03
      2.738  0.1480E+03  0.9125E+03
      2.763  0.1331E+03  0.9158E+03
      2.787  0.1145E+03  0.9186E+03
      2.812  0.1126E+03  0.9213E+03
      2.836  0.1337E+03  0.9246E+03
      2.860  0.1543E+03  0.9284E+03
      2.885  0.1471E+03  0.9320E+03
      2.909  0.1405E+03  0.9354E+03
      2.934  0.1443E+03  0.9390E+03
      2.958  0.1320E+03  0.9422E+03
      2.983  0.9685E+02  0.9446E+03
      3.007  0.6155E+02  0.9461E+03
      3.032  0.5893E+02  0.9475E+03
      3.056  0.7790E+02  0.9494E+03
      3.081  0.1002E+03  0.9519E+03
      3.105  0.1335E+03  0.9551E+03
      3.130  0.1636E+03  0.9591E+03
      3.154  0.1580E+03  0.9630E+03
      3.179  0.1477E+03  0.9666E+03
      3.203  0.1542E+03  0.9704E+03
      3.228  0.1694E+03  0.9745E+03
      3.252  0.1756E+03  0.9788E+03
      3.276  0.1647E+03  0.9829E+03
      3.301  0.1173E+03  0.9857E+03
      3.325  0.6326E+02  0.9873E+03
      3.350  0.2455E+02  0.9879E+03
      3.374  0.4387E+01  0.9880E+03
      3.399  0.2724E+00  0.9880E+03
      3.423  0.5320E-02  0.9880E+03
      3.448  0.1344E-02  0.9880E+03
      3.472  0.7985E-01  0.9880E+03
      3.497  0.1539E+01  0.9880E+03
      3.521  0.1109E+02  0.9883E+03
      3.546  0.3787E+02  0.9892E+03
      3.570  0.7762E+02  0.9911E+03
      3.595  0.1103E+03  0.9938E+03
      3.619  0.1170E+03  0.9967E+03
      3.644  0.9750E+02  0.9991E+03
      3.668  0.6477E+02  0.1001E+04
      3.692  0.3934E+02  0.1002E+04
      3.717  0.1335E+02  0.1002E+04
      3.741  0.1590E+01  0.1002E+04
      3.766  0.5781E-01  0.1002E+04
      3.790  0.6108E-03  0.1002E+04
      3.815  0.1824E-05  0.1002E+04
      3.839  0.1510E-08  0.1002E+04
      3.864  0.3426E-12  0.1002E+04
      3.888  0.0000E+00  0.1002E+04
      3.913  0.0000E+00  0.1002E+04
      3.937  0.0000E+00  0.1002E+04
      3.962  0.0000E+00  0.1002E+04
      3.986  0.0000E+00  0.1002E+04
      4.011  0.0000E+00  0.1002E+04
