       N       E                     dE             d eps       ncg     rms          rms(c)
DAV:   1    -0.268507775633E+03   -0.26851E+03   -0.12450E+05  4008   0.665E+02
DAV:   2    -0.888588846574E+03   -0.62008E+03   -0.56828E+03  4604   0.698E+01
DAV:   3    -0.931399129358E+03   -0.42810E+02   -0.38843E+02  5112   0.144E+01
DAV:   4    -0.932790198644E+03   -0.13911E+01   -0.13696E+01  4616   0.285E+00
DAV:   5    -0.932820781457E+03   -0.30583E-01   -0.30541E-01  4696   0.451E-01    0.769E+00
DAV:   6    -0.935846061446E+03   -0.30253E+01   -0.82124E+00  4584   0.452E+00    0.818E+00
DAV:   7    -0.926079157635E+03    0.97669E+01   -0.78586E+00  4648   0.410E+00    0.401E+00
DAV:   8    -0.924677462843E+03    0.14017E+01   -0.32348E+00  4576   0.185E+00    0.242E+00
DAV:   9    -0.924220009611E+03    0.45745E+00   -0.16519E+00  4320   0.108E+00    0.127E+00
DAV:  10    -0.924301600979E+03   -0.81591E-01   -0.38043E-01  4776   0.716E-01    0.127E+00
DAV:  11    -0.924117507057E+03    0.18409E+00   -0.20477E-01  4608   0.508E-01    0.509E-01
DAV:  12    -0.924114559118E+03    0.29479E-02   -0.61352E-02  4488   0.220E-01    0.304E-01
DAV:  13    -0.924113401272E+03    0.11578E-02   -0.21070E-02  4520   0.165E-01    0.231E-01
DAV:  14    -0.924108553295E+03    0.48480E-02   -0.63958E-03  4496   0.998E-02    0.112E-01
DAV:  15    -0.924107777585E+03    0.77571E-03   -0.19805E-03  4384   0.452E-02    0.482E-02
DAV:  16    -0.924107946236E+03   -0.16865E-03   -0.70059E-04  4656   0.303E-02    0.463E-02
DAV:  17    -0.924107638533E+03    0.30770E-03   -0.39261E-04  4592   0.229E-02    0.152E-02
DAV:  18    -0.924107611128E+03    0.27405E-04   -0.10303E-04  4296   0.847E-03    0.817E-03
DAV:  19    -0.924107603454E+03    0.76735E-05   -0.17926E-05  2928   0.491E-03
   1 F= -.92410760E+03 E0= -.92405143E+03  d E =-.112345E+00
