Li                                      
           1
    21.000500    0.000000    0.000000
     0.000000   21.000500    0.000000
     0.000000    0.000000   21.000500
   Li
   500
Direct configuration=     1
   0.99427455  0.02062776  0.01775763
   0.02433731  0.11416045  0.09463461
   0.02350833  0.21133401  0.19316319
   0.00570539  0.30710921  0.30204965
   0.99710087  0.41117260  0.40994767
   0.01321805  0.49135425  0.50181851
   0.00725599  0.60111274  0.59494970
   0.00728175  0.70023637  0.69555552
   0.00775667  0.82353702  0.80058347
   0.00135757  0.90395055  0.89287529
   0.12079062  0.99532128  0.10216114
   0.10057265  0.10290525  0.19634496
   0.10772922  0.20763301  0.30905746
   0.09439171  0.30219010  0.41651526
   0.10245867  0.40505138  0.49919259
   0.08730162  0.49362991  0.60287750
   0.10452495  0.59604013  0.70411593
   0.09549376  0.72594322  0.80529052
   0.10989260  0.81159590  0.89580282
   0.08700433  0.91227269  0.99564798
   0.20947228  0.01249390  0.20647788
   0.18312651  0.10297193  0.31037615
   0.19193439  0.21170344  0.41799829
   0.20462125  0.29845964  0.50077043
   0.21139494  0.39487598  0.61587223
   0.19121507  0.49815215  0.71261731
   0.20460029  0.60965416  0.80571982
   0.21254516  0.72163070  0.90409794
   0.18734990  0.80867057  0.02055784
   0.20573090  0.91442905  0.10984546
   0.30312778  0.00227369  0.30444459
   0.29248384  0.09430940  0.39922703
   0.29391852  0.19950478  0.49923478
   0.30602672  0.28450671  0.59196307
   0.30169273  0.39526801  0.70789996
   0.30658416  0.49815124  0.79193748
   0.28843682  0.61037459  0.90212759
   0.30141563  0.70779835  0.01563609
   0.29508690  0.79785167  0.09860210
   0.30310744  0.91271613  0.20549194
   0.41309899  0.01378502  0.39048701
   0.39142501  0.09477497  0.50195211
   0.40083584  0.20295241  0.58362337
   0.40945229  0.29255978  0.70804032
   0.40489783  0.40850893  0.79221862
   0.39063446  0.50077398  0.91392752
   0.38890867  0.59675438  0.99866303
   0.40016595  0.71274715  0.11498633
   0.39050186  0.80854106  0.21031459
   0.39451416  0.90571182  0.30178253
   0.49747369  0.00855454  0.50433431
   0.49477810  0.10220930  0.57640180
   0.49183793  0.18947728  0.70015621
   0.49119388  0.29436345  0.79638554
   0.49342618  0.40881856  0.89184236
   0.50128554  0.49556376  0.98699707
   0.49597823  0.60368858  0.09711760
   0.48564223  0.68387335  0.20246308
   0.48774071  0.79990953  0.31044789
   0.50053454  0.90017485  0.40397491
   0.61584825  0.99860114  0.59828160
   0.59537705  0.09377532  0.69234018
   0.59095542  0.18782344  0.80901141
   0.58926492  0.29487154  0.91065078
   0.59431311  0.38541699  0.99556599
   0.59981574  0.49305268  0.10629743
   0.59933626  0.58317562  0.20061383
   0.58396630  0.70116196  0.30229226
   0.58376887  0.79898176  0.38794002
   0.60447374  0.90344125  0.50264057
   0.70823099  0.01196436  0.69295220
   0.69913936  0.09136970  0.80464065
   0.70490221  0.18806243  0.90212338
   0.70097228  0.29302712  0.99197307
   0.70163894  0.39730467  0.09970142
   0.70473037  0.49585700  0.20210444
   0.67823084  0.57679025  0.31796051
   0.68473754  0.68001093  0.39136995
   0.69425333  0.80414196  0.47725285
   0.70408893  0.90435674  0.59316845
   0.79540411  0.00246794  0.80313605
   0.80850047  0.10650038  0.90321690
   0.80273214  0.20566467  0.00216820
   0.80649680  0.30450180  0.09965360
   0.80754242  0.39626890  0.18535478
   0.80598655  0.49883007  0.30588216
   0.78665373  0.59488591  0.39950781
   0.79509647  0.70152366  0.50585968
   0.80346446  0.81105425  0.59506891
   0.78849596  0.90383816  0.69935082
   0.90112402  0.00595130  0.90932590
   0.89539593  0.11427380  0.99227652
   0.91874319  0.20525352  0.09792879
   0.91756274  0.30725500  0.19904947
   0.90271933  0.40882577  0.30175332
   0.90340552  0.49288540  0.41247432
   0.90256765  0.60587362  0.49212426
   0.89767842  0.70328284  0.60355061
   0.89646062  0.80964770  0.69938545
   0.90570871  0.90888620  0.79541384
   0.10940377  0.09352867  0.99488627
   0.11188627  0.21466592  0.10008444
   0.10652601  0.31036164  0.19976712
   0.10351659  0.40611760  0.30661961
   0.10106288  0.49766892  0.39792887
   0.11110240  0.60724192  0.49908853
   0.10679418  0.70693217  0.59468857
   0.10401494  0.81273848  0.68645421
   0.10309146  0.90456606  0.80383773
   0.10242810  0.99473383  0.90425961
   0.20549859  0.09819674  0.09689941
   0.20615160  0.19431374  0.20780454
   0.20064429  0.29338331  0.31180297
   0.18820799  0.39316733  0.39973524
   0.19735130  0.50288910  0.49971238
   0.20457900  0.60130373  0.60575321
   0.20320712  0.71587040  0.70260601
   0.20103098  0.80225949  0.80173667
   0.20571496  0.90464506  0.91923649
   0.20627797  0.00885889  0.00608467
   0.29973270  0.10252697  0.20955452
   0.29791623  0.19364827  0.31480578
   0.31316138  0.30519889  0.39708644
   0.28711136  0.41045072  0.50911682
   0.30389202  0.49559577  0.59450942
   0.30535176  0.60855483  0.71226435
   0.29849888  0.70264817  0.79201369
   0.30059022  0.79386308  0.90023322
   0.30804908  0.89308475  0.99627909
   0.30671798  0.00774686  0.09958995
   0.40688346  0.10490389  0.30070595
   0.40726833  0.20245601  0.41408099
   0.40420730  0.29949782  0.49760378
   0.41002830  0.39087219  0.60694493
   0.40196292  0.51253768  0.69879047
   0.39371493  0.61647773  0.80546550
   0.40665643  0.68749387  0.91322886
   0.39817324  0.80144251  0.00426221
   0.39689807  0.90158958  0.09958754
   0.42047654  0.00762462  0.19489346
   0.50560089  0.10412825  0.39580335
   0.51119441  0.19586591  0.50183734
   0.51361477  0.29909554  0.59227254
   0.50644294  0.41101511  0.70021499
   0.48845579  0.50275012  0.81604441
   0.51169410  0.59849815  0.90977878
   0.49154621  0.69629959  0.01437071
   0.49742760  0.80644055  0.11100457
   0.50040499  0.89777724  0.20766677
   0.50308256  0.00937645  0.30328658
   0.61451988  0.10122592  0.48924819
   0.60195099  0.19664274  0.59451019
   0.60317238  0.30319122  0.70648176
   0.59070249  0.38669844  0.79982771
   0.60516730  0.49167586  0.88179029
   0.61819607  0.60220098  0.99135458
   0.58983810  0.69209827  0.10874784
   0.58570765  0.78314879  0.20499864
   0.59859009  0.89242989  0.29292903
   0.58868939  0.99580983  0.40666272
   0.70131564  0.09276762  0.59498569
   0.70048176  0.18903541  0.70029885
   0.69674045  0.29779469  0.79667549
   0.68899955  0.39121274  0.89075264
   0.69788690  0.48584714  0.99727494
   0.70467862  0.59120455  0.09151848
   0.69836991  0.69074813  0.21723488
   0.71046022  0.79422297  0.30361168
   0.69462219  0.89259225  0.39513717
   0.71127834  0.99713936  0.49857789
   0.80810503  0.10366267  0.70318735
   0.81348214  0.19951793  0.79761336
   0.79950990  0.30230831  0.88979816
   0.79255496  0.38490754  0.99545505
   0.78285834  0.50356830  0.09323457
   0.79944619  0.59302543  0.20851470
   0.79739031  0.68570078  0.30352341
   0.80179464  0.77504691  0.38950070
   0.79737279  0.90255544  0.49022604
   0.80564572  0.00765756  0.60671937
   0.90756290  0.10913598  0.81406826
   0.89926653  0.20584005  0.89517305
   0.90673420  0.29843854  0.99786314
   0.89817844  0.40193889  0.07981881
   0.90654828  0.48979905  0.18895762
   0.90866357  0.60219413  0.31210670
   0.89974836  0.69472894  0.39493467
   0.91211773  0.79369239  0.49562232
   0.88996502  0.90999950  0.60700504
   0.89457411  0.00475596  0.70917374
   0.01496315  0.10858337  0.90722637
   0.01679128  0.19703352  0.99288605
   0.00554921  0.30215482  0.09634307
   0.99491468  0.40106236  0.20459320
   0.98161726  0.49513737  0.29851642
   0.01086476  0.59865972  0.40336134
   0.00588894  0.69130739  0.50076976
   0.00210252  0.80986112  0.61394883
   0.01100348  0.91173316  0.69495883
   0.00150760  0.00400724  0.79371022
   0.21101478  0.20597917  0.99744998
   0.21272939  0.30686820  0.09192641
   0.19640558  0.39554938  0.19929666
   0.20565198  0.49496605  0.28919611
   0.20845965  0.60751236  0.39132881
   0.20508605  0.69868136  0.50631649
   0.19700659  0.80189466  0.59136858
   0.20694876  0.90741404  0.69835839
   0.20694386  0.00090426  0.80440879
   0.19962552  0.08740171  0.90991468
   0.29124505  0.20242324  0.08972219
   0.30696719  0.28620405  0.21065580
   0.30157764  0.37826691  0.30128690
   0.29222416  0.50736319  0.40237317
   0.31123195  0.59647949  0.50831336
   0.30351036  0.69868940  0.61467431
   0.29169724  0.80571337  0.70822726
   0.30497458  0.91299405  0.81934746
   0.29480755  0.99818785  0.92010945
   0.30227845  0.09469796  0.00543982
   0.40309296  0.21120578  0.19187970
   0.38990647  0.29121291  0.31225073
   0.38997716  0.39441854  0.40595225
   0.40030191  0.47741917  0.50436358
   0.38879451  0.61074765  0.59755715
   0.40018893  0.71865869  0.68942229
   0.40682564  0.80616520  0.80460881
   0.40147905  0.91353422  0.92277491
   0.40891978  0.00395500  0.01276891
   0.39288403  0.11076809  0.11336888
   0.49381647  0.21274130  0.30704741
   0.49845968  0.31009152  0.41150086
   0.50906712  0.41106284  0.49871918
   0.49609631  0.50420106  0.59650339
   0.50497499  0.59748833  0.69733967
   0.50597462  0.70879264  0.79598412
   0.48658971  0.80196680  0.90858065
   0.50666822  0.90578985  0.00417563
   0.51017203  0.98847195  0.11076437
   0.50511672  0.11280254  0.19247577
   0.59909079  0.21942433  0.39197416
   0.61589190  0.30219496  0.49994483
   0.60729327  0.40277761  0.60418198
   0.61237553  0.51391283  0.70735735
   0.60307296  0.61995397  0.81574454
   0.59696239  0.70269043  0.90481676
   0.59794473  0.80866703  0.02068009
   0.60508252  0.90164087  0.11548174
   0.60547227  0.01278159  0.20757682
   0.60289695  0.11573441  0.29268697
   0.70980307  0.19971028  0.49866543
   0.69994290  0.29614336  0.61056224
   0.69549286  0.40196519  0.69508575
   0.70589850  0.49250630  0.78929008
   0.71065972  0.59571913  0.89974675
   0.69290184  0.70425796  0.99695799
   0.68831711  0.79246197  0.10901818
   0.69673983  0.89427048  0.20374931
   0.70335986  0.00325582  0.30325505
   0.70517350  0.09988445  0.39876417
   0.79454927  0.19402992  0.58249639
   0.79838016  0.28359973  0.69847342
   0.79559968  0.38106779  0.78437591
   0.80529068  0.47744173  0.89582861
   0.79564438  0.59174733  0.98694361
   0.78982291  0.68908426  0.09245872
   0.78571968  0.78770963  0.19345786
   0.79683823  0.87961409  0.28813841
   0.80772093  0.98865361  0.39252237
   0.79574215  0.08956617  0.48076798
   0.90467872  0.18419291  0.69081028
   0.91076137  0.29683701  0.78368196
   0.89877493  0.39658678  0.89345884
   0.88947557  0.50402316  0.99726187
   0.89602486  0.60399605  0.09783105
   0.89061051  0.69099099  0.20004138
   0.89242500  0.77081923  0.29015279
   0.89147029  0.88924587  0.40147883
   0.90359604  0.98896801  0.49101036
   0.90187239  0.08015570  0.59155111
   0.00540012  0.20053876  0.79885375
   0.01700685  0.30171751  0.88785315
   0.99969620  0.40841982  0.98220956
   0.00539319  0.50936487  0.09687233
   0.99869044  0.59888275  0.20636562
   0.00228282  0.70272697  0.30055155
   0.00421395  0.78884690  0.38847999
   0.98971763  0.88701964  0.50212350
   0.98701441  0.99482436  0.58771408
   0.99911574  0.09711154  0.69570507
   0.10163704  0.20029272  0.90739109
   0.10449292  0.30477759  0.01189503
   0.08126242  0.40379977  0.09373050
   0.09785451  0.49506416  0.20435481
   0.10088207  0.58578540  0.29959983
   0.09698820  0.69358893  0.40054122
   0.08913658  0.78394643  0.49504942
   0.10965149  0.90094704  0.59306857
   0.10885670  0.01472665  0.69710907
   0.10449669  0.09727454  0.80435724
   0.31023949  0.30876594  0.99558315
   0.29990612  0.39082689  0.11053474
   0.30792775  0.49536357  0.20822813
   0.31206455  0.59934645  0.30314482
   0.31247083  0.68898341  0.39943238
   0.29931841  0.79812878  0.49083857
   0.29038963  0.88685848  0.59291189
   0.29896501  0.99537689  0.69455636
   0.28059767  0.08855894  0.81291118
   0.31061367  0.20554829  0.90341318
   0.37152108  0.30301144  0.08649713
   0.40063734  0.38955399  0.19925222
   0.39484718  0.49412985  0.31307421
   0.39657969  0.59466015  0.41021519
   0.40544639  0.70646140  0.50366077
   0.39173478  0.81131547  0.58306361
   0.39626448  0.90864333  0.69464994
   0.39763045  0.99344387  0.80831127
   0.39611248  0.09708779  0.89047210
   0.39051093  0.20163812  0.00539410
   0.48386179  0.30428675  0.19320538
   0.49355723  0.38967911  0.30080525
   0.48945843  0.49695581  0.40853513
   0.49454012  0.59135403  0.50872312
   0.51528983  0.70312129  0.61267157
   0.49625395  0.81194587  0.68732444
   0.49660672  0.90392855  0.79175177
   0.50556939  0.99887652  0.91873459
   0.49754231  0.09799720  0.01866187
   0.49579397  0.21216770  0.10694091
   0.59295787  0.31572578  0.30643162
   0.59502187  0.40053643  0.40096471
   0.61768556  0.49269793  0.50213190
   0.61207764  0.60669275  0.59099345
   0.61747728  0.71348065  0.69733202
   0.59537007  0.79756358  0.79471443
   0.59844124  0.89203319  0.89872671
   0.60992094  0.99728157  0.99813758
   0.60484510  0.11068308  0.11185819
   0.58376606  0.21557672  0.21125123
   0.69840144  0.30476735  0.39135557
   0.71299551  0.40081212  0.50676275
   0.70353795  0.49135934  0.59829488
   0.70975740  0.60298716  0.69894999
   0.69957747  0.69237410  0.79282435
   0.68758686  0.80674037  0.88657935
   0.69441805  0.90189464  0.99090634
   0.71084066  0.00939264  0.10544230
   0.70004227  0.11601364  0.20264371
   0.68475753  0.21638853  0.29244453
   0.79324621  0.30666538  0.49034389
   0.80706240  0.39347962  0.61392799
   0.80226129  0.49830731  0.68815755
   0.79815532  0.60130680  0.79632602
   0.79151109  0.69855872  0.89127902
   0.79410825  0.81590548  0.99075131
   0.78682194  0.89750133  0.09744916
   0.80347342  0.01532275  0.20221083
   0.79737593  0.12676889  0.30391975
   0.80751190  0.20252518  0.39582518
   0.89361257  0.29047147  0.59327911
   0.91176219  0.40232915  0.69545552
   0.88698221  0.49016661  0.78665556
   0.89292480  0.61077160  0.89595590
   0.88612653  0.70435890  0.00629232
   0.89523457  0.80578497  0.11473140
   0.87064918  0.90954709  0.19375818
   0.89804380  0.00614669  0.29614428
   0.90787109  0.10147660  0.39236393
   0.90161508  0.18892571  0.49986131
   0.99322782  0.28557176  0.68147808
   0.00794559  0.40632710  0.80646553
   0.99669574  0.51147178  0.89154548
   0.00794418  0.61580946  0.01103883
   0.00383418  0.70669582  0.10593526
   0.99699564  0.79773241  0.22301220
   0.97623249  0.88774914  0.27290175
   0.98827816  0.98800135  0.38038274
   0.00369168  0.08504467  0.48882985
   0.00489957  0.18440992  0.60157119
   0.11368535  0.29154869  0.78833834
   0.10035635  0.40349536  0.90259665
   0.10983304  0.51430335  0.99596625
   0.10773579  0.59128036  0.11012843
   0.09673979  0.69462176  0.20420484
   0.08235393  0.80444878  0.30428458
   0.08065026  0.88671255  0.38618569
   0.09621104  0.99504767  0.47519795
   0.09941520  0.09435100  0.57986918
   0.10797648  0.19203342  0.70101838
   0.18912811  0.28885342  0.90742713
   0.19154358  0.39946575  0.98768158
   0.19594641  0.49184089  0.10741698
   0.21683935  0.59154213  0.21101906
   0.20734515  0.69073096  0.30025169
   0.19939505  0.78006203  0.39790978
   0.19116687  0.89816067  0.49661419
   0.20203049  0.01183763  0.57766934
   0.20853874  0.09931126  0.69733855
   0.20613911  0.19921718  0.81285045
   0.39017404  0.40631050  0.99587727
   0.39612041  0.48514648  0.09301137
   0.40896710  0.58566010  0.19975853
   0.40849233  0.68888861  0.30959307
   0.39560168  0.79969917  0.39634829
   0.40555514  0.89974009  0.49135933
   0.39893958  0.98217383  0.58984884
   0.38961365  0.08945833  0.69724877
   0.39758552  0.18969683  0.80524169
   0.40261725  0.30520780  0.89531584
   0.48559329  0.40289356  0.09165833
   0.49644568  0.48983716  0.20131073
   0.49407820  0.58876734  0.32159266
   0.49052830  0.70279544  0.40315993
   0.49982615  0.79734613  0.51517121
   0.51345153  0.90610472  0.59775125
   0.49532906  0.99330473  0.68463344
   0.49081881  0.08368504  0.79608859
   0.48438701  0.18187383  0.91790287
   0.49137302  0.31086014  0.00269006
   0.59159877  0.39653461  0.19199034
   0.58941474  0.47991179  0.31375964
   0.59509776  0.59326610  0.42457949
   0.59319039  0.71370571  0.50965291
   0.62733820  0.81148201  0.59771505
   0.62280601  0.90942931  0.68890289
   0.59123731  0.99475391  0.80904041
   0.58991822  0.09896265  0.89778788
   0.59252239  0.19263752  0.00096280
   0.59599384  0.30522645  0.08637072
   0.71395138  0.39711960  0.29663711
   0.70850626  0.49246102  0.40981222
   0.69099672  0.60913602  0.50283973
   0.70801476  0.70660285  0.60032720
   0.69807073  0.79659754  0.70340784
   0.69740563  0.90222847  0.80390240
   0.69559882  0.00609295  0.90164513
   0.69553482  0.10725022  0.99789127
   0.69655920  0.21203447  0.09242557
   0.69781247  0.30558560  0.20122315
   0.80204012  0.40649181  0.40251436
   0.79671677  0.50469218  0.50423339
   0.79564717  0.60560071  0.58636634
   0.80936797  0.70872407  0.69582178
   0.80457552  0.80033231  0.80808573
   0.80377542  0.89814818  0.89948894
   0.80672553  0.00423030  0.99824075
   0.79446027  0.12699843  0.10601377
   0.79499609  0.20833149  0.19281293
   0.79523241  0.30928405  0.29019549
   0.90179317  0.40670721  0.51094259
   0.90244399  0.49145668  0.59074945
   0.89273872  0.58019457  0.69781860
   0.90662396  0.70118020  0.79093260
   0.90952639  0.79598644  0.90399571
   0.91126996  0.89833124  0.01065739
   0.88492410  0.01214365  0.07659124
   0.90757826  0.11853411  0.20190637
   0.91638765  0.20361383  0.29255694
   0.90399029  0.30096363  0.39822482
   0.00644263  0.38959600  0.60659219
   0.99204031  0.49386525  0.70516163
   0.99615399  0.60304212  0.79274196
   0.99733211  0.69933801  0.89541676
   0.00275175  0.78897792  0.99785445
   0.99052676  0.89956798  0.11330457
   0.98585618  0.01672898  0.19499914
   0.00406281  0.11340937  0.29778941
   0.99325452  0.19269098  0.39457634
   0.99579845  0.30238682  0.49802458
   0.09582109  0.37440923  0.68646068
   0.09271979  0.50062645  0.78985912
   0.09794149  0.61107111  0.88790380
   0.10051443  0.70255001  0.00472281
   0.09815316  0.80584923  0.10743233
   0.10519098  0.91789546  0.20532227
   0.08689075  0.00301201  0.29643449
   0.09529690  0.10670655  0.39722373
   0.08031538  0.18836126  0.50128706
   0.09913171  0.28714749  0.58614058
   0.19945082  0.39393736  0.79122030
   0.19658060  0.51558253  0.88165129
   0.19282246  0.59755872  0.00199494
   0.20252516  0.69928951  0.11325122
   0.19042029  0.80152466  0.20697287
   0.20268628  0.90430601  0.30977271
   0.19217825  0.99724870  0.39060198
   0.18911697  0.08830907  0.48508053
   0.19743403  0.18367770  0.60022305
   0.21040229  0.28239270  0.69004792
   0.28428527  0.38824493  0.89364681
   0.28721560  0.49587704  0.99956445
   0.29478459  0.59235492  0.10086704
   0.31037999  0.69761383  0.20617424
   0.29489216  0.80091927  0.29318565
   0.30076882  0.89393553  0.41234723
   0.30895421  0.99427113  0.48485100
   0.29370607  0.10002033  0.58507866
   0.30764620  0.17765701  0.71113053
   0.30269313  0.30481350  0.80215143
