 500 500   0   0
  0.1910214E+02  0.2121700E-08  0.2121700E-08  0.2121700E-08  0.5000000E-15
  1.000000000000000E-004
  CAR 
 Li                                      
      3.86873410     -3.37247981  301      0.55732257      1.00000000
     -3.372  0.0000E+00  0.0000E+00
     -3.348  0.0000E+00  0.0000E+00
     -3.324  0.0000E+00  0.0000E+00
     -3.300  0.0000E+00  0.0000E+00
     -3.276  0.0000E+00  0.0000E+00
     -3.252  0.0000E+00  0.0000E+00
     -3.228  0.0000E+00  0.0000E+00
     -3.204  0.1780E-11  0.4297E-13
     -3.179  0.5875E-08  0.1418E-09
     -3.155  0.5463E-05  0.1320E-06
     -3.131  0.1445E-02  0.3500E-04
     -3.107  0.1103E+00  0.2697E-02
     -3.083  0.2479E+01  0.6253E-01
     -3.059  0.1683E+02  0.4687E+00
     -3.035  0.3529E+02  0.1321E+01
     -3.010  0.2315E+02  0.1879E+01
     -2.986  0.5198E+01  0.2005E+01
     -2.962  0.8672E+01  0.2214E+01
     -2.938  0.4850E+02  0.3385E+01
     -2.914  0.9871E+02  0.5767E+01
     -2.890  0.7217E+02  0.7509E+01
     -2.866  0.1905E+02  0.7969E+01
     -2.841  0.8897E+01  0.8184E+01
     -2.817  0.4502E+02  0.9271E+01
     -2.793  0.9769E+02  0.1163E+02
     -2.769  0.7573E+02  0.1346E+02
     -2.745  0.2100E+02  0.1396E+02
     -2.721  0.1012E+02  0.1421E+02
     -2.697  0.5424E+02  0.1552E+02
     -2.672  0.1253E+03  0.1854E+02
     -2.648  0.1063E+03  0.2111E+02
     -2.624  0.3384E+02  0.2192E+02
     -2.600  0.1574E+02  0.2230E+02
     -2.576  0.7519E+02  0.2412E+02
     -2.552  0.1757E+03  0.2836E+02
     -2.528  0.1641E+03  0.3232E+02
     -2.504  0.6090E+02  0.3379E+02
     -2.479  0.1217E+02  0.3409E+02
     -2.455  0.3335E+02  0.3489E+02
     -2.431  0.9351E+02  0.3715E+02
     -2.407  0.8801E+02  0.3927E+02
     -2.383  0.2786E+02  0.3994E+02
     -2.359  0.1151E+02  0.4022E+02
     -2.335  0.5896E+02  0.4164E+02
     -2.310  0.1608E+03  0.4553E+02
     -2.286  0.1782E+03  0.4983E+02
     -2.262  0.7777E+02  0.5170E+02
     -2.238  0.2562E+02  0.5232E+02
     -2.214  0.8645E+02  0.5441E+02
     -2.190  0.2228E+03  0.5979E+02
     -2.166  0.2566E+03  0.6598E+02
     -2.141  0.1343E+03  0.6922E+02
     -2.117  0.3202E+02  0.6999E+02
     -2.093  0.2437E+02  0.7058E+02
     -2.069  0.7520E+02  0.7240E+02
     -2.045  0.9569E+02  0.7471E+02
     -2.021  0.4575E+02  0.7581E+02
     -1.997  0.1482E+02  0.7617E+02
     -1.973  0.5577E+02  0.7751E+02
     -1.948  0.1674E+03  0.8155E+02
     -1.924  0.2106E+03  0.8664E+02
     -1.900  0.1132E+03  0.8937E+02
     -1.876  0.3257E+02  0.9016E+02
     -1.852  0.6406E+02  0.9170E+02
     -1.828  0.1917E+03  0.9633E+02
     -1.804  0.2646E+03  0.1027E+03
     -1.779  0.1682E+03  0.1068E+03
     -1.755  0.4745E+02  0.1079E+03
     -1.731  0.2623E+02  0.1086E+03
     -1.707  0.9952E+02  0.1110E+03
     -1.683  0.1829E+03  0.1154E+03
     -1.659  0.1418E+03  0.1188E+03
     -1.635  0.5270E+02  0.1201E+03
     -1.610  0.6534E+02  0.1216E+03
     -1.586  0.1859E+03  0.1261E+03
     -1.562  0.2611E+03  0.1324E+03
     -1.538  0.1740E+03  0.1366E+03
     -1.514  0.5494E+02  0.1380E+03
     -1.490  0.4663E+02  0.1391E+03
     -1.466  0.1565E+03  0.1429E+03
     -1.441  0.2582E+03  0.1491E+03
     -1.417  0.2014E+03  0.1540E+03
     -1.393  0.7517E+02  0.1558E+03
     -1.369  0.3475E+02  0.1566E+03
     -1.345  0.1035E+03  0.1591E+03
     -1.321  0.1813E+03  0.1635E+03
     -1.297  0.1380E+03  0.1668E+03
     -1.273  0.5170E+02  0.1681E+03
     -1.248  0.5338E+02  0.1693E+03
     -1.224  0.1158E+03  0.1721E+03
     -1.200  0.1430E+03  0.1756E+03
     -1.176  0.1196E+03  0.1785E+03
     -1.152  0.6361E+02  0.1800E+03
     -1.128  0.7855E+02  0.1819E+03
     -1.104  0.2121E+03  0.1870E+03
     -1.079  0.3496E+03  0.1955E+03
     -1.055  0.3436E+03  0.2038E+03
     -1.031  0.1999E+03  0.2086E+03
     -1.007  0.9032E+02  0.2108E+03
     -0.983  0.1460E+03  0.2143E+03
     -0.959  0.2410E+03  0.2201E+03
     -0.935  0.2098E+03  0.2252E+03
     -0.910  0.1050E+03  0.2277E+03
     -0.886  0.5344E+02  0.2290E+03
     -0.862  0.6715E+02  0.2306E+03
     -0.838  0.1410E+03  0.2340E+03
     -0.814  0.1956E+03  0.2387E+03
     -0.790  0.1474E+03  0.2423E+03
     -0.766  0.1573E+03  0.2461E+03
     -0.742  0.2282E+03  0.2516E+03
     -0.717  0.2592E+03  0.2579E+03
     -0.693  0.2188E+03  0.2631E+03
     -0.669  0.9861E+02  0.2655E+03
     -0.645  0.2202E+02  0.2661E+03
     -0.621  0.3122E+02  0.2668E+03
     -0.597  0.8700E+02  0.2689E+03
     -0.573  0.9124E+02  0.2711E+03
     -0.548  0.4851E+02  0.2723E+03
     -0.524  0.9436E+02  0.2746E+03
     -0.500  0.2296E+03  0.2801E+03
     -0.476  0.3194E+03  0.2878E+03
     -0.452  0.3354E+03  0.2959E+03
     -0.428  0.2933E+03  0.3030E+03
     -0.404  0.1921E+03  0.3076E+03
     -0.379  0.1610E+03  0.3115E+03
     -0.355  0.2403E+03  0.3173E+03
     -0.331  0.3006E+03  0.3246E+03
     -0.307  0.2651E+03  0.3310E+03
     -0.283  0.1746E+03  0.3352E+03
     -0.259  0.9372E+02  0.3374E+03
     -0.235  0.7424E+02  0.3392E+03
     -0.210  0.1248E+03  0.3422E+03
     -0.186  0.1641E+03  0.3462E+03
     -0.162  0.1905E+03  0.3508E+03
     -0.138  0.1691E+03  0.3549E+03
     -0.114  0.1414E+03  0.3583E+03
     -0.090  0.1714E+03  0.3624E+03
     -0.066  0.1777E+03  0.3667E+03
     -0.042  0.1636E+03  0.3707E+03
     -0.017  0.2003E+03  0.3755E+03
      0.007  0.2784E+03  0.3822E+03
      0.031  0.3195E+03  0.3899E+03
      0.055  0.2499E+03  0.3960E+03
      0.079  0.1837E+03  0.4004E+03
      0.103  0.2288E+03  0.4059E+03
      0.127  0.2371E+03  0.4117E+03
      0.152  0.1385E+03  0.4150E+03
      0.176  0.5520E+02  0.4163E+03
      0.200  0.9326E+02  0.4186E+03
      0.224  0.2076E+03  0.4236E+03
      0.248  0.2796E+03  0.4303E+03
      0.272  0.2906E+03  0.4374E+03
      0.296  0.2544E+03  0.4435E+03
      0.321  0.1824E+03  0.4479E+03
      0.345  0.1709E+03  0.4520E+03
      0.369  0.2132E+03  0.4572E+03
      0.393  0.2185E+03  0.4624E+03
      0.417  0.2243E+03  0.4679E+03
      0.441  0.2240E+03  0.4733E+03
      0.465  0.1877E+03  0.4778E+03
      0.490  0.1949E+03  0.4825E+03
      0.514  0.2510E+03  0.4886E+03
      0.538  0.2703E+03  0.4951E+03
      0.562  0.2485E+03  0.5011E+03
      0.586  0.2246E+03  0.5065E+03
      0.610  0.2209E+03  0.5118E+03
      0.634  0.2209E+03  0.5172E+03
      0.658  0.2038E+03  0.5221E+03
      0.683  0.2068E+03  0.5271E+03
      0.707  0.2628E+03  0.5334E+03
      0.731  0.3219E+03  0.5412E+03
      0.755  0.3539E+03  0.5497E+03
      0.779  0.3689E+03  0.5586E+03
      0.803  0.3531E+03  0.5672E+03
      0.827  0.3183E+03  0.5748E+03
      0.852  0.2900E+03  0.5818E+03
      0.876  0.2787E+03  0.5886E+03
      0.900  0.2833E+03  0.5954E+03
      0.924  0.2845E+03  0.6023E+03
      0.948  0.2612E+03  0.6086E+03
      0.972  0.1945E+03  0.6133E+03
      0.996  0.9194E+02  0.6155E+03
      1.021  0.3285E+02  0.6163E+03
      1.045  0.6176E+02  0.6178E+03
      1.069  0.1165E+03  0.6206E+03
      1.093  0.1413E+03  0.6240E+03
      1.117  0.1733E+03  0.6282E+03
      1.141  0.1848E+03  0.6326E+03
      1.165  0.1884E+03  0.6372E+03
      1.189  0.2209E+03  0.6425E+03
      1.214  0.2499E+03  0.6486E+03
      1.238  0.2496E+03  0.6546E+03
      1.262  0.2313E+03  0.6602E+03
      1.286  0.2408E+03  0.6660E+03
      1.310  0.2754E+03  0.6726E+03
      1.334  0.2960E+03  0.6798E+03
      1.358  0.2959E+03  0.6869E+03
      1.383  0.2915E+03  0.6939E+03
      1.407  0.2735E+03  0.7005E+03
      1.431  0.2452E+03  0.7065E+03
      1.455  0.2156E+03  0.7117E+03
      1.479  0.1850E+03  0.7161E+03
      1.503  0.1600E+03  0.7200E+03
      1.527  0.1647E+03  0.7240E+03
      1.552  0.1898E+03  0.7285E+03
      1.576  0.2110E+03  0.7336E+03
      1.600  0.2220E+03  0.7390E+03
      1.624  0.2310E+03  0.7446E+03
      1.648  0.2261E+03  0.7500E+03
      1.672  0.2074E+03  0.7550E+03
      1.696  0.1871E+03  0.7596E+03
      1.721  0.1694E+03  0.7636E+03
      1.745  0.1574E+03  0.7674E+03
      1.769  0.1383E+03  0.7708E+03
      1.793  0.1307E+03  0.7739E+03
      1.817  0.1604E+03  0.7778E+03
      1.841  0.1735E+03  0.7820E+03
      1.865  0.1522E+03  0.7857E+03
      1.889  0.1212E+03  0.7886E+03
      1.914  0.8424E+02  0.7906E+03
      1.938  0.1019E+03  0.7931E+03
      1.962  0.1442E+03  0.7966E+03
      1.986  0.1697E+03  0.8007E+03
      2.010  0.1952E+03  0.8054E+03
      2.034  0.2137E+03  0.8105E+03
      2.058  0.2244E+03  0.8160E+03
      2.083  0.2498E+03  0.8220E+03
      2.107  0.2687E+03  0.8285E+03
      2.131  0.2658E+03  0.8349E+03
      2.155  0.2519E+03  0.8410E+03
      2.179  0.2304E+03  0.8465E+03
      2.203  0.2007E+03  0.8514E+03
      2.227  0.1836E+03  0.8558E+03
      2.252  0.1880E+03  0.8603E+03
      2.276  0.1706E+03  0.8645E+03
      2.300  0.1346E+03  0.8677E+03
      2.324  0.1141E+03  0.8705E+03
      2.348  0.1142E+03  0.8732E+03
      2.372  0.1162E+03  0.8760E+03
      2.396  0.1161E+03  0.8788E+03
      2.420  0.1283E+03  0.8819E+03
      2.445  0.1536E+03  0.8856E+03
      2.469  0.1697E+03  0.8897E+03
      2.493  0.1651E+03  0.8937E+03
      2.517  0.1599E+03  0.8976E+03
      2.541  0.1586E+03  0.9014E+03
      2.565  0.1487E+03  0.9050E+03
      2.589  0.1338E+03  0.9082E+03
      2.614  0.1166E+03  0.9110E+03
      2.638  0.1110E+03  0.9137E+03
      2.662  0.1080E+03  0.9163E+03
      2.686  0.1181E+03  0.9192E+03
      2.710  0.1453E+03  0.9227E+03
      2.734  0.1594E+03  0.9265E+03
      2.758  0.1536E+03  0.9302E+03
      2.783  0.1567E+03  0.9340E+03
      2.807  0.1662E+03  0.9380E+03
      2.831  0.1531E+03  0.9417E+03
      2.855  0.1112E+03  0.9444E+03
      2.879  0.6090E+02  0.9459E+03
      2.903  0.5657E+02  0.9472E+03
      2.927  0.9499E+02  0.9495E+03
      2.952  0.1146E+03  0.9523E+03
      2.976  0.1319E+03  0.9555E+03
      3.000  0.1504E+03  0.9591E+03
      3.024  0.1546E+03  0.9628E+03
      3.048  0.1555E+03  0.9666E+03
      3.072  0.1593E+03  0.9704E+03
      3.096  0.1596E+03  0.9743E+03
      3.120  0.1675E+03  0.9783E+03
      3.145  0.1680E+03  0.9824E+03
      3.169  0.1316E+03  0.9856E+03
      3.193  0.7374E+02  0.9873E+03
      3.217  0.2384E+02  0.9879E+03
      3.241  0.3295E+01  0.9880E+03
      3.265  0.1611E+00  0.9880E+03
      3.289  0.2779E-02  0.9880E+03
      3.314  0.2654E-01  0.9880E+03
      3.338  0.8797E+00  0.9880E+03
      3.362  0.9424E+01  0.9882E+03
      3.386  0.3700E+02  0.9891E+03
      3.410  0.7166E+02  0.9909E+03
      3.434  0.1002E+03  0.9933E+03
      3.458  0.1083E+03  0.9959E+03
      3.483  0.9447E+02  0.9982E+03
      3.507  0.6892E+02  0.9998E+03
      3.531  0.4553E+02  0.1001E+04
      3.555  0.3099E+02  0.1002E+04
      3.579  0.1113E+02  0.1002E+04
      3.603  0.1395E+01  0.1002E+04
      3.627  0.5470E-01  0.1002E+04
      3.651  0.6428E-03  0.1002E+04
      3.676  0.2210E-05  0.1002E+04
      3.700  0.2189E-08  0.1002E+04
      3.724  0.6186E-12  0.1002E+04
      3.748  0.0000E+00  0.1002E+04
      3.772  0.0000E+00  0.1002E+04
      3.796  0.0000E+00  0.1002E+04
      3.820  0.0000E+00  0.1002E+04
      3.845  0.0000E+00  0.1002E+04
      3.869  0.0000E+00  0.1002E+04
