       N       E                     dE             d eps       ncg     rms          rms(c)
DAV:   1    -0.282454197233E+03   -0.28245E+03   -0.12341E+05  4008   0.662E+02
DAV:   2    -0.890546139266E+03   -0.60809E+03   -0.55763E+03  4588   0.687E+01
DAV:   3    -0.932764556573E+03   -0.42218E+02   -0.38321E+02  5136   0.143E+01
DAV:   4    -0.934146950655E+03   -0.13824E+01   -0.13612E+01  4608   0.283E+00
DAV:   5    -0.934177625741E+03   -0.30675E-01   -0.30631E-01  4720   0.449E-01    0.741E+00
DAV:   6    -0.932332601805E+03    0.18450E+01   -0.67808E+00  4520   0.352E+00    0.626E+00
DAV:   7    -0.928416066459E+03    0.39165E+01   -0.55437E+00  4584   0.342E+00    0.409E+00
DAV:   8    -0.926623495205E+03    0.17926E+01   -0.26443E+00  4584   0.185E+00    0.229E+00
DAV:   9    -0.926203233830E+03    0.42026E+00   -0.14813E+00  4304   0.101E+00    0.119E+00
DAV:  10    -0.926284447116E+03   -0.81213E-01   -0.38102E-01  4720   0.662E-01    0.116E+00
DAV:  11    -0.926132900382E+03    0.15155E+00   -0.19182E-01  4552   0.493E-01    0.520E-01
DAV:  12    -0.926123567979E+03    0.93324E-02   -0.51770E-02  4304   0.190E-01    0.244E-01
DAV:  13    -0.926125431159E+03   -0.18632E-02   -0.13474E-02  4632   0.131E-01    0.204E-01
DAV:  14    -0.926121713602E+03    0.37176E-02   -0.57019E-03  4568   0.948E-02    0.108E-01
DAV:  15    -0.926120772035E+03    0.94157E-03   -0.15299E-03  4496   0.459E-02    0.484E-02
DAV:  16    -0.926120817603E+03   -0.45568E-04   -0.75003E-04  4560   0.280E-02    0.379E-02
DAV:  17    -0.926120632811E+03    0.18479E-03   -0.33585E-04  4520   0.201E-02    0.157E-02
DAV:  18    -0.926120601499E+03    0.31312E-04   -0.76056E-05  4296   0.774E-03    0.806E-03
DAV:  19    -0.926120590959E+03    0.10540E-04   -0.15997E-05  2688   0.432E-03    0.515E-03
DAV:  20    -0.926120587111E+03    0.38479E-05   -0.63046E-06  2288   0.336E-03
   1 F= -.92612059E+03 E0= -.92606684E+03  d E =-.107504E+00
