Li                                      
           1
    21.217000    0.000000    0.000000
     0.000000   21.217000    0.000000
    -0.000000   -0.000000   21.217000
   Li
   500
Direct configuration=     1
   0.98997914  0.99030368  0.00100571
   0.00310802  0.10355371  0.10059183
   0.99902875  0.20280920  0.20745973
   0.98897711  0.31026180  0.30285214
   0.99288451  0.40472745  0.40891006
   0.00508086  0.50198095  0.50661697
   0.98981646  0.60550552  0.58520060
   0.01127591  0.71291468  0.68503899
   0.00397607  0.79824296  0.80817380
   0.00514143  0.89509839  0.91851433
   0.10662881  0.98259481  0.09525143
   0.10445218  0.10671017  0.20374540
   0.08820886  0.21229938  0.30918626
   0.09449621  0.31521371  0.42644423
   0.09989158  0.39284679  0.50582057
   0.09990464  0.50197039  0.60795634
   0.09893893  0.61018515  0.70377836
   0.10546241  0.69505429  0.79904641
   0.11085823  0.78075351  0.91495435
   0.10364943  0.87758062  0.00011378
   0.19263015  0.02396554  0.19510451
   0.20984170  0.10660104  0.30674957
   0.19378086  0.20263079  0.41186062
   0.21027372  0.31199616  0.51677969
   0.20325694  0.39858790  0.62268537
   0.19307914  0.51577611  0.70235894
   0.20264088  0.60816670  0.78485155
   0.20413492  0.69652861  0.90682462
   0.20696433  0.81208773  0.01949351
   0.21583113  0.89609600  0.12056554
   0.30287241  0.00228910  0.30041670
   0.30435851  0.08755902  0.41041217
   0.28377283  0.20820828  0.50599254
   0.29014931  0.30747315  0.60394253
   0.30847887  0.39674459  0.70274012
   0.29240444  0.49901168  0.79937503
   0.29430189  0.59183729  0.88690022
   0.28576302  0.70560687  0.00753374
   0.31274268  0.79566508  0.10895984
   0.29800525  0.90683294  0.20144083
   0.40631151  0.00302454  0.40383097
   0.40080976  0.09964762  0.50384185
   0.39863805  0.22658909  0.59988515
   0.40244711  0.30281708  0.71125498
   0.39479823  0.40952346  0.78883359
   0.39964350  0.50021539  0.89690149
   0.41095714  0.59552115  0.99094309
   0.41150111  0.69094523  0.10941565
   0.39157315  0.78896170  0.21688135
   0.40192977  0.91080690  0.31260448
   0.50667478  0.99882094  0.50654236
   0.49854256  0.10081727  0.59068323
   0.50552485  0.20306011  0.69224083
   0.50558452  0.30597573  0.80010737
   0.50942861  0.39706206  0.88505246
   0.50379253  0.50264520  0.00372901
   0.48145417  0.59404080  0.09094229
   0.51162725  0.70001003  0.20365406
   0.50974766  0.80163678  0.29094374
   0.50291020  0.91334455  0.41091638
   0.60706906  0.00998863  0.59707358
   0.60263995  0.09373922  0.70757578
   0.58793491  0.19013772  0.81647231
   0.61912960  0.31681926  0.88907829
   0.59587648  0.41230560  0.99201907
   0.59056308  0.49606159  0.09858733
   0.59754395  0.58566969  0.20269328
   0.60320071  0.69812105  0.30523714
   0.59107990  0.80641671  0.38846494
   0.60339559  0.90827778  0.49724256
   0.69672929  0.98767534  0.70335327
   0.68878002  0.08921991  0.80220935
   0.68678892  0.18479755  0.88555714
   0.68816502  0.30107814  0.98233900
   0.68947741  0.39926178  0.09701407
   0.71678921  0.49899851  0.17571410
   0.68945146  0.59718480  0.28686097
   0.69917320  0.69419554  0.39835924
   0.71135031  0.79026796  0.49158943
   0.70067469  0.88770872  0.58914036
   0.79492064  0.99432199  0.81173481
   0.78895938  0.10028555  0.90347419
   0.78640927  0.20585275  0.01525659
   0.80869574  0.30742711  0.09082942
   0.82278319  0.38550278  0.20159763
   0.80427769  0.50809354  0.28932547
   0.78904072  0.59598785  0.39213738
   0.78691348  0.69292225  0.49064503
   0.80232250  0.79898730  0.59612318
   0.80034435  0.89200377  0.70559485
   0.89886302  0.00639101  0.90473757
   0.88574101  0.10739942  0.00257962
   0.90974978  0.19281745  0.08301903
   0.91288253  0.29501280  0.19736996
   0.93038723  0.39851151  0.30501508
   0.89852026  0.49929856  0.39970344
   0.90031694  0.60900653  0.48990149
   0.90626442  0.69104700  0.59360224
   0.89873218  0.80130340  0.70177166
   0.91068276  0.89720279  0.80398539
   0.11101553  0.07923480  0.99479624
   0.09050974  0.19269107  0.09311232
   0.08820134  0.30701243  0.19298895
   0.08941511  0.42098828  0.29297534
   0.09781855  0.49126385  0.41235798
   0.10577192  0.60168490  0.49321761
   0.11035227  0.70757639  0.60262690
   0.09889016  0.80988605  0.69239763
   0.11235947  0.88564413  0.81642658
   0.10967025  0.99599558  0.92526700
   0.22167436  0.09320554  0.09689894
   0.19994308  0.19659583  0.19674599
   0.18917218  0.30129444  0.31589885
   0.19730389  0.41162089  0.41007297
   0.21456294  0.49901149  0.51523833
   0.20061776  0.60554811  0.60043983
   0.19331821  0.70380720  0.68886510
   0.20436766  0.79547562  0.81100217
   0.21082467  0.89607527  0.90550574
   0.20636465  0.99692163  0.01262437
   0.29474763  0.11399832  0.21832757
   0.29625489  0.20831516  0.31222893
   0.30762341  0.30996789  0.41187952
   0.29883872  0.40643246  0.51385214
   0.31390761  0.50319605  0.61395792
   0.29998055  0.60670262  0.70534406
   0.31163046  0.69110806  0.80105245
   0.29456344  0.80655497  0.92404506
   0.30372589  0.91224005  0.01504905
   0.31545962  0.00053182  0.11550214
   0.39159890  0.10494316  0.29964442
   0.40821229  0.21451743  0.39871610
   0.40125267  0.29984666  0.50861397
   0.39702004  0.39021138  0.60689158
   0.40164579  0.50826861  0.70855837
   0.41123037  0.59383085  0.81038559
   0.39431797  0.69207064  0.90890978
   0.39547090  0.79723148  0.01766398
   0.39819480  0.89826281  0.11731462
   0.39441423  0.01908384  0.21345486
   0.50410310  0.11953096  0.41042954
   0.51650394  0.21086415  0.50672828
   0.50963261  0.31347714  0.60877072
   0.50414369  0.40228372  0.69928572
   0.51267014  0.50538227  0.79484690
   0.50572541  0.60268348  0.91242467
   0.49892681  0.71356395  0.99762499
   0.49120472  0.78692636  0.12263311
   0.48975385  0.90517987  0.20716207
   0.49784454  0.01508613  0.31575813
   0.60626344  0.10725833  0.50169867
   0.60036364  0.19416531  0.60659379
   0.59790184  0.30400127  0.70783868
   0.60541698  0.40638233  0.78749776
   0.59693394  0.51693981  0.88767191
   0.60353013  0.60122928  0.99771768
   0.59435231  0.68801758  0.10564281
   0.60046105  0.79563300  0.20615080
   0.59574661  0.90427306  0.29702403
   0.59587060  0.01284445  0.39537817
   0.69800114  0.09546464  0.59937517
   0.69055429  0.20113379  0.71165584
   0.69178129  0.29979429  0.80228961
   0.70414661  0.40528576  0.89010289
   0.69609396  0.52082923  0.98627511
   0.70203657  0.58470316  0.09324074
   0.69650862  0.68663178  0.18889100
   0.70457162  0.79970220  0.28974986
   0.70035079  0.89290671  0.38492083
   0.70917934  0.99228222  0.48208048
   0.79974751  0.08265837  0.70833249
   0.80228507  0.20198558  0.79305630
   0.79572408  0.28852705  0.89706056
   0.79891276  0.40437577  0.99650892
   0.80395768  0.47524166  0.10239451
   0.80040249  0.59618941  0.18093339
   0.80716091  0.68837099  0.29875949
   0.79211369  0.79044417  0.38806730
   0.79956718  0.89675002  0.49054293
   0.79292760  0.98008030  0.60529025
   0.89960824  0.08793505  0.80505957
   0.87810208  0.20150748  0.89288571
   0.91474787  0.30015940  0.99215454
   0.91061555  0.39191706  0.08163998
   0.90826012  0.47925954  0.18594954
   0.90903121  0.59544865  0.29333829
   0.89411174  0.69323317  0.38415113
   0.87488096  0.79936574  0.48606242
   0.89088238  0.89420735  0.59948504
   0.90678381  0.98982467  0.71308905
   0.99938104  0.09876994  0.90615876
   0.00194236  0.19873752  0.98752281
   0.00945244  0.28895321  0.08726844
   0.00484253  0.40944341  0.17793327
   0.01683995  0.50627371  0.30015680
   0.00370308  0.59426145  0.40065934
   0.00461431  0.70364136  0.48239757
   0.00660823  0.79572809  0.56939485
   0.99481638  0.89333026  0.70312557
   0.00790607  0.98882516  0.81617816
   0.19884316  0.18156759  0.99112604
   0.19449071  0.28497781  0.09989648
   0.17576839  0.39310832  0.19703911
   0.20299939  0.50315038  0.29726650
   0.20858103  0.59942710  0.40202326
   0.19690886  0.70265010  0.50222915
   0.19744702  0.81237000  0.58357603
   0.19830477  0.88941786  0.69693792
   0.19253387  0.99546943  0.80178634
   0.20788662  0.08137943  0.89838888
   0.30125149  0.19999175  0.10690597
   0.28314051  0.29498392  0.21711614
   0.29541875  0.40300047  0.31341422
   0.30467946  0.50765060  0.41862994
   0.30849209  0.61628765  0.51154079
   0.29620204  0.71352504  0.59270898
   0.30047433  0.79596961  0.71189950
   0.29556294  0.90030999  0.80111923
   0.29245567  0.00241737  0.89926988
   0.30865558  0.09379798  0.00083335
   0.40674673  0.20890819  0.19728832
   0.40163985  0.29631262  0.29952959
   0.40770520  0.41115111  0.41276559
   0.40039198  0.50279091  0.51684934
   0.40299139  0.62047280  0.59282454
   0.39624978  0.69032766  0.69338034
   0.39237265  0.79605967  0.79193519
   0.40167507  0.89598194  0.89548540
   0.39169845  0.99711442  0.00508301
   0.40232031  0.09936643  0.10751495
   0.51145186  0.19946533  0.30205081
   0.50808560  0.30573735  0.40342205
   0.50504613  0.39673084  0.50291045
   0.49582377  0.49831582  0.60397509
   0.50321407  0.60128773  0.68685489
   0.48773029  0.70650390  0.80146561
   0.49776049  0.80269641  0.89311437
   0.49578802  0.88959293  0.01845368
   0.49940295  0.00482816  0.09663667
   0.49410793  0.11270428  0.19354480
   0.60789013  0.21470639  0.40608582
   0.61687375  0.31538738  0.50094407
   0.61014076  0.39964249  0.60266403
   0.60172990  0.50431866  0.69780231
   0.58535601  0.60754160  0.79720619
   0.59701158  0.70428525  0.90695055
   0.60141509  0.80185943  0.01210050
   0.57937561  0.90196337  0.11421258
   0.58242731  0.00373774  0.19969225
   0.59825764  0.11371941  0.29345504
   0.69930828  0.19937146  0.49803242
   0.69585396  0.30250456  0.61040172
   0.70475801  0.39869539  0.69132126
   0.70334683  0.50760257  0.78860787
   0.69763568  0.60330985  0.89948490
   0.70363206  0.69976661  0.00284338
   0.70444160  0.78906789  0.11101044
   0.70625630  0.90727376  0.18575832
   0.69323036  0.99439079  0.28599583
   0.70769754  0.09339033  0.39030091
   0.79197824  0.18416295  0.60629058
   0.79609917  0.29491100  0.69880579
   0.78792733  0.40517792  0.80081488
   0.79918663  0.50264748  0.88094659
   0.80621794  0.58915348  0.00375274
   0.81233521  0.68609673  0.09792601
   0.80317303  0.79385517  0.19326244
   0.79110476  0.89480181  0.27237262
   0.81681342  0.00416820  0.38506233
   0.80087360  0.10007039  0.49215392
   0.89942773  0.19004348  0.68988393
   0.90364773  0.30760782  0.79680908
   0.90720780  0.39960216  0.88837812
   0.90477757  0.48043407  0.99242917
   0.89793927  0.58182477  0.08597887
   0.91682842  0.70486868  0.18035266
   0.89934545  0.80005439  0.28521590
   0.88372325  0.89465855  0.37380791
   0.89576505  0.99084153  0.48491304
   0.88709428  0.09257322  0.59751051
   0.99259079  0.19218169  0.80822184
   0.01714900  0.29173905  0.88713792
   0.02001590  0.39599537  0.97925691
   0.01253798  0.49992636  0.07968667
   0.00330966  0.58285424  0.20086621
   0.01540614  0.70252314  0.30821445
   0.98410035  0.82115212  0.39415172
   0.99081479  0.89759857  0.47717142
   0.00222306  0.99106432  0.58317628
   0.98694877  0.07241628  0.70660785
   0.10535218  0.18905085  0.90190380
   0.10421657  0.29902991  0.98633950
   0.09697702  0.39470036  0.08651361
   0.10701289  0.50793907  0.18803340
   0.11486051  0.59297828  0.30667880
   0.11981967  0.70199005  0.38551373
   0.09406924  0.81035742  0.46857805
   0.09309665  0.89600795  0.58684903
   0.10072993  0.99796867  0.70076332
   0.08987310  0.09436340  0.80631435
   0.29369846  0.29492119  0.00655608
   0.29474554  0.39640362  0.11548302
   0.29322051  0.50056398  0.20402166
   0.30844519  0.59550828  0.29897748
   0.31457473  0.68725517  0.39339971
   0.29947068  0.79338501  0.49146429
   0.29131692  0.89105625  0.59193406
   0.28680732  0.99842991  0.69401238
   0.30230186  0.10075327  0.79226581
   0.30637527  0.19547528  0.90628449
   0.39267328  0.30438277  0.10032878
   0.39333771  0.39688710  0.20899134
   0.40417278  0.49750869  0.30654326
   0.41871327  0.60125115  0.41284531
   0.41092085  0.70707751  0.50156063
   0.40057066  0.79382350  0.60932726
   0.39720676  0.91775440  0.69716729
   0.39999489  0.00186358  0.78642278
   0.39772753  0.10432746  0.90370334
   0.40545635  0.19532276  0.00267299
   0.50350793  0.31035898  0.21024546
   0.50882485  0.40748488  0.30797366
   0.51435177  0.50254988  0.40877630
   0.50637814  0.59329583  0.51729337
   0.50174501  0.70968692  0.60011229
   0.50820324  0.80655020  0.69034862
   0.49821904  0.89682942  0.78553312
   0.48588887  0.99193439  0.89432038
   0.49732120  0.09667463  0.00224535
   0.50444614  0.22039807  0.09183429
   0.59351632  0.30206475  0.30283653
   0.60627007  0.40149621  0.40490151
   0.59558305  0.48965868  0.51151239
   0.60081359  0.59880584  0.62022137
   0.59732152  0.71571947  0.69823531
   0.60188859  0.80122814  0.80586815
   0.58671649  0.89769176  0.89932171
   0.58119249  0.99963950  0.99899678
   0.59419251  0.10761075  0.11318417
   0.58753596  0.19357103  0.20251587
   0.71500985  0.31404236  0.40226643
   0.71552964  0.40521885  0.50392084
   0.69303891  0.49461569  0.62096417
   0.69596553  0.60895769  0.70520854
   0.69694041  0.70185456  0.82164322
   0.69378115  0.80572581  0.91870158
   0.68380624  0.89818089  0.00141099
   0.67586615  0.99549155  0.09071640
   0.68550851  0.10537876  0.20051649
   0.69495127  0.21727809  0.29458425
   0.79909602  0.30878274  0.50933515
   0.79266437  0.39539391  0.61043692
   0.80183100  0.51153067  0.69790167
   0.79612187  0.61299711  0.80322475
   0.81143846  0.69943215  0.91813349
   0.79575244  0.81242900  0.00635853
   0.79795469  0.90572111  0.09879753
   0.80116573  0.00630759  0.20077250
   0.80506582  0.10397008  0.29865146
   0.80838313  0.21946954  0.39963692
   0.88702882  0.29270972  0.61843747
   0.91613910  0.40632776  0.71045838
   0.89269891  0.49973887  0.80239677
   0.89931651  0.59691822  0.90936434
   0.91102130  0.70086570  0.01640753
   0.90481041  0.80040172  0.10154524
   0.89271778  0.91031771  0.19520418
   0.88640983  0.00994882  0.29270661
   0.90578857  0.10428175  0.40209725
   0.89522465  0.20230979  0.50749573
   0.99537661  0.29040609  0.69973100
   0.01680398  0.40976265  0.80908881
   0.00181562  0.50677883  0.89313605
   0.01121202  0.59565035  0.99919958
   0.01318256  0.69543088  0.10823310
   0.99690358  0.79298646  0.19927233
   0.00354715  0.91203255  0.28232865
   0.98918997  0.00136301  0.38846208
   0.99746517  0.09759425  0.49528490
   0.99735834  0.18897654  0.61243654
   0.09577906  0.28844725  0.80400767
   0.11466037  0.40223429  0.90591874
   0.11378936  0.50351773  0.99536247
   0.09971433  0.60276201  0.09686908
   0.09857664  0.69718814  0.20721984
   0.11249018  0.80432315  0.30016338
   0.10438677  0.89896699  0.39615191
   0.09894214  0.00219030  0.50532239
   0.10604889  0.09999273  0.59786561
   0.09485721  0.19040151  0.69490403
   0.20040961  0.29901964  0.88796168
   0.20733111  0.40181492  0.99664197
   0.19024766  0.50700716  0.10133754
   0.19341933  0.60898862  0.19790670
   0.20331329  0.69805364  0.29539894
   0.23169932  0.80339411  0.39635684
   0.20025894  0.90221685  0.48666072
   0.18609739  0.98466461  0.58876559
   0.19465737  0.08887103  0.69569833
   0.20294925  0.18507184  0.80389869
   0.38493226  0.40996344  0.99477269
   0.38137133  0.50335367  0.10206497
   0.41711820  0.58611267  0.20390792
   0.40334422  0.69156268  0.29578141
   0.40292941  0.80112463  0.39477074
   0.39326519  0.90203197  0.48546900
   0.39169771  0.00089815  0.58622603
   0.39794408  0.10238956  0.68302515
   0.40976474  0.18811341  0.80304388
   0.40185371  0.30211521  0.90113925
   0.47621962  0.38935957  0.10099876
   0.49950695  0.48723691  0.20048340
   0.51124695  0.58380642  0.29624571
   0.50039518  0.68697165  0.38330378
   0.50446607  0.79704749  0.48696673
   0.49665596  0.89953362  0.59105386
   0.50109823  0.99633604  0.68799602
   0.48639442  0.08742592  0.79195465
   0.49908258  0.18975002  0.88841040
   0.50417002  0.30786509  0.98349234
   0.60020994  0.38688597  0.19244828
   0.60285438  0.48749216  0.29446985
   0.60331438  0.58671439  0.40229394
   0.59558273  0.69966130  0.48983167
   0.59694640  0.80317385  0.60349384
   0.58262308  0.89130824  0.69047249
   0.60006428  0.99278902  0.79070569
   0.58995238  0.08185742  0.90422605
   0.59383015  0.20014674  0.97526732
   0.58902135  0.29903762  0.08021130
   0.70272250  0.40112645  0.28471721
   0.69616634  0.48250729  0.40927536
   0.69524135  0.56502519  0.49850866
   0.69598092  0.69902593  0.59220796
   0.69616804  0.80387977  0.70274412
   0.70139011  0.90116620  0.81550025
   0.69566413  0.98445319  0.90370442
   0.69312092  0.09950101  0.99743693
   0.67752832  0.20004791  0.10449143
   0.69732321  0.30175072  0.19042699
   0.81156088  0.41933034  0.37928869
   0.79859089  0.50389590  0.51446301
   0.79041157  0.60740796  0.60641870
   0.79552788  0.70625176  0.70668022
   0.79448089  0.80082715  0.80993929
   0.79429284  0.89061669  0.89607531
   0.80388481  0.99396564  0.01039422
   0.78187677  0.08956310  0.11681274
   0.80457131  0.20550684  0.18494606
   0.81347815  0.30360775  0.29216130
   0.89980847  0.40790837  0.51628863
   0.91515770  0.51001848  0.59938397
   0.90217645  0.61396685  0.70001900
   0.90106258  0.71151506  0.80743552
   0.90378199  0.80253581  0.90888403
   0.89126293  0.90096523  0.00347742
   0.90374826  0.01818161  0.10249471
   0.91251440  0.11352596  0.18431140
   0.89714046  0.19898510  0.29693507
   0.89334211  0.31717915  0.41026801
   0.00049542  0.41103689  0.60870115
   0.97635038  0.52678458  0.70398961
   0.99722371  0.62417887  0.79667271
   0.00834013  0.69419954  0.90527900
   0.98729662  0.79010823  0.00110929
   0.99206399  0.90741918  0.09287911
   0.01690430  0.01229715  0.19564185
   0.99315164  0.10199638  0.31237347
   0.99806335  0.22305956  0.39892486
   0.98137868  0.30047816  0.51966038
   0.08750543  0.40335685  0.70657594
   0.09337202  0.51330650  0.78517850
   0.10184450  0.59952882  0.89151931
   0.10375680  0.70848329  0.00511682
   0.10515604  0.80195462  0.10072302
   0.09721253  0.89467265  0.18624532
   0.10248837  0.01388479  0.30097050
   0.09479033  0.09285417  0.39926811
   0.09562950  0.19579095  0.51228690
   0.10120630  0.29285297  0.61084844
   0.20042585  0.40172178  0.78196577
   0.19997768  0.49555052  0.89437427
   0.19993491  0.58835565  0.00329830
   0.19919946  0.70044237  0.11179926
   0.20414695  0.79012446  0.20303919
   0.19642850  0.90928724  0.29303951
   0.19479375  0.99499062  0.40914479
   0.20535236  0.09473647  0.50415329
   0.20526608  0.20485094  0.60860631
   0.18422302  0.28969495  0.71162442
   0.28477987  0.39343605  0.89276284
   0.30126358  0.49546188  0.99766646
   0.29574889  0.59947217  0.09574312
   0.30582895  0.68790244  0.20588073
   0.29669358  0.79522210  0.31345575
   0.29816942  0.89948242  0.38763604
   0.29640270  0.00029631  0.50107509
   0.30555557  0.10583217  0.60206570
   0.28858945  0.21414236  0.70887355
   0.30818520  0.29502866  0.80247929
