 500 500   0   0
  0.2153794E+02  0.2208300E-08  0.2208300E-08  0.2208300E-08  0.5000000E-15
  1.000000000000000E-004
  CAR 
 Li                                      
      3.14912461     -3.50037720  301      0.23856983      1.00000000
     -3.500  0.0000E+00  0.0000E+00
     -3.478  0.0000E+00  0.0000E+00
     -3.456  0.0000E+00  0.0000E+00
     -3.434  0.0000E+00  0.0000E+00
     -3.412  0.0000E+00  0.0000E+00
     -3.390  0.0000E+00  0.0000E+00
     -3.367  0.6261E-13  0.1388E-14
     -3.345  0.1768E-09  0.3920E-11
     -3.323  0.1687E-06  0.3742E-08
     -3.301  0.5544E-04  0.1233E-05
     -3.279  0.6330E-02  0.1415E-03
     -3.257  0.2539E+00  0.5769E-02
     -3.234  0.3629E+01  0.8621E-01
     -3.212  0.1877E+02  0.5023E+00
     -3.190  0.3561E+02  0.1292E+01
     -3.168  0.2496E+02  0.1845E+01
     -3.146  0.7348E+01  0.2008E+01
     -3.124  0.1071E+02  0.2245E+01
     -3.101  0.4530E+02  0.3249E+01
     -3.079  0.9005E+02  0.5245E+01
     -3.057  0.8286E+02  0.7082E+01
     -3.035  0.3517E+02  0.7861E+01
     -3.013  0.1245E+02  0.8137E+01
     -2.991  0.3494E+02  0.8912E+01
     -2.968  0.8361E+02  0.1077E+02
     -2.946  0.9150E+02  0.1279E+02
     -2.924  0.4486E+02  0.1379E+02
     -2.902  0.1428E+02  0.1410E+02
     -2.880  0.3340E+02  0.1484E+02
     -2.858  0.9192E+02  0.1688E+02
     -2.835  0.1227E+03  0.1960E+02
     -2.813  0.8038E+02  0.2138E+02
     -2.791  0.3004E+02  0.2205E+02
     -2.769  0.3864E+02  0.2291E+02
     -2.747  0.1056E+03  0.2525E+02
     -2.725  0.1634E+03  0.2887E+02
     -2.702  0.1444E+03  0.3207E+02
     -2.680  0.7004E+02  0.3362E+02
     -2.658  0.2251E+02  0.3412E+02
     -2.636  0.3909E+02  0.3499E+02
     -2.614  0.8821E+02  0.3694E+02
     -2.592  0.8934E+02  0.3892E+02
     -2.569  0.4177E+02  0.3985E+02
     -2.547  0.2412E+02  0.4038E+02
     -2.525  0.7005E+02  0.4194E+02
     -2.503  0.1440E+03  0.4513E+02
     -2.481  0.1633E+03  0.4875E+02
     -2.459  0.1070E+03  0.5112E+02
     -2.436  0.5434E+02  0.5232E+02
     -2.414  0.8167E+02  0.5413E+02
     -2.392  0.1627E+03  0.5774E+02
     -2.370  0.2183E+03  0.6258E+02
     -2.348  0.1943E+03  0.6688E+02
     -2.326  0.1069E+03  0.6925E+02
     -2.303  0.4218E+02  0.7019E+02
     -2.281  0.4810E+02  0.7125E+02
     -2.259  0.8530E+02  0.7314E+02
     -2.237  0.8349E+02  0.7500E+02
     -2.215  0.4149E+02  0.7591E+02
     -2.193  0.3595E+02  0.7671E+02
     -2.170  0.9929E+02  0.7891E+02
     -2.148  0.1789E+03  0.8288E+02
     -2.126  0.1860E+03  0.8700E+02
     -2.104  0.1061E+03  0.8935E+02
     -2.082  0.4858E+02  0.9043E+02
     -2.060  0.8995E+02  0.9242E+02
     -2.037  0.1848E+03  0.9652E+02
     -2.015  0.2303E+03  0.1016E+03
     -1.993  0.1817E+03  0.1057E+03
     -1.971  0.8921E+02  0.1076E+03
     -1.949  0.5105E+02  0.1088E+03
     -1.927  0.9592E+02  0.1109E+03
     -1.904  0.1578E+03  0.1144E+03
     -1.882  0.1548E+03  0.1178E+03
     -1.860  0.8944E+02  0.1198E+03
     -1.838  0.7690E+02  0.1215E+03
     -1.816  0.1532E+03  0.1249E+03
     -1.794  0.2222E+03  0.1298E+03
     -1.772  0.2098E+03  0.1345E+03
     -1.749  0.1246E+03  0.1372E+03
     -1.727  0.6632E+02  0.1387E+03
     -1.705  0.1043E+03  0.1410E+03
     -1.683  0.1861E+03  0.1451E+03
     -1.661  0.2256E+03  0.1501E+03
     -1.639  0.1737E+03  0.1540E+03
     -1.616  0.8147E+02  0.1558E+03
     -1.594  0.5929E+02  0.1571E+03
     -1.572  0.1210E+03  0.1598E+03
     -1.550  0.1686E+03  0.1635E+03
     -1.528  0.1344E+03  0.1665E+03
     -1.506  0.7152E+02  0.1681E+03
     -1.483  0.7645E+02  0.1698E+03
     -1.461  0.1335E+03  0.1728E+03
     -1.439  0.1552E+03  0.1762E+03
     -1.417  0.1186E+03  0.1788E+03
     -1.395  0.7632E+02  0.1805E+03
     -1.373  0.1208E+03  0.1832E+03
     -1.350  0.2262E+03  0.1882E+03
     -1.328  0.3003E+03  0.1949E+03
     -1.306  0.3099E+03  0.2017E+03
     -1.284  0.2370E+03  0.2070E+03
     -1.262  0.1373E+03  0.2100E+03
     -1.240  0.1318E+03  0.2129E+03
     -1.217  0.2033E+03  0.2175E+03
     -1.195  0.2262E+03  0.2225E+03
     -1.173  0.1668E+03  0.2262E+03
     -1.151  0.9052E+02  0.2282E+03
     -1.129  0.7727E+02  0.2299E+03
     -1.107  0.1269E+03  0.2327E+03
     -1.084  0.1809E+03  0.2367E+03
     -1.062  0.1666E+03  0.2404E+03
     -1.040  0.1324E+03  0.2433E+03
     -1.018  0.1797E+03  0.2473E+03
     -0.996  0.2404E+03  0.2526E+03
     -0.974  0.2476E+03  0.2581E+03
     -0.951  0.2078E+03  0.2627E+03
     -0.929  0.1155E+03  0.2653E+03
     -0.907  0.4824E+02  0.2664E+03
     -0.885  0.6041E+02  0.2677E+03
     -0.863  0.8761E+02  0.2697E+03
     -0.841  0.7869E+02  0.2714E+03
     -0.818  0.7945E+02  0.2732E+03
     -0.796  0.1522E+03  0.2765E+03
     -0.774  0.2502E+03  0.2821E+03
     -0.752  0.3016E+03  0.2888E+03
     -0.730  0.2993E+03  0.2954E+03
     -0.708  0.2593E+03  0.3011E+03
     -0.685  0.2199E+03  0.3060E+03
     -0.663  0.2156E+03  0.3108E+03
     -0.641  0.2447E+03  0.3162E+03
     -0.619  0.2790E+03  0.3224E+03
     -0.597  0.2659E+03  0.3283E+03
     -0.575  0.1981E+03  0.3327E+03
     -0.552  0.1389E+03  0.3358E+03
     -0.530  0.1245E+03  0.3385E+03
     -0.508  0.1363E+03  0.3415E+03
     -0.486  0.1380E+03  0.3446E+03
     -0.464  0.1568E+03  0.3481E+03
     -0.442  0.1942E+03  0.3524E+03
     -0.419  0.2116E+03  0.3571E+03
     -0.397  0.2015E+03  0.3615E+03
     -0.375  0.1686E+03  0.3653E+03
     -0.353  0.1426E+03  0.3684E+03
     -0.331  0.1724E+03  0.3723E+03
     -0.309  0.2409E+03  0.3776E+03
     -0.286  0.2867E+03  0.3840E+03
     -0.264  0.2805E+03  0.3902E+03
     -0.242  0.2359E+03  0.3954E+03
     -0.220  0.2011E+03  0.3999E+03
     -0.198  0.2072E+03  0.4045E+03
     -0.176  0.2128E+03  0.4092E+03
     -0.153  0.1807E+03  0.4132E+03
     -0.131  0.1315E+03  0.4161E+03
     -0.109  0.1355E+03  0.4191E+03
     -0.087  0.1951E+03  0.4234E+03
     -0.065  0.2505E+03  0.4290E+03
     -0.043  0.2701E+03  0.4350E+03
     -0.020  0.2544E+03  0.4406E+03
      0.002  0.2280E+03  0.4457E+03
      0.024  0.2151E+03  0.4504E+03
      0.046  0.2304E+03  0.4555E+03
      0.068  0.2282E+03  0.4606E+03
      0.090  0.1828E+03  0.4646E+03
      0.113  0.1681E+03  0.4684E+03
      0.135  0.2151E+03  0.4731E+03
      0.157  0.2584E+03  0.4789E+03
      0.179  0.2659E+03  0.4848E+03
      0.201  0.2584E+03  0.4905E+03
      0.223  0.2560E+03  0.4962E+03
      0.246  0.2506E+03  0.5017E+03
      0.268  0.2340E+03  0.5069E+03
      0.290  0.2232E+03  0.5118E+03
      0.312  0.2281E+03  0.5169E+03
      0.334  0.2392E+03  0.5222E+03
      0.356  0.2568E+03  0.5279E+03
      0.378  0.2841E+03  0.5342E+03
      0.401  0.3094E+03  0.5410E+03
      0.423  0.3315E+03  0.5484E+03
      0.445  0.3453E+03  0.5560E+03
      0.467  0.3344E+03  0.5635E+03
      0.489  0.3124E+03  0.5704E+03
      0.511  0.2957E+03  0.5769E+03
      0.534  0.2763E+03  0.5831E+03
      0.556  0.2562E+03  0.5887E+03
      0.578  0.2414E+03  0.5941E+03
      0.600  0.2335E+03  0.5993E+03
      0.622  0.2328E+03  0.6044E+03
      0.644  0.2201E+03  0.6093E+03
      0.667  0.1885E+03  0.6135E+03
      0.689  0.1648E+03  0.6171E+03
      0.711  0.1691E+03  0.6209E+03
      0.733  0.1754E+03  0.6248E+03
      0.755  0.1747E+03  0.6286E+03
      0.777  0.1702E+03  0.6324E+03
      0.800  0.1690E+03  0.6362E+03
      0.822  0.1905E+03  0.6404E+03
      0.844  0.2166E+03  0.6452E+03
      0.866  0.2345E+03  0.6504E+03
      0.888  0.2467E+03  0.6558E+03
      0.910  0.2573E+03  0.6616E+03
      0.933  0.2690E+03  0.6675E+03
      0.955  0.2770E+03  0.6737E+03
      0.977  0.2796E+03  0.6799E+03
      0.999  0.2796E+03  0.6860E+03
      1.021  0.2774E+03  0.6922E+03
      1.043  0.2704E+03  0.6982E+03
      1.066  0.2583E+03  0.7039E+03
      1.088  0.2391E+03  0.7092E+03
      1.110  0.2192E+03  0.7141E+03
      1.132  0.1999E+03  0.7185E+03
      1.154  0.1921E+03  0.7228E+03
      1.176  0.2019E+03  0.7272E+03
      1.199  0.2125E+03  0.7320E+03
      1.221  0.2255E+03  0.7370E+03
      1.243  0.2340E+03  0.7421E+03
      1.265  0.2348E+03  0.7473E+03
      1.287  0.2303E+03  0.7524E+03
      1.309  0.2152E+03  0.7572E+03
      1.332  0.2063E+03  0.7618E+03
      1.354  0.1892E+03  0.7660E+03
      1.376  0.1565E+03  0.7694E+03
      1.398  0.1415E+03  0.7726E+03
      1.420  0.1453E+03  0.7758E+03
      1.442  0.1530E+03  0.7792E+03
      1.465  0.1541E+03  0.7826E+03
      1.487  0.1462E+03  0.7859E+03
      1.509  0.1404E+03  0.7890E+03
      1.531  0.1467E+03  0.7922E+03
      1.553  0.1653E+03  0.7959E+03
      1.575  0.1870E+03  0.8000E+03
      1.598  0.2051E+03  0.8046E+03
      1.620  0.2091E+03  0.8092E+03
      1.642  0.2056E+03  0.8138E+03
      1.664  0.2178E+03  0.8186E+03
      1.686  0.2346E+03  0.8238E+03
      1.708  0.2382E+03  0.8291E+03
      1.731  0.2319E+03  0.8342E+03
      1.753  0.2200E+03  0.8391E+03
      1.775  0.2112E+03  0.8438E+03
      1.797  0.2092E+03  0.8484E+03
      1.819  0.2093E+03  0.8530E+03
      1.841  0.1963E+03  0.8574E+03
      1.864  0.1743E+03  0.8613E+03
      1.886  0.1560E+03  0.8647E+03
      1.908  0.1491E+03  0.8680E+03
      1.930  0.1480E+03  0.8713E+03
      1.952  0.1514E+03  0.8747E+03
      1.974  0.1485E+03  0.8780E+03
      1.997  0.1483E+03  0.8812E+03
      2.019  0.1608E+03  0.8848E+03
      2.041  0.1684E+03  0.8885E+03
      2.063  0.1660E+03  0.8922E+03
      2.085  0.1601E+03  0.8958E+03
      2.107  0.1622E+03  0.8994E+03
      2.130  0.1610E+03  0.9029E+03
      2.152  0.1519E+03  0.9063E+03
      2.174  0.1469E+03  0.9096E+03
      2.196  0.1437E+03  0.9127E+03
      2.218  0.1382E+03  0.9158E+03
      2.240  0.1389E+03  0.9189E+03
      2.263  0.1411E+03  0.9220E+03
      2.285  0.1461E+03  0.9252E+03
      2.307  0.1572E+03  0.9287E+03
      2.329  0.1662E+03  0.9324E+03
      2.351  0.1667E+03  0.9361E+03
      2.373  0.1544E+03  0.9395E+03
      2.396  0.1349E+03  0.9425E+03
      2.418  0.1124E+03  0.9450E+03
      2.440  0.1072E+03  0.9474E+03
      2.462  0.1337E+03  0.9503E+03
      2.484  0.1620E+03  0.9539E+03
      2.506  0.1593E+03  0.9575E+03
      2.529  0.1490E+03  0.9608E+03
      2.551  0.1566E+03  0.9642E+03
      2.573  0.1615E+03  0.9678E+03
      2.595  0.1572E+03  0.9713E+03
      2.617  0.1573E+03  0.9748E+03
      2.639  0.1578E+03  0.9783E+03
      2.661  0.1520E+03  0.9817E+03
      2.684  0.1321E+03  0.9846E+03
      2.706  0.9765E+02  0.9867E+03
      2.728  0.6239E+02  0.9881E+03
      2.750  0.6299E+02  0.9895E+03
      2.772  0.9729E+02  0.9917E+03
      2.794  0.1323E+03  0.9946E+03
      2.817  0.1408E+03  0.9977E+03
      2.839  0.1114E+03  0.1000E+04
      2.861  0.5991E+02  0.1002E+04
      2.883  0.1826E+02  0.1002E+04
      2.905  0.2618E+01  0.1002E+04
      2.927  0.1549E+00  0.1002E+04
      2.950  0.3504E-02  0.1002E+04
      2.972  0.2892E-04  0.1002E+04
      2.994  0.8474E-07  0.1002E+04
      3.016  0.8662E-10  0.1002E+04
      3.038  0.3005E-13  0.1002E+04
      3.060  0.0000E+00  0.1002E+04
      3.083  0.0000E+00  0.1002E+04
      3.105  0.0000E+00  0.1002E+04
      3.127  0.0000E+00  0.1002E+04
      3.149  0.0000E+00  0.1002E+04
