Li                                      
           1
    22.083000   -0.000000    0.000000
    -0.000000   22.083000    0.000000
     0.000000    0.000000   22.083000
   Li
   500
Direct configuration=     1
   0.01376918  0.97812767  0.01912164
   0.00015170  0.09918916  0.11083663
   0.00550265  0.20831993  0.20382527
   0.00229964  0.28094648  0.29597935
   0.99043487  0.39636060  0.39505111
   0.00117053  0.50909568  0.48562386
   0.00630116  0.61054289  0.59032754
   0.97947440  0.69902900  0.71840446
   0.98976237  0.78106571  0.81814367
   0.99821860  0.88617692  0.89670855
   0.12220527  0.01955403  0.11026929
   0.10106913  0.07655604  0.21813431
   0.12260541  0.20004690  0.30530804
   0.11113590  0.30245953  0.41365828
   0.09718607  0.40424941  0.51124914
   0.09017545  0.49288985  0.59768692
   0.09709410  0.61711440  0.69665599
   0.10057541  0.67814806  0.83916712
   0.10728102  0.79984477  0.89857036
   0.11204152  0.89440514  0.00516355
   0.22225493  0.00420661  0.20894352
   0.20760619  0.10889262  0.30536710
   0.20614657  0.23125219  0.42098078
   0.20112035  0.31987012  0.51770622
   0.18605728  0.38991020  0.60855685
   0.19953619  0.51684158  0.69958855
   0.20022457  0.60084161  0.80343154
   0.22218181  0.69356067  0.92910493
   0.22310066  0.79374115  0.99559915
   0.21751698  0.90199180  0.11486078
   0.31616413  0.00218048  0.29427600
   0.30784108  0.11185301  0.40173416
   0.32432825  0.23955607  0.51599034
   0.30581305  0.32256739  0.63366134
   0.27666004  0.40793142  0.70150044
   0.29810904  0.50045279  0.79937427
   0.31358255  0.58685541  0.91414244
   0.31192328  0.68912193  0.00740860
   0.28418498  0.79747187  0.10546018
   0.33147925  0.89570132  0.20772592
   0.39506731  0.01117043  0.40840588
   0.39863831  0.10109792  0.52030566
   0.37897234  0.24199734  0.61890736
   0.39109412  0.30390278  0.72502544
   0.38999433  0.41260742  0.79403702
   0.40660419  0.49272166  0.89488279
   0.39262355  0.59600474  0.99024477
   0.40934562  0.68954035  0.08409469
   0.38972688  0.81409965  0.20002769
   0.40246853  0.90579348  0.29603634
   0.50456759  0.99942118  0.50915868
   0.48317658  0.12565033  0.60311901
   0.49216980  0.19536726  0.70877833
   0.49485126  0.30048628  0.78900513
   0.51138151  0.40434338  0.88354436
   0.49174779  0.48990267  0.98024419
   0.49956910  0.58365820  0.09866265
   0.50669773  0.70541270  0.19274699
   0.46857089  0.82294943  0.29434500
   0.50517439  0.91896068  0.38720382
   0.61130109  0.00522255  0.61311224
   0.61567211  0.09682074  0.69403037
   0.60370980  0.18765663  0.80139825
   0.60256959  0.30422605  0.88262021
   0.58991107  0.39897804  0.99938476
   0.59477617  0.50051699  0.08115826
   0.60454873  0.59635301  0.21393518
   0.61236928  0.70966776  0.29184513
   0.58444728  0.79281693  0.37926590
   0.60917276  0.91653612  0.48898724
   0.71401737  0.00919616  0.69683150
   0.72569782  0.08461491  0.79601098
   0.71614556  0.21169104  0.91193965
   0.70771043  0.31569975  0.00879240
   0.71288049  0.41115806  0.07635707
   0.70072696  0.49212340  0.19140952
   0.71329546  0.58638276  0.29838877
   0.69216352  0.68258984  0.42902791
   0.68908924  0.77738682  0.48612238
   0.69431590  0.91164674  0.60782578
   0.80494707  0.99820216  0.81598140
   0.81444309  0.08945988  0.88857801
   0.80254381  0.18627820  0.98413553
   0.79318062  0.28826044  0.08794153
   0.80951740  0.37405805  0.19707400
   0.80495502  0.48842901  0.28748669
   0.79252034  0.59059994  0.40560538
   0.78018848  0.68108479  0.50355026
   0.77036127  0.80450066  0.61145216
   0.78861488  0.88679918  0.70621541
   0.90127704  0.97293297  0.89431022
   0.90598962  0.08738879  0.00143710
   0.89408610  0.20004332  0.10178174
   0.90252842  0.27712193  0.20502768
   0.90184264  0.38115508  0.29743281
   0.91545713  0.50165729  0.39727474
   0.91929130  0.61175014  0.49053495
   0.91134923  0.71575294  0.58650242
   0.87346151  0.79754869  0.70681776
   0.88984860  0.89400156  0.78768315
   0.07843217  0.09080084  0.99317131
   0.10165512  0.17818949  0.09201315
   0.11239996  0.31022553  0.20373535
   0.10738996  0.41799964  0.29873201
   0.11013762  0.49330223  0.38817891
   0.11199685  0.58065819  0.51085067
   0.09560479  0.70668829  0.59390348
   0.10786916  0.78574635  0.71415471
   0.10409694  0.90457433  0.78830835
   0.10736289  0.97782111  0.90771398
   0.20293606  0.11293823  0.09458660
   0.19861677  0.19131287  0.20175304
   0.20737861  0.31434663  0.31329776
   0.21133973  0.42757312  0.39757923
   0.20783241  0.48920222  0.50494743
   0.21647939  0.60007271  0.60385886
   0.19111334  0.70344545  0.70496634
   0.20374577  0.80674007  0.82051643
   0.21520829  0.90833410  0.89165434
   0.21237483  0.99927552  0.01564964
   0.29679220  0.12681433  0.19385362
   0.29827958  0.20562169  0.29489887
   0.32155393  0.31221148  0.41241674
   0.31936145  0.39303190  0.50070075
   0.30944426  0.47884557  0.59854532
   0.29752893  0.60615312  0.70092851
   0.30900273  0.70097506  0.81546185
   0.29326710  0.80002870  0.90976192
   0.28254181  0.88430650  0.00308732
   0.29886048  0.00950814  0.10519828
   0.38420900  0.10638857  0.29140519
   0.38923037  0.19552072  0.40878586
   0.41765547  0.29500089  0.50387770
   0.40081986  0.40688226  0.61477697
   0.40111535  0.50923687  0.70044685
   0.40258991  0.59133569  0.79718906
   0.41006516  0.71117559  0.90775441
   0.39699289  0.79885207  0.01018088
   0.39202953  0.89947274  0.10180458
   0.39626745  0.02250548  0.19739744
   0.47892027  0.11015983  0.40817783
   0.50077976  0.18627579  0.51025766
   0.51636090  0.30202448  0.61100179
   0.50455753  0.39449100  0.70267635
   0.48961928  0.50436472  0.79955622
   0.52435768  0.61155391  0.89074572
   0.51291191  0.68986625  0.99553406
   0.48686165  0.80134250  0.12052235
   0.48865934  0.92223575  0.19977758
   0.48059306  0.02065614  0.29052211
   0.60297011  0.09952411  0.51122306
   0.61784407  0.20239032  0.61094205
   0.60901823  0.30621935  0.72033494
   0.61746237  0.40657476  0.78979604
   0.59902709  0.50913451  0.89510869
   0.59147019  0.58979772  0.99277440
   0.59211164  0.66855967  0.11102050
   0.58718745  0.81260383  0.19976899
   0.57662067  0.92876479  0.27859618
   0.58687935  0.02341244  0.39284348
   0.71668560  0.10630215  0.59426707
   0.70888082  0.19567406  0.72183693
   0.70870572  0.29472962  0.81248466
   0.68002800  0.40398921  0.89698049
   0.70234781  0.52704145  0.98492981
   0.69734781  0.60564957  0.10599658
   0.69785347  0.71646641  0.21718345
   0.68419636  0.80780951  0.30500245
   0.67527372  0.89001522  0.38709286
   0.70016725  0.99462022  0.50396724
   0.81149312  0.09491894  0.71144079
   0.80474758  0.20296143  0.81116135
   0.80249936  0.33500896  0.89713446
   0.79096606  0.40951985  0.00053262
   0.79751859  0.50834836  0.10618472
   0.79894619  0.60254553  0.20168705
   0.80169591  0.70130527  0.32654788
   0.80098094  0.78941608  0.39693531
   0.79630582  0.87834329  0.48837947
   0.79007490  0.98233164  0.61322592
   0.90354396  0.08181683  0.79788516
   0.89601808  0.19409404  0.88449263
   0.90611377  0.29888256  0.99683253
   0.90058300  0.39869462  0.12359576
   0.89630742  0.50318792  0.22007033
   0.87755394  0.61990677  0.30091985
   0.89650612  0.68978069  0.41882030
   0.88494265  0.77145135  0.48907897
   0.88754600  0.86332041  0.60275389
   0.89813793  0.98886665  0.69773640
   0.00245241  0.07394462  0.91208788
   0.99799926  0.20247622  0.02089028
   0.99895237  0.29590149  0.10127226
   0.99853737  0.39598328  0.20400521
   0.98536112  0.51362647  0.29626961
   0.01530452  0.61913662  0.39609613
   0.02239649  0.72090100  0.49428196
   0.00272851  0.78352583  0.59600281
   0.99975117  0.87678048  0.69541236
   0.01123120  0.00263693  0.79626472
   0.19308823  0.18367233  0.99176358
   0.17765758  0.27984519  0.09267912
   0.21242514  0.42461459  0.17928026
   0.21432891  0.51216487  0.30002528
   0.20120454  0.59035477  0.41442314
   0.20402040  0.69819203  0.50469841
   0.19046789  0.80943802  0.59787419
   0.18879620  0.89351519  0.68851436
   0.19536469  0.99463380  0.79887087
   0.19461443  0.09059216  0.90091664
   0.29349641  0.18803062  0.08828401
   0.30119786  0.30241759  0.19232648
   0.31718665  0.40782450  0.29044810
   0.32299303  0.51244319  0.39438487
   0.32132148  0.61527710  0.50497106
   0.30515952  0.69912405  0.59904557
   0.29187755  0.78904035  0.70594039
   0.29754424  0.88069460  0.79183882
   0.29244320  0.00905093  0.89879536
   0.31680685  0.10326156  0.97722242
   0.38264081  0.21834547  0.18299084
   0.39545343  0.29075736  0.30583609
   0.40505308  0.39981440  0.40946339
   0.39221745  0.50504697  0.51086685
   0.39311095  0.58649801  0.60138464
   0.40576266  0.68937397  0.70259540
   0.41233663  0.80446822  0.81618366
   0.38599499  0.88964815  0.89251601
   0.41742325  0.98461091  0.98341665
   0.39627135  0.08578831  0.09118596
   0.48706140  0.19198040  0.26934374
   0.50165109  0.28672222  0.39559385
   0.50900472  0.37893785  0.50675062
   0.50154444  0.48974415  0.60196697
   0.51457821  0.59758727  0.71078020
   0.51729819  0.71196569  0.79151795
   0.48973632  0.80633372  0.90848048
   0.51015860  0.89190625  0.00403874
   0.48996056  0.00798861  0.10167805
   0.48319532  0.09636222  0.19691977
   0.59839782  0.18179589  0.38646896
   0.60986542  0.27021937  0.47735411
   0.59528407  0.39618765  0.59626749
   0.58779487  0.48432769  0.69921423
   0.61916084  0.60678541  0.80253726
   0.61774400  0.70469047  0.90064824
   0.59342569  0.79909857  0.01117613
   0.60131294  0.90576474  0.08440389
   0.59499386  0.00831004  0.19303258
   0.59396651  0.10575902  0.29729653
   0.72349286  0.20677772  0.49256335
   0.70477390  0.32473544  0.61257394
   0.70524028  0.39911257  0.69142608
   0.72343784  0.49261704  0.79564315
   0.72739542  0.60508492  0.88889612
   0.68976461  0.69058921  0.01330186
   0.69246464  0.80445906  0.09855755
   0.69154113  0.89032235  0.21054680
   0.70086183  0.01874326  0.30400722
   0.69394021  0.09953400  0.41261144
   0.80990761  0.22586721  0.60757385
   0.80316335  0.31401950  0.69175130
   0.78069476  0.38415642  0.78136877
   0.80397436  0.50698468  0.91112826
   0.80279128  0.61213934  0.02106679
   0.79067699  0.70397526  0.09559100
   0.79946497  0.79537257  0.22026564
   0.80673578  0.90228888  0.30193260
   0.80962515  0.98849125  0.42299059
   0.80849132  0.10439059  0.51650459
   0.89033447  0.20448148  0.69629744
   0.89499579  0.32726919  0.79021570
   0.89540040  0.40611824  0.90147995
   0.91667833  0.50235926  0.00694977
   0.90129308  0.61441010  0.11362737
   0.89313119  0.69630487  0.18611917
   0.91373701  0.80167426  0.31054107
   0.91182820  0.87956795  0.39759834
   0.90276886  0.97828350  0.51730338
   0.88337417  0.10198220  0.61071906
   0.00106862  0.18549492  0.80130931
   0.98726695  0.29391480  0.90462711
   0.99022936  0.40364294  0.99835482
   0.99121033  0.50190468  0.10167648
   0.98627293  0.61401195  0.20456219
   0.00796440  0.68866986  0.29247208
   0.01745278  0.79721535  0.39632737
   0.99934267  0.88614698  0.50565677
   0.99157142  0.98344479  0.59730179
   0.98953386  0.11211196  0.68391111
   0.08579695  0.19787783  0.90298909
   0.09119483  0.29195730  0.99616474
   0.09921197  0.39746062  0.10420745
   0.10855790  0.51862968  0.17819398
   0.10896458  0.59197673  0.29149991
   0.11215684  0.69453473  0.40297299
   0.12170218  0.79897962  0.49589165
   0.09601643  0.88340555  0.61748940
   0.08010881  0.02143936  0.69718498
   0.08081771  0.11467244  0.81739654
   0.30066885  0.29193254  0.98415018
   0.30661580  0.38837396  0.08575462
   0.32463690  0.51855098  0.18627614
   0.30097933  0.59296559  0.28819104
   0.30409673  0.69002133  0.40850859
   0.27917186  0.77863422  0.51199945
   0.27715586  0.88774296  0.58742469
   0.27716955  0.98084361  0.68588857
   0.30065556  0.10971625  0.78522911
   0.27387583  0.20953774  0.88611209
   0.39400569  0.29377584  0.08862960
   0.40990878  0.38017305  0.18254855
   0.40630076  0.48919171  0.29073689
   0.39915687  0.60394457  0.40386175
   0.43668202  0.71418051  0.49638667
   0.39352481  0.80670464  0.60234253
   0.37133430  0.89878634  0.69628083
   0.36079594  0.99910854  0.81804358
   0.40014584  0.08503572  0.88959166
   0.39189396  0.18756507  0.97824077
   0.51505014  0.29209579  0.17408936
   0.48779591  0.39159922  0.29835705
   0.49381976  0.50060848  0.39444248
   0.49868893  0.60722386  0.50626594
   0.50464585  0.72205306  0.62543088
   0.50665672  0.81771145  0.69919820
   0.47796048  0.91400564  0.79770388
   0.48377299  0.99382469  0.89075707
   0.46524591  0.08168110  0.97708427
   0.47338200  0.18278275  0.08272879
   0.60630439  0.28497743  0.27655422
   0.60704595  0.39710072  0.39898350
   0.59013637  0.50784699  0.50828121
   0.60242881  0.58456955  0.61959079
   0.60581438  0.69969656  0.69716905
   0.60524490  0.81432120  0.80367398
   0.57811830  0.89961083  0.87238744
   0.58201992  0.99493407  0.99334633
   0.58748151  0.10082833  0.07848725
   0.58270994  0.20298734  0.18906787
   0.68938711  0.29155477  0.38534093
   0.69754066  0.39945605  0.50466922
   0.70013155  0.49291358  0.60426731
   0.70388599  0.60833891  0.70690996
   0.69663650  0.71091104  0.80125545
   0.68930103  0.80686763  0.90663191
   0.69643408  0.91734930  0.98278910
   0.69997121  0.00035480  0.10291368
   0.69390402  0.10473199  0.18557822
   0.69359130  0.19182311  0.29754561
   0.79598995  0.29741203  0.49692711
   0.80926576  0.41628201  0.59107507
   0.78351331  0.50617343  0.67754931
   0.81415384  0.59996121  0.78647812
   0.80937039  0.70256398  0.88969182
   0.78180405  0.80774927  0.98911213
   0.80876806  0.89409654  0.10765342
   0.79183958  0.99993051  0.21060235
   0.80918841  0.08226190  0.32104874
   0.80838357  0.18944054  0.38743422
   0.89982217  0.31799937  0.58501894
   0.89099467  0.39505382  0.68115039
   0.89367676  0.47777085  0.79410217
   0.91069436  0.61116222  0.90063837
   0.88773451  0.72177325  0.98743582
   0.90975880  0.82866691  0.09910229
   0.88755935  0.89303885  0.20291353
   0.91853545  0.97293127  0.30655530
   0.89024827  0.09338085  0.41257038
   0.90337354  0.18092681  0.50357918
   0.97337025  0.30410747  0.69872061
   0.01221941  0.41347521  0.81429765
   0.99986557  0.50682511  0.90729993
   0.00605635  0.60217919  0.03572605
   0.98861143  0.72257963  0.09573583
   0.01480574  0.80833443  0.20228670
   0.01186957  0.87065467  0.28979127
   0.00301534  0.99559838  0.39982603
   0.00361647  0.10081792  0.50661419
   0.98552883  0.20666782  0.58776454
   0.08848565  0.30029152  0.80086019
   0.10005866  0.40454920  0.90835331
   0.10170506  0.49668559  0.00281232
   0.10309456  0.62099498  0.09893681
   0.10529650  0.70451009  0.19616098
   0.11604806  0.79777964  0.29833295
   0.10620981  0.88587682  0.38928202
   0.09722291  0.98902913  0.48927442
   0.10953246  0.08114211  0.58602762
   0.09750806  0.20120315  0.68963143
   0.18582218  0.30712802  0.88458418
   0.19771947  0.37449331  0.97751436
   0.21139253  0.51816120  0.08169908
   0.20997743  0.61013460  0.19697422
   0.21353851  0.70064976  0.29707873
   0.20587555  0.80098745  0.38159565
   0.18974972  0.88734574  0.48986031
   0.20249622  0.98767028  0.60185092
   0.20898295  0.10602513  0.69366278
   0.19845762  0.19852874  0.78204122
   0.39147166  0.38013917  0.97502565
   0.40513656  0.50033865  0.09038872
   0.41548504  0.60619494  0.17767565
   0.38747962  0.69753821  0.30015475
   0.38359324  0.79856120  0.40916121
   0.39313547  0.89851911  0.50947862
   0.40406698  0.99136305  0.62427926
   0.37517606  0.09280471  0.70660166
   0.38220691  0.19232482  0.80967287
   0.38008386  0.30287859  0.87806703
   0.48361661  0.39948049  0.08781353
   0.48628940  0.49388312  0.21312660
   0.49437269  0.59933718  0.29438748
   0.49456156  0.70735554  0.38541706
   0.51098614  0.83033355  0.49730157
   0.51087001  0.89693669  0.60192843
   0.47827271  0.97715590  0.68611905
   0.49162469  0.08873221  0.80644523
   0.48467242  0.21102918  0.89278296
   0.49539585  0.30492588  0.98033150
   0.57944433  0.40269433  0.17125731
   0.59902956  0.49720551  0.31270988
   0.60062129  0.59258800  0.40609521
   0.58398011  0.68746779  0.49469945
   0.62690806  0.80721298  0.59939188
   0.59129068  0.91126866  0.70247387
   0.58790791  0.01163389  0.79487807
   0.60489726  0.09434371  0.89931931
   0.59097259  0.20931659  0.97771647
   0.59452014  0.30382760  0.08769110
   0.69440842  0.39773618  0.29136432
   0.70206905  0.50407745  0.40867058
   0.69410362  0.59777634  0.51157229
   0.69335991  0.66913347  0.58836753
   0.69262183  0.79117278  0.69793358
   0.69932514  0.91499032  0.78661247
   0.71027261  0.00354122  0.90180556
   0.71658699  0.10938078  0.01566867
   0.68039440  0.20746845  0.09408663
   0.72183539  0.30489746  0.20333079
   0.80031225  0.38860131  0.39726651
   0.81893762  0.52423408  0.49432942
   0.79761398  0.59763711  0.60156159
   0.80330580  0.71072307  0.68980894
   0.79062310  0.80783689  0.80381183
   0.80844453  0.86681113  0.90262219
   0.80811901  0.99931691  0.00248426
   0.79390260  0.10217541  0.10628241
   0.79786617  0.18454528  0.22038214
   0.81101076  0.28933270  0.30831605
   0.89054008  0.40307552  0.47533122
   0.90668914  0.50089772  0.56918821
   0.90878911  0.61236249  0.70268803
   0.91361850  0.69444443  0.81600453
   0.88430359  0.80549342  0.91297286
   0.89385660  0.88757320  0.01837765
   0.90033704  0.02192491  0.11547968
   0.90043542  0.09706849  0.21607925
   0.91910073  0.17928355  0.29966039
   0.91110585  0.30739989  0.41206273
   0.99275182  0.39651239  0.60093425
   0.99731512  0.49547459  0.70538753
   0.00235613  0.59718750  0.81759381
   0.98666675  0.68266783  0.90851683
   0.00816354  0.81117566  0.98967604
   0.01803819  0.89946490  0.11678917
   0.99980390  0.98965029  0.21998705
   0.00831932  0.11295949  0.30820536
   0.01246084  0.20414264  0.40732459
   0.01131460  0.31939111  0.48850930
   0.08347775  0.40517755  0.70113033
   0.08654601  0.50082377  0.80367009
   0.11608213  0.60721151  0.92191090
   0.10070397  0.72078951  0.00954344
   0.12758802  0.80390247  0.08989781
   0.12477649  0.90282895  0.19927002
   0.10509414  0.00978936  0.31088312
   0.11823726  0.11257413  0.40818884
   0.10252568  0.18887691  0.50734783
   0.09740142  0.31510223  0.61078238
   0.17389566  0.41033046  0.79234008
   0.20419753  0.50590612  0.89867930
   0.20696079  0.62082011  0.01089361
   0.21016310  0.69194589  0.09082240
   0.22033848  0.80440107  0.21332276
   0.20404123  0.93211893  0.27890780
   0.20018270  0.98865573  0.39864487
   0.21627893  0.10908098  0.49009565
   0.21149583  0.21215369  0.59645114
   0.17492600  0.30002564  0.69312443
   0.28092121  0.40364421  0.90255816
   0.29136784  0.48983920  0.99909939
   0.30340680  0.59162896  0.08374807
   0.31201408  0.67498967  0.19296266
   0.30665673  0.78641956  0.31186850
   0.30550525  0.89084306  0.41617185
   0.29249520  0.99379522  0.51381074
   0.30027837  0.11833098  0.60242418
   0.27911429  0.20476133  0.71372019
   0.28254855  0.32384776  0.78350021
