Li                                      
           1
   -10.853500   18.798813    0.000000
   -18.606000  -10.742179    0.000000
     0.000000    0.000000   22.765000
   Li
   504
Direct configuration=     1
   0.99558049  0.99752678  0.00244393
   0.92432015  0.05434568  0.66967336
   0.86506111  0.05124624  0.31158794
   0.79617192  0.10476912  0.98881993
   0.70723359  0.18023674  0.64628288
   0.65749378  0.19220019  0.34566616
   0.58031865  0.23969426  0.02655074
   0.49824300  0.31504969  0.65582542
   0.43448521  0.30668681  0.32863353
   0.35859739  0.35663566  0.01267068
   0.28654007  0.41706127  0.65818032
   0.20501278  0.46627540  0.34702614
   0.06267893  0.07392028  0.64740788
   0.00746112  0.05803276  0.32232533
   0.92921251  0.11334720  0.99211862
   0.83690713  0.19035406  0.64060826
   0.78233846  0.20088317  0.32052100
   0.71373303  0.23460967  0.01284145
   0.65791565  0.31035653  0.64980046
   0.56092572  0.33616234  0.33122933
   0.51774540  0.38752207  0.01588250
   0.40915670  0.41871839  0.67169313
   0.35931715  0.44589298  0.33299786
   0.27219955  0.50917498  0.00256206
   0.17226052  0.09817295  0.34264909
   0.04853658  0.12485259  0.00749085
   0.98390064  0.17036116  0.69111801
   0.93709464  0.19861337  0.35704139
   0.84569271  0.23070450  0.00322479
   0.80775750  0.30738937  0.66385764
   0.70687922  0.32819008  0.32269948
   0.63403012  0.37470395  0.97697804
   0.55862007  0.40782581  0.66664910
   0.49947556  0.45182020  0.32514313
   0.42942205  0.49829490  0.99457003
   0.35443954  0.54370042  0.64846355
   0.21485921  0.13869667  0.01376954
   0.12442675  0.18625930  0.69716969
   0.09620489  0.18994450  0.36559876
   0.99252646  0.24379937  0.98827938
   0.93354558  0.31365899  0.66586142
   0.85007199  0.31055021  0.36421745
   0.76165410  0.36711287  0.98806606
   0.71506022  0.41610053  0.64944795
   0.65374597  0.46802246  0.34206348
   0.56746196  0.49942214  0.00008890
   0.47147381  0.53676274  0.66454969
   0.42003889  0.56795510  0.33794153
   0.27452840  0.16011843  0.68093050
   0.22341610  0.24190163  0.35674735
   0.15242800  0.27325809  0.98768793
   0.06584223  0.28142444  0.68321558
   0.99222999  0.33156131  0.32666903
   0.91888680  0.33947261  0.96595707
   0.85370271  0.42540338  0.63875322
   0.78841978  0.44942785  0.32209653
   0.69391700  0.46808936  0.98618412
   0.62661770  0.53739612  0.67495650
   0.55172956  0.57892140  0.35600860
   0.51642685  0.61547262  0.99504944
   0.37365847  0.20560965  0.34310945
   0.28970966  0.24121503  0.03682435
   0.22110829  0.28576456  0.68587209
   0.13549252  0.33748112  0.33536171
   0.09595661  0.38762168  0.00777110
   0.99395314  0.45057620  0.64587011
   0.96064667  0.42742183  0.32561251
   0.84752336  0.48196189  0.98119806
   0.78042490  0.55266479  0.64818050
   0.73340649  0.56860346  0.31816478
   0.66966330  0.62910432  0.98077634
   0.57239293  0.64954834  0.66993717
   0.44507130  0.25626404  0.99960758
   0.35148996  0.28745373  0.69430568
   0.28717619  0.35108242  0.34259538
   0.22179911  0.37584959  0.99461384
   0.15424774  0.41750259  0.67027645
   0.09484638  0.47540796  0.32192981
   0.99040277  0.49530508  0.97832874
   0.91445240  0.56166914  0.64680233
   0.87716720  0.55638531  0.32661956
   0.79409618  0.61377681  0.96136527
   0.71728398  0.67891157  0.67449698
   0.65865687  0.71455809  0.31773052
   0.14022866  0.47012065  0.99678546
   0.05935386  0.56890359  0.65723543
   0.97726276  0.59028187  0.29716462
   0.90927586  0.59415136  0.97070107
   0.84266790  0.64395712  0.64607251
   0.80748172  0.69242968  0.32680283
   0.72707326  0.73409016  0.97764899
   0.23183859  0.55682308  0.67633850
   0.14022228  0.60311919  0.31380706
   0.03984050  0.62431275  0.00929988
   0.98781597  0.67509164  0.67314582
   0.92327759  0.69751579  0.31623354
   0.85320993  0.73339915  0.94929573
   0.79246710  0.80064553  0.64137009
   0.29015260  0.55466079  0.32636982
   0.20610233  0.62351373  0.98277388
   0.13992968  0.66921259  0.65772263
   0.06894999  0.69151891  0.32203357
   0.01019458  0.76794968  0.99384594
   0.93671599  0.75238990  0.67141025
   0.86404813  0.81400133  0.32682423
   0.36373656  0.59468955  0.99331542
   0.28216832  0.67188616  0.67840258
   0.22268975  0.70869398  0.32989047
   0.13961904  0.76202776  0.00254605
   0.06978406  0.80213034  0.62720673
   0.99705681  0.82103946  0.32129509
   0.93086737  0.88885211  0.97641765
   0.43906528  0.65314973  0.65863989
   0.34700257  0.70646851  0.33730747
   0.27883166  0.73822431  0.99502217
   0.21413966  0.81997591  0.67312231
   0.15401649  0.83650085  0.34453138
   0.07428299  0.87437118  0.02838293
   0.97811730  0.89772272  0.64133839
   0.94510418  0.93161697  0.34082086
   0.85229240  0.00169278  0.98159948
   0.78155508  0.02712645  0.67186569
   0.75804462  0.06649869  0.32228008
   0.66326650  0.12374787  0.98461390
   0.59071117  0.18131417  0.67082383
   0.52138530  0.21368447  0.34780220
   0.11784061  0.93587235  0.35810463
   0.15059503  0.98504695  0.00154405
   0.20670316  0.02826107  0.69385542
   0.30980285  0.10984880  0.37330061
   0.36844783  0.13451126  0.01557494
   0.41545333  0.19173131  0.68546122
   0.84412232  0.91113138  0.62895414
   0.78578018  0.94583269  0.33010389
   0.70559444  0.00304145  0.00575918
   0.63788309  0.03810072  0.68960695
   0.60516720  0.10139936  0.36076903
   0.51186957  0.09761277  0.99617125
   0.11132367  0.92619228  0.66764826
   0.24452963  0.98493546  0.33646931
   0.31063734  0.01472863  0.02412935
   0.34754389  0.05197369  0.70738337
   0.43911050  0.10064352  0.33922248
   0.79116863  0.87517288  0.99576199
   0.70682670  0.92585515  0.69845734
   0.64420383  0.95495892  0.34763982
   0.56705487  0.96705521  0.01287860
   0.48491846  0.04928255  0.69121645
   0.22491872  0.89058311  0.99829482
   0.27310315  0.93038380  0.66523300
   0.37586163  0.97851999  0.37156534
   0.41950959  0.99322421  0.98700825
   0.71304493  0.81618739  0.31036362
   0.64679251  0.85308480  0.01384382
   0.56072993  0.92967078  0.65627939
   0.52086963  0.98790722  0.36094949
   0.31173927  0.83833759  0.33479417
   0.35370729  0.86496550  0.00479370
   0.40757449  0.91779596  0.68442963
   0.63770666  0.80520052  0.65059508
   0.57426588  0.86911169  0.35187102
   0.51037757  0.85542800  0.01363524
   0.34909460  0.76479542  0.66860909
   0.45931881  0.84420388  0.33891494
   0.58079914  0.74157984  0.99736441
   0.50101589  0.80890976  0.66147564
   0.43398799  0.73706080  0.01471480
   0.52157835  0.71287195  0.34387660
   0.99398139  0.99675134  0.76112772
   0.94675914  0.07203450  0.44390207
   0.86208017  0.06585933  0.09024707
   0.78871449  0.13576378  0.76404420
   0.71316438  0.16154514  0.46589611
   0.65202383  0.19747582  0.12415363
   0.56048464  0.27414801  0.75865627
   0.50770284  0.28578044  0.46301849
   0.45419500  0.31203462  0.12103728
   0.36312428  0.42697150  0.78397558
   0.27729251  0.44028298  0.43202179
   0.20647406  0.44955788  0.13917892
   0.10901851  0.07836116  0.45005096
   0.01157309  0.04421190  0.11512440
   0.92612019  0.11986055  0.78169424
   0.83846911  0.18849189  0.44014890
   0.77972960  0.18553650  0.11909983
   0.69070096  0.25375613  0.78595000
   0.64512787  0.30562038  0.42879632
   0.56560574  0.32054175  0.10979677
   0.47128136  0.41134258  0.78914876
   0.43589244  0.40800615  0.42705781
   0.36371955  0.44151508  0.11123707
   0.27277272  0.48910215  0.76287864
   0.15611055  0.09539348  0.13099567
   0.07732532  0.10390769  0.78107654
   0.01385770  0.17346001  0.42978829
   0.95042115  0.20674335  0.11700146
   0.85234547  0.21745934  0.78141392
   0.78981182  0.30338653  0.44250671
   0.69384733  0.29691791  0.13154156
   0.62706651  0.39579913  0.78557001
   0.55961555  0.42660842  0.43422304
   0.51388577  0.45631987  0.11854662
   0.39428408  0.50499327  0.78441432
   0.34345816  0.55747002  0.44736294
   0.21390769  0.13127820  0.79798906
   0.19400925  0.17082010  0.46141726
   0.07642852  0.20407475  0.12335490
   0.99277964  0.24791616  0.78857827
   0.93521933  0.30114108  0.42660252
   0.83564356  0.31258506  0.12068149
   0.77177130  0.37347764  0.74280327
   0.71617993  0.41330637  0.42876086
   0.65602320  0.44467084  0.10438724
   0.54676077  0.51142129  0.76709315
   0.49494726  0.55876070  0.45831098
   0.47404129  0.58793230  0.10948461
   0.29388404  0.17955132  0.49603072
   0.20106730  0.22310261  0.13194984
   0.15905279  0.25112603  0.81282718
   0.04969506  0.30458646  0.45318976
   0.00266090  0.30215263  0.09554558
   0.90291079  0.37654794  0.77601784
   0.84663864  0.41433583  0.45465429
   0.77461050  0.43283587  0.10925441
   0.71915444  0.50152672  0.77162917
   0.66502423  0.52339983  0.45121225
   0.60763679  0.58871248  0.11309464
   0.48073330  0.64045203  0.79034103
   0.35462381  0.23674288  0.14014491
   0.31870035  0.26620179  0.77653504
   0.21817662  0.29643350  0.46387652
   0.14075425  0.32856973  0.09053343
   0.04702452  0.37859964  0.77014242
   0.99122163  0.44634140  0.43994538
   0.92614133  0.42068114  0.09314824
   0.83843660  0.52581862  0.75992770
   0.78707329  0.54559072  0.41575480
   0.75024565  0.57949491  0.09684209
   0.65951760  0.61131901  0.76937836
   0.59890657  0.66288433  0.46710555
   0.44567210  0.28645581  0.80320708
   0.36055629  0.30033116  0.44969678
   0.27525903  0.31919766  0.13361067
   0.21911591  0.36971237  0.79602179
   0.13124020  0.44609075  0.43704041
   0.07766682  0.43565188  0.12522379
   0.98558740  0.52244651  0.76382646
   0.93465828  0.56785170  0.43973383
   0.87572498  0.55346329  0.09080503
   0.76643759  0.60915737  0.75758595
   0.72257955  0.66294556  0.43884253
   0.66700466  0.70011533  0.11256384
   0.10558140  0.48998079  0.75872037
   0.07357040  0.57102438  0.43387153
   0.00453104  0.54606212  0.09120612
   0.90676431  0.64363149  0.75082036
   0.85156223  0.64733700  0.44856742
   0.79684525  0.68059765  0.10077630
   0.70277685  0.74590961  0.78045560
   0.19837379  0.58219178  0.42613706
   0.15770451  0.55276637  0.09239513
   0.07735516  0.62796587  0.78091521
   0.99866717  0.68232221  0.44269398
   0.93535576  0.68752234  0.08389180
   0.83932914  0.75821750  0.75658850
   0.79584704  0.81429808  0.43027683
   0.31137797  0.57512287  0.12595622
   0.19740464  0.62821992  0.75781229
   0.14242021  0.68280634  0.45569175
   0.10384200  0.70006991  0.10886722
   0.97710561  0.75528512  0.76294050
   0.91549547  0.80907793  0.42748042
   0.85095064  0.82940834  0.08433241
   0.34095655  0.62080147  0.78293683
   0.27371316  0.66987051  0.46436038
   0.21668956  0.69528161  0.11231885
   0.12133702  0.78604860  0.76687050
   0.05658572  0.81138440  0.42499488
   0.03591589  0.80794331  0.09500289
   0.90741928  0.86790724  0.75938301
   0.44855824  0.66328490  0.43478073
   0.35345512  0.68606088  0.11524184
   0.25662582  0.75150618  0.77802666
   0.22675254  0.79551198  0.46137978
   0.17203345  0.80445033  0.11094722
   0.06251707  0.85490829  0.76497622
   0.03185773  0.94897064  0.44185919
   0.95062792  0.93310171  0.09393614
   0.87225507  0.00989833  0.77116211
   0.80663856  0.04600652  0.42426121
   0.71953281  0.07350252  0.10977549
   0.64399217  0.13264444  0.80399172
   0.56445407  0.19229305  0.46042285
   0.49463461  0.18891346  0.09621160
   0.11754644  0.95203056  0.11032707
   0.13868398  0.98937107  0.78648824
   0.24107454  0.06219360  0.47840460
   0.28793269  0.11034399  0.13519043
   0.37537288  0.12141217  0.80876434
   0.43349640  0.18663380  0.47634480
   0.86474208  0.93671420  0.42298736
   0.78771677  0.93501795  0.07181073
   0.73167627  0.00595073  0.78018295
   0.64281023  0.06431905  0.43855059
   0.57875865  0.07097245  0.08763334
   0.52869269  0.10615565  0.77417161
   0.16227651  0.92668829  0.45069628
   0.22642165  0.95794161  0.12577793
   0.29984145  0.98508977  0.77448898
   0.35200099  0.05543438  0.46910502
   0.43989712  0.07364066  0.10736323
   0.76086885  0.86850404  0.75425279
   0.69374169  0.90215002  0.44671294
   0.64494138  0.96954528  0.12294473
   0.60787648  0.98529183  0.77800395
   0.49117405  0.06327332  0.44598013
   0.22754743  0.87510203  0.77032367
   0.28986428  0.90967062  0.44406725
   0.36220291  0.96454631  0.14053946
   0.43849434  0.98498743  0.80143946
   0.71811069  0.82609628  0.09219289
   0.62340610  0.85549214  0.77336287
   0.54430170  0.93669321  0.46852881
   0.50526205  0.96966997  0.09729022
   0.26656544  0.83971420  0.11408911
   0.35621486  0.87474355  0.77972873
   0.43975455  0.90670994  0.46694877
   0.65111264  0.80192384  0.42554391
   0.56585277  0.81138272  0.11190775
   0.47104569  0.87011009  0.77395188
   0.38310487  0.79573596  0.44744184
   0.43078694  0.82752506  0.13089259
   0.56132454  0.74581602  0.76821569
   0.52946153  0.77644448  0.44004974
   0.40559202  0.74489184  0.78206823
   0.49834375  0.69404065  0.12170736
   0.02337252  0.97829261  0.23204539
   0.93850439  0.00357001  0.88752544
   0.84257731  0.07840272  0.56659835
   0.81648000  0.11107639  0.19168045
   0.70634152  0.17023978  0.88295930
   0.63569026  0.22800856  0.55240173
   0.59463829  0.25095782  0.21693805
   0.50373764  0.32279081  0.89039072
   0.41086202  0.33872050  0.55527179
   0.34810392  0.37892048  0.21374478
   0.28963315  0.41868307  0.90937600
   0.23493081  0.46047871  0.55821870
   0.06595742  0.01339064  0.90191622
   0.98631927  0.14521307  0.57648957
   0.91856971  0.10274613  0.21127834
   0.86684298  0.16595933  0.89942943
   0.76298047  0.20965919  0.56886437
   0.72127441  0.24631033  0.22272822
   0.64803178  0.29198685  0.86521257
   0.58483874  0.32949006  0.57472069
   0.50357515  0.36034452  0.21769775
   0.40981492  0.42547420  0.89870813
   0.37283731  0.43869950  0.54628792
   0.30204848  0.49939501  0.22659408
   0.13321318  0.10512416  0.58943175
   0.08851518  0.14323928  0.22104726
   0.01485353  0.15753995  0.88628840
   0.92508575  0.23954526  0.54084292
   0.87344126  0.24156544  0.24110874
   0.78612496  0.28424273  0.88547303
   0.71778955  0.33714339  0.55283898
   0.64680643  0.40144029  0.24574730
   0.57663067  0.44419868  0.89511751
   0.49877622  0.44759126  0.55662841
   0.44387380  0.50156268  0.22194425
   0.32789163  0.52685782  0.87280160
   0.24892715  0.14899213  0.23486119
   0.11972490  0.14618672  0.89820130
   0.06717315  0.23985308  0.56002048
   0.00352974  0.24268627  0.23850190
   0.91407595  0.26848485  0.88036482
   0.85272233  0.35409337  0.55477593
   0.78824363  0.33457176  0.21921704
   0.69403438  0.38208566  0.86923655
   0.64446660  0.44411516  0.53662159
   0.55734325  0.51511119  0.21306054
   0.47288366  0.55650615  0.86793987
   0.42480846  0.58531604  0.54545784
   0.27782052  0.15579090  0.90227507
   0.21436768  0.23010461  0.58616347
   0.11990339  0.25353560  0.25363544
   0.07036335  0.30797950  0.90041845
   0.00490687  0.34869546  0.56469493
   0.89356735  0.37231425  0.22277183
   0.83320850  0.39760227  0.87682607
   0.78789916  0.48103124  0.54539514
   0.71777165  0.49781391  0.19695784
   0.64472862  0.55130206  0.87703550
   0.57834269  0.56826334  0.57297504
   0.50816937  0.65111520  0.25040685
   0.37149784  0.20304025  0.58782432
   0.27990731  0.27622148  0.25313188
   0.20771490  0.30229313  0.91719708
   0.13840716  0.35484656  0.56184046
   0.06673861  0.36424503  0.21398659
   0.96065403  0.40139088  0.88582997
   0.93645331  0.47227839  0.55634845
   0.85089805  0.48513312  0.21802002
   0.76669418  0.51777012  0.88858607
   0.72054176  0.59711807  0.56459764
   0.64328293  0.59913742  0.24532655
   0.53731345  0.67041648  0.86957444
   0.43636848  0.23572067  0.21456345
   0.35075020  0.29318279  0.90220305
   0.28099182  0.33662734  0.54917178
   0.19434178  0.38397352  0.24153668
   0.10654119  0.42319170  0.87524074
   0.07576750  0.47667662  0.56427502
   0.00309741  0.48543238  0.19689516
   0.88678784  0.51907723  0.89001131
   0.84728594  0.60922742  0.55415411
   0.79381806  0.62095447  0.21909557
   0.71011123  0.66387702  0.87966532
   0.64053709  0.73154047  0.57051852
   0.14988544  0.49008422  0.20865542
   0.02958950  0.55705329  0.89735004
   0.00639718  0.60110760  0.55900627
   0.90764425  0.61339478  0.19692881
   0.80712019  0.64465235  0.84107578
   0.78459585  0.72923370  0.53996268
   0.72835733  0.74076247  0.21495378
   0.16664896  0.52763188  0.84849739
   0.14512159  0.61429442  0.56726673
   0.05621372  0.62124877  0.19239382
   0.97079896  0.66665283  0.87581387
   0.92786145  0.73694450  0.54707662
   0.87396199  0.75019491  0.19541049
   0.73404019  0.79391448  0.89123696
   0.27014711  0.58567430  0.55966564
   0.22844963  0.62406552  0.22847651
   0.12787909  0.68155087  0.85958434
   0.06597578  0.71944557  0.54097385
   0.00781804  0.72542622  0.21254715
   0.90313398  0.75135648  0.86495626
   0.87905339  0.84015075  0.53890888
   0.36101900  0.62932946  0.22849467
   0.26785167  0.64098576  0.88839754
   0.21859158  0.73263346  0.57323290
   0.13988737  0.72621216  0.21933263
   0.03205321  0.78766711  0.88699680
   0.98450690  0.83707158  0.52010447
   0.95250351  0.83699077  0.20023200
   0.39143914  0.63788136  0.89976363
   0.35178553  0.72005844  0.57510420
   0.29391129  0.76511563  0.21877922
   0.23202228  0.79744563  0.89342343
   0.13998105  0.86350866  0.54387654
   0.09762073  0.85547036  0.24744284
   0.00148307  0.89184308  0.86309028
   0.94493335  0.99716557  0.54536658
   0.87743355  0.95897691  0.20094993
   0.78283065  0.04091929  0.88023079
   0.70853347  0.06441210  0.56290807
   0.65329674  0.11428888  0.23292795
   0.55359214  0.19558660  0.89448457
   0.49806017  0.21698083  0.56674661
   0.04095914  0.99668451  0.56270794
   0.15980648  0.00524808  0.24060652
   0.20196366  0.03128955  0.91101811
   0.28663500  0.08849582  0.60953789
   0.37441484  0.11763094  0.22020855
   0.43719163  0.19305438  0.88901108
   0.83676613  0.90156892  0.85747182
   0.77412057  0.96038125  0.54714231
   0.72736210  0.98567646  0.21562789
   0.63762006  0.06417130  0.92996288
   0.58940893  0.07965000  0.57122413
   0.49977420  0.11184832  0.21217654
   0.13937678  0.89178310  0.87502949
   0.20236926  0.96884927  0.57922744
   0.30150129  0.00581183  0.23629336
   0.36093289  0.03010296  0.89417990
   0.41687679  0.08717947  0.55057327
   0.79325369  0.87584396  0.19920475
   0.68059121  0.93369844  0.88219487
   0.64730015  0.96259776  0.56645205
   0.60006960  0.01673969  0.21031253
   0.49189043  0.03456404  0.88018636
   0.20882240  0.89300021  0.24139525
   0.29356517  0.90161329  0.88122968
   0.35457174  0.96133382  0.56099085
   0.44739871  0.98995873  0.24285483
   0.71076976  0.85882603  0.55622252
   0.66489449  0.86509348  0.21520573
   0.54669596  0.89386624  0.90371609
   0.49612830  0.95614558  0.57769479
   0.29911266  0.84235639  0.56164373
   0.35838848  0.87361558  0.22996933
   0.41303757  0.92226408  0.89696319
   0.61236448  0.76842174  0.88846432
   0.58255799  0.84768094  0.55358914
   0.50543131  0.90774755  0.22549282
   0.33868005  0.77302208  0.88625624
   0.42130576  0.83692821  0.55972442
   0.58483577  0.77817714  0.21379833
   0.45132118  0.78532561  0.89891502
   0.44509737  0.76305826  0.25403798
   0.48688870  0.70631037  0.54538105
