 432 432   0   0
  0.1915683E+02  0.2022720E-08  0.2022720E-08  0.2022720E-08  0.5000000E-15
  1.000000000000000E-004
  CAR 
 Li                                      
      3.76725453     -3.36016698  301      0.54713546      1.00000000
     -3.360  0.0000E+00  0.0000E+00
     -3.336  0.0000E+00  0.0000E+00
     -3.313  0.0000E+00  0.0000E+00
     -3.289  0.0000E+00  0.0000E+00
     -3.265  0.0000E+00  0.0000E+00
     -3.241  0.0000E+00  0.0000E+00
     -3.218  0.0000E+00  0.0000E+00
     -3.194  0.4273E-11  0.1015E-12
     -3.170  0.1108E-07  0.2633E-09
     -3.146  0.8422E-05  0.2004E-06
     -3.123  0.1895E-02  0.4522E-04
     -3.099  0.1280E+00  0.3085E-02
     -3.075  0.2644E+01  0.6589E-01
     -3.051  0.1709E+02  0.4720E+00
     -3.028  0.3533E+02  0.1311E+01
     -3.004  0.2358E+02  0.1872E+01
     -2.980  0.5189E+01  0.1995E+01
     -2.956  0.3345E+01  0.2074E+01
     -2.933  0.2321E+02  0.2626E+01
     -2.909  0.6957E+02  0.4279E+01
     -2.885  0.9022E+02  0.6422E+01
     -2.861  0.5245E+02  0.7668E+01
     -2.837  0.1323E+02  0.7982E+01
     -2.814  0.7993E+01  0.8172E+01
     -2.790  0.3726E+02  0.9058E+01
     -2.766  0.8268E+02  0.1102E+02
     -2.742  0.8233E+02  0.1298E+02
     -2.719  0.3636E+02  0.1384E+02
     -2.695  0.8968E+01  0.1405E+02
     -2.671  0.2264E+02  0.1459E+02
     -2.647  0.7486E+02  0.1637E+02
     -2.624  0.1124E+03  0.1904E+02
     -2.600  0.8543E+02  0.2107E+02
     -2.576  0.3385E+02  0.2187E+02
     -2.552  0.1635E+02  0.2226E+02
     -2.529  0.5742E+02  0.2363E+02
     -2.505  0.1274E+03  0.2665E+02
     -2.481  0.1504E+03  0.3023E+02
     -2.457  0.1094E+03  0.3283E+02
     -2.434  0.4227E+02  0.3383E+02
     -2.410  0.1026E+02  0.3408E+02
     -2.386  0.2932E+02  0.3477E+02
     -2.362  0.8626E+02  0.3682E+02
     -2.339  0.9285E+02  0.3903E+02
     -2.315  0.3622E+02  0.3989E+02
     -2.291  0.1101E+02  0.4015E+02
     -2.267  0.4097E+02  0.4112E+02
     -2.244  0.1125E+03  0.4380E+02
     -2.220  0.1564E+03  0.4751E+02
     -2.196  0.1248E+03  0.5048E+02
     -2.172  0.5582E+02  0.5180E+02
     -2.149  0.3451E+02  0.5262E+02
     -2.125  0.9396E+02  0.5486E+02
     -2.101  0.1722E+03  0.5895E+02
     -2.077  0.1995E+03  0.6369E+02
     -2.053  0.1622E+03  0.6754E+02
     -2.030  0.8161E+02  0.6948E+02
     -2.006  0.2629E+02  0.7010E+02
     -1.982  0.3448E+02  0.7092E+02
     -1.958  0.7443E+02  0.7269E+02
     -1.935  0.8308E+02  0.7466E+02
     -1.911  0.4559E+02  0.7575E+02
     -1.887  0.2015E+02  0.7623E+02
     -1.863  0.5765E+02  0.7760E+02
     -1.840  0.1399E+03  0.8092E+02
     -1.816  0.1781E+03  0.8515E+02
     -1.792  0.1357E+03  0.8838E+02
     -1.768  0.6003E+02  0.8980E+02
     -1.745  0.3480E+02  0.9063E+02
     -1.721  0.8869E+02  0.9274E+02
     -1.697  0.1735E+03  0.9686E+02
     -1.673  0.2148E+03  0.1020E+03
     -1.650  0.1668E+03  0.1059E+03
     -1.626  0.7342E+02  0.1077E+03
     -1.602  0.3215E+02  0.1084E+03
     -1.578  0.7510E+02  0.1102E+03
     -1.555  0.1417E+03  0.1136E+03
     -1.531  0.1502E+03  0.1172E+03
     -1.507  0.9295E+02  0.1194E+03
     -1.483  0.5140E+02  0.1206E+03
     -1.460  0.9363E+02  0.1228E+03
     -1.436  0.1621E+03  0.1267E+03
     -1.412  0.1934E+03  0.1313E+03
     -1.388  0.1668E+03  0.1352E+03
     -1.364  0.9384E+02  0.1374E+03
     -1.341  0.6037E+02  0.1389E+03
     -1.317  0.1146E+03  0.1416E+03
     -1.293  0.1838E+03  0.1460E+03
     -1.269  0.1969E+03  0.1506E+03
     -1.246  0.1456E+03  0.1541E+03
     -1.222  0.6799E+02  0.1557E+03
     -1.198  0.3935E+02  0.1567E+03
     -1.174  0.8584E+02  0.1587E+03
     -1.151  0.1418E+03  0.1621E+03
     -1.127  0.1432E+03  0.1655E+03
     -1.103  0.8342E+02  0.1675E+03
     -1.079  0.3837E+02  0.1684E+03
     -1.056  0.6951E+02  0.1700E+03
     -1.032  0.1256E+03  0.1730E+03
     -1.008  0.1345E+03  0.1762E+03
     -0.984  0.1058E+03  0.1787E+03
     -0.961  0.8683E+02  0.1808E+03
     -0.937  0.1395E+03  0.1841E+03
     -0.913  0.2274E+03  0.1895E+03
     -0.889  0.2684E+03  0.1959E+03
     -0.866  0.2572E+03  0.2020E+03
     -0.842  0.2038E+03  0.2068E+03
     -0.818  0.1232E+03  0.2097E+03
     -0.794  0.1057E+03  0.2123E+03
     -0.771  0.1629E+03  0.2161E+03
     -0.747  0.2020E+03  0.2209E+03
     -0.723  0.1783E+03  0.2252E+03
     -0.699  0.9787E+02  0.2275E+03
     -0.676  0.5077E+02  0.2287E+03
     -0.652  0.9342E+02  0.2309E+03
     -0.628  0.1534E+03  0.2346E+03
     -0.604  0.1609E+03  0.2384E+03
     -0.580  0.1127E+03  0.2411E+03
     -0.557  0.7954E+02  0.2429E+03
     -0.533  0.1273E+03  0.2460E+03
     -0.509  0.1980E+03  0.2507E+03
     -0.485  0.2325E+03  0.2562E+03
     -0.462  0.2123E+03  0.2612E+03
     -0.438  0.1532E+03  0.2649E+03
     -0.414  0.1168E+03  0.2677E+03
     -0.390  0.1005E+03  0.2700E+03
     -0.367  0.6611E+02  0.2716E+03
     -0.343  0.4687E+02  0.2727E+03
     -0.319  0.9224E+02  0.2749E+03
     -0.295  0.1624E+03  0.2788E+03
     -0.272  0.2011E+03  0.2836E+03
     -0.248  0.2070E+03  0.2885E+03
     -0.224  0.2027E+03  0.2933E+03
     -0.200  0.1742E+03  0.2974E+03
     -0.177  0.1542E+03  0.3011E+03
     -0.153  0.1718E+03  0.3052E+03
     -0.129  0.1973E+03  0.3099E+03
     -0.105  0.2222E+03  0.3151E+03
     -0.082  0.2314E+03  0.3206E+03
     -0.058  0.2168E+03  0.3258E+03
     -0.034  0.1783E+03  0.3300E+03
     -0.010  0.1282E+03  0.3331E+03
      0.013  0.1254E+03  0.3360E+03
      0.037  0.1446E+03  0.3395E+03
      0.061  0.1574E+03  0.3432E+03
      0.085  0.1729E+03  0.3473E+03
      0.109  0.1863E+03  0.3518E+03
      0.132  0.1977E+03  0.3565E+03
      0.156  0.2177E+03  0.3616E+03
      0.180  0.2272E+03  0.3670E+03
      0.204  0.2138E+03  0.3721E+03
      0.227  0.1839E+03  0.3765E+03
      0.251  0.1755E+03  0.3806E+03
      0.275  0.1930E+03  0.3852E+03
      0.299  0.1983E+03  0.3899E+03
      0.322  0.1872E+03  0.3944E+03
      0.346  0.1706E+03  0.3984E+03
      0.370  0.1516E+03  0.4020E+03
      0.394  0.1402E+03  0.4054E+03
      0.417  0.1507E+03  0.4090E+03
      0.441  0.1677E+03  0.4129E+03
      0.465  0.1764E+03  0.4171E+03
      0.489  0.1796E+03  0.4214E+03
      0.512  0.1863E+03  0.4258E+03
      0.536  0.1794E+03  0.4301E+03
      0.560  0.1759E+03  0.4343E+03
      0.584  0.1813E+03  0.4386E+03
      0.607  0.1770E+03  0.4428E+03
      0.631  0.1803E+03  0.4471E+03
      0.655  0.1846E+03  0.4514E+03
      0.679  0.1872E+03  0.4559E+03
      0.702  0.1942E+03  0.4605E+03
      0.726  0.1963E+03  0.4652E+03
      0.750  0.1967E+03  0.4698E+03
      0.774  0.1962E+03  0.4745E+03
      0.797  0.2006E+03  0.4793E+03
      0.821  0.2058E+03  0.4842E+03
      0.845  0.2091E+03  0.4891E+03
      0.869  0.2162E+03  0.4943E+03
      0.893  0.2320E+03  0.4998E+03
      0.916  0.2320E+03  0.5053E+03
      0.940  0.2294E+03  0.5107E+03
      0.964  0.2262E+03  0.5161E+03
      0.988  0.2210E+03  0.5214E+03
      1.011  0.2202E+03  0.5266E+03
      1.035  0.2245E+03  0.5319E+03
      1.059  0.2291E+03  0.5374E+03
      1.083  0.2277E+03  0.5428E+03
      1.106  0.2220E+03  0.5481E+03
      1.130  0.2136E+03  0.5531E+03
      1.154  0.2020E+03  0.5579E+03
      1.178  0.1946E+03  0.5626E+03
      1.201  0.1952E+03  0.5672E+03
      1.225  0.2004E+03  0.5720E+03
      1.249  0.2121E+03  0.5770E+03
      1.273  0.2166E+03  0.5821E+03
      1.296  0.2094E+03  0.5871E+03
      1.320  0.2016E+03  0.5919E+03
      1.344  0.2008E+03  0.5967E+03
      1.368  0.1970E+03  0.6014E+03
      1.391  0.1886E+03  0.6058E+03
      1.415  0.1890E+03  0.6103E+03
      1.439  0.1893E+03  0.6148E+03
      1.463  0.1813E+03  0.6191E+03
      1.486  0.1674E+03  0.6231E+03
      1.510  0.1643E+03  0.6270E+03
      1.534  0.1631E+03  0.6309E+03
      1.558  0.1645E+03  0.6348E+03
      1.582  0.1667E+03  0.6388E+03
      1.605  0.1674E+03  0.6427E+03
      1.629  0.1628E+03  0.6466E+03
      1.653  0.1522E+03  0.6502E+03
      1.677  0.1451E+03  0.6537E+03
      1.700  0.1491E+03  0.6572E+03
      1.724  0.1505E+03  0.6608E+03
      1.748  0.1386E+03  0.6641E+03
      1.772  0.1375E+03  0.6673E+03
      1.795  0.1517E+03  0.6709E+03
      1.819  0.1652E+03  0.6749E+03
      1.843  0.1777E+03  0.6791E+03
      1.867  0.1915E+03  0.6836E+03
      1.890  0.1858E+03  0.6881E+03
      1.914  0.1588E+03  0.6918E+03
      1.938  0.1441E+03  0.6953E+03
      1.962  0.1542E+03  0.6989E+03
      1.985  0.1716E+03  0.7030E+03
      2.009  0.1829E+03  0.7073E+03
      2.033  0.1740E+03  0.7115E+03
      2.057  0.1610E+03  0.7153E+03
      2.080  0.1635E+03  0.7192E+03
      2.104  0.1678E+03  0.7232E+03
      2.128  0.1689E+03  0.7272E+03
      2.152  0.1636E+03  0.7311E+03
      2.175  0.1612E+03  0.7349E+03
      2.199  0.1604E+03  0.7387E+03
      2.223  0.1526E+03  0.7423E+03
      2.247  0.1545E+03  0.7460E+03
      2.270  0.1568E+03  0.7497E+03
      2.294  0.1404E+03  0.7531E+03
      2.318  0.1351E+03  0.7563E+03
      2.342  0.1468E+03  0.7598E+03
      2.366  0.1357E+03  0.7630E+03
      2.389  0.1328E+03  0.7661E+03
      2.413  0.1295E+03  0.7692E+03
      2.437  0.1196E+03  0.7721E+03
      2.461  0.1098E+03  0.7747E+03
      2.484  0.1080E+03  0.7772E+03
      2.508  0.1143E+03  0.7800E+03
      2.532  0.1173E+03  0.7827E+03
      2.556  0.1110E+03  0.7854E+03
      2.579  0.1039E+03  0.7878E+03
      2.603  0.9656E+02  0.7901E+03
      2.627  0.8928E+02  0.7923E+03
      2.651  0.7541E+02  0.7940E+03
      2.674  0.5248E+02  0.7953E+03
      2.698  0.2642E+02  0.7959E+03
      2.722  0.2493E+02  0.7965E+03
      2.746  0.5748E+02  0.7979E+03
      2.769  0.7349E+02  0.7996E+03
      2.793  0.6070E+02  0.8011E+03
      2.817  0.4157E+02  0.8021E+03
      2.841  0.4312E+02  0.8031E+03
      2.864  0.6552E+02  0.8046E+03
      2.888  0.7892E+02  0.8065E+03
      2.912  0.8852E+02  0.8086E+03
      2.936  0.1010E+03  0.8110E+03
      2.959  0.1105E+03  0.8136E+03
      2.983  0.1183E+03  0.8165E+03
      3.007  0.1207E+03  0.8193E+03
      3.031  0.1188E+03  0.8221E+03
      3.055  0.1164E+03  0.8249E+03
      3.078  0.1199E+03  0.8278E+03
      3.102  0.1226E+03  0.8307E+03
      3.126  0.1298E+03  0.8338E+03
      3.150  0.1274E+03  0.8368E+03
      3.173  0.1244E+03  0.8397E+03
      3.197  0.1230E+03  0.8427E+03
      3.221  0.1065E+03  0.8452E+03
      3.245  0.8740E+02  0.8473E+03
      3.268  0.7308E+02  0.8490E+03
      3.292  0.7828E+02  0.8509E+03
      3.316  0.8694E+02  0.8529E+03
      3.340  0.9566E+02  0.8552E+03
      3.363  0.1172E+03  0.8580E+03
      3.387  0.1293E+03  0.8611E+03
      3.411  0.1081E+03  0.8636E+03
      3.435  0.6447E+02  0.8652E+03
      3.458  0.2772E+02  0.8658E+03
      3.482  0.7091E+01  0.8660E+03
      3.506  0.8209E+00  0.8660E+03
      3.530  0.3532E-01  0.8660E+03
      3.553  0.5015E-03  0.8660E+03
      3.577  0.2203E-05  0.8660E+03
      3.601  0.2899E-08  0.8660E+03
      3.625  0.1122E-11  0.8660E+03
      3.648  0.0000E+00  0.8660E+03
      3.672  0.0000E+00  0.8660E+03
      3.696  0.0000E+00  0.8660E+03
      3.720  0.0000E+00  0.8660E+03
      3.743  0.0000E+00  0.8660E+03
      3.767  0.0000E+00  0.8660E+03
