       N       E                     dE             d eps       ncg     rms          rms(c)
DAV:   1    -0.203663509355E+03   -0.20366E+03   -0.10652E+05  3464   0.661E+02
DAV:   2    -0.744347900324E+03   -0.54068E+03   -0.49352E+03  3980   0.691E+01
DAV:   3    -0.783046919129E+03   -0.38699E+02   -0.35376E+02  4440   0.147E+01
DAV:   4    -0.784333334848E+03   -0.12864E+01   -0.12692E+01  4024   0.294E+00
DAV:   5    -0.784364086551E+03   -0.30752E-01   -0.30705E-01  4184   0.474E-01    0.107E+01
DAV:   6    -0.780906138430E+03    0.34579E+01   -0.15385E+01  4136   0.626E+00    0.915E+00
DAV:   7    -0.769559146315E+03    0.11347E+02   -0.12859E+01  4168   0.546E+00    0.484E+00
DAV:   8    -0.767073396881E+03    0.24857E+01   -0.64997E+00  3952   0.255E+00    0.229E+00
DAV:   9    -0.766871949845E+03    0.20145E+00   -0.27945E+00  3816   0.138E+00    0.131E+00
DAV:  10    -0.766866836563E+03    0.51133E-02   -0.43153E-01  4024   0.712E-01    0.941E-01
DAV:  11    -0.766789651625E+03    0.77185E-01   -0.14959E-01  3984   0.488E-01    0.546E-01
DAV:  12    -0.766776577041E+03    0.13075E-01   -0.49212E-02  3824   0.211E-01    0.246E-01
DAV:  13    -0.766777205418E+03   -0.62838E-03   -0.13557E-02  4016   0.134E-01    0.167E-01
DAV:  14    -0.766775212730E+03    0.19927E-02   -0.50857E-03  3968   0.925E-02    0.941E-02
DAV:  15    -0.766774629758E+03    0.58297E-03   -0.14971E-03  3952   0.446E-02    0.456E-02
DAV:  16    -0.766774568313E+03    0.61445E-04   -0.61982E-04  3880   0.243E-02    0.232E-02
DAV:  17    -0.766774531742E+03    0.36571E-04   -0.16643E-04  3960   0.153E-02    0.151E-02
DAV:  18    -0.766774505131E+03    0.26611E-04   -0.41930E-05  3616   0.720E-03    0.656E-03
DAV:  19    -0.766774501140E+03    0.39911E-05   -0.12220E-05  2264   0.428E-03
   1 F= -.76677450E+03 E0= -.76673510E+03  d E =-.788007E-01
