Li                                      
           1
    20.227200    0.000000    0.000000
     0.000000   20.227200    0.000000
     0.000000    0.000000   20.227200
   Li
   432
Direct configuration=     1
   0.99896331  0.02981695  0.99130124
   0.93379008  0.08481428  0.08802654
   0.83867775  0.17335984  0.18623866
   0.74134933  0.26899797  0.27864531
   0.66945628  0.38304070  0.33015168
   0.57430792  0.42798967  0.39895843
   0.50203397  0.53706207  0.51462765
   0.40642591  0.61272218  0.58490001
   0.32530928  0.65614236  0.66152840
   0.22598051  0.74083094  0.75306158
   0.13097468  0.83392557  0.86604842
   0.06161155  0.90904415  0.94256041
   0.07432205  0.93701211  0.08244781
   0.98390513  0.99820877  0.18484891
   0.91181180  0.06951949  0.26570097
   0.83635308  0.15974325  0.35748793
   0.75799586  0.26698956  0.39413354
   0.67672172  0.34420400  0.47037668
   0.58791973  0.41561833  0.59725774
   0.49143365  0.52324294  0.66090495
   0.40600266  0.58103024  0.75838816
   0.31254587  0.66657238  0.81877817
   0.23416237  0.73008493  0.88707664
   0.15639285  0.83437473  0.99056772
   0.18310690  0.83817641  0.15662188
   0.07520022  0.90571446  0.25038620
   0.97752463  0.00941235  0.35429303
   0.89039451  0.08988197  0.44532011
   0.80203420  0.19236461  0.51355715
   0.74597779  0.25728828  0.58763563
   0.66512218  0.34561525  0.68384336
   0.55788553  0.39085775  0.75788515
   0.49209724  0.50084396  0.81464990
   0.41531090  0.57995454  0.91356598
   0.33252885  0.66760772  0.98255753
   0.24779491  0.74935675  0.08213421
   0.21812889  0.74438797  0.24769275
   0.12411448  0.80295897  0.35235128
   0.05619765  0.91903345  0.42220269
   0.00667779  0.01539216  0.48729684
   0.88765084  0.10086339  0.59283577
   0.80995074  0.15745744  0.69449791
   0.74478527  0.25567727  0.77058499
   0.68216070  0.31839357  0.83846289
   0.58115538  0.39647266  0.91621323
   0.51610358  0.47605465  0.98008652
   0.43665235  0.59368442  0.03992386
   0.34529318  0.67383570  0.14609036
   0.31206187  0.66627366  0.30709501
   0.24565335  0.73918595  0.42801715
   0.15942676  0.84521056  0.49521101
   0.05387379  0.95076244  0.58118615
   0.00553833  0.01107792  0.66380950
   0.90420614  0.07811298  0.74133183
   0.83751705  0.14907461  0.83399911
   0.76948762  0.21289544  0.91108401
   0.70946418  0.35377782  0.00841720
   0.60155362  0.41053223  0.08154478
   0.51315926  0.52182420  0.14799458
   0.42013142  0.58398506  0.25787609
   0.39567218  0.59254661  0.43469481
   0.33456764  0.68951692  0.51311229
   0.22617516  0.75255231  0.57988708
   0.14600462  0.87122505  0.67324316
   0.06416461  0.92241135  0.75009451
   0.96395209  0.01961561  0.82050260
   0.90260821  0.08746112  0.91051429
   0.83222580  0.14618279  0.00212132
   0.74182576  0.22247040  0.09997321
   0.68318327  0.33373391  0.19319945
   0.57820891  0.43108527  0.25216049
   0.52691314  0.53203282  0.35631611
   0.09778935  0.08033170  0.91836045
   0.00738902  0.17701202  0.99910630
   0.93226344  0.24973219  0.09162561
   0.81951047  0.30410119  0.18324543
   0.74764960  0.44154059  0.25583107
   0.69075405  0.51457677  0.31667384
   0.60061166  0.59368837  0.42617964
   0.51121470  0.65863784  0.49823091
   0.40804805  0.76946974  0.55369020
   0.30688375  0.81060365  0.66920191
   0.24151894  0.91955334  0.75538362
   0.14397277  0.97992588  0.85599539
   0.16006019  0.98295724  0.00623957
   0.07145440  0.08705708  0.08895003
   0.99137861  0.18981682  0.17435897
   0.89250980  0.23591685  0.29494296
   0.82018327  0.38227858  0.34639879
   0.76204367  0.45417453  0.41870500
   0.65148602  0.49299830  0.53117541
   0.59397841  0.61296067  0.58754430
   0.48340667  0.66935723  0.65789368
   0.38985618  0.72871911  0.73143305
   0.30417107  0.81918822  0.81862704
   0.25684607  0.90753130  0.89467349
   0.26311247  0.92679878  0.08041113
   0.17196133  0.00701161  0.14951685
   0.08493101  0.08230151  0.27037199
   0.99562456  0.15199832  0.36136545
   0.90402879  0.28014142  0.41244418
   0.82262159  0.33953932  0.53384862
   0.73979945  0.43045246  0.59058142
   0.63068365  0.52552697  0.68158592
   0.58970848  0.61320451  0.75948448
   0.49833814  0.67580479  0.84041673
   0.40372440  0.74524384  0.88612806
   0.33035588  0.81926769  0.00910940
   0.34281622  0.81748307  0.18278803
   0.25449967  0.93516300  0.25666459
   0.15710836  0.98200571  0.34056848
   0.09966495  0.07743324  0.42223512
   0.96370895  0.16489516  0.48664706
   0.92532246  0.23196384  0.61526688
   0.81738224  0.35384002  0.67138341
   0.76222855  0.43786027  0.76067258
   0.65217171  0.47912411  0.83179138
   0.59792923  0.57628998  0.90785414
   0.50314165  0.69356864  0.95920377
   0.43054375  0.74110361  0.06733165
   0.45340993  0.73312693  0.25305874
   0.32232220  0.81294364  0.32145153
   0.23218959  0.93272866  0.39283266
   0.18542167  0.00486307  0.53137757
   0.05764610  0.09648420  0.57977757
   0.00225088  0.12103458  0.67893671
   0.92181462  0.24004991  0.75679800
   0.83737587  0.35063898  0.81673112
   0.78049976  0.41150532  0.90533441
   0.68565126  0.48480137  0.99075722
   0.58610418  0.61708406  0.02766305
   0.52549953  0.64924710  0.16004108
   0.50942641  0.66437188  0.33428229
   0.40028689  0.75412314  0.40019008
   0.31580348  0.83714722  0.48319943
   0.24791099  0.90923525  0.57116639
   0.15955326  0.03302697  0.65143803
   0.07792603  0.09698636  0.75429263
   0.97294797  0.16263973  0.85904499
   0.90871245  0.25114726  0.94298207
   0.83204844  0.32278215  0.00763994
   0.77056973  0.40524706  0.11358068
   0.66765240  0.50806136  0.15212460
   0.60990634  0.59775139  0.23146411
   0.16963096  0.15585673  0.85063331
   0.09811221  0.25913256  0.90814882
   0.01669223  0.34722809  0.00825734
   0.91124417  0.38158809  0.08807302
   0.84123622  0.50758745  0.16045565
   0.75549303  0.57371349  0.23033482
   0.69125901  0.65119929  0.30949097
   0.57374054  0.74519318  0.38829676
   0.47340718  0.83434500  0.46806788
   0.37770728  0.89881856  0.57767596
   0.34476779  0.01235074  0.69221673
   0.22315816  0.09001074  0.75497447
   0.23425369  0.07217104  0.94404242
   0.16862355  0.16242157  0.98710816
   0.08685935  0.24582843  0.06289256
   0.99457577  0.31527766  0.19243522
   0.91414489  0.41068469  0.23973418
   0.86281630  0.51967595  0.32650950
   0.74015088  0.55113445  0.42492724
   0.65955779  0.66290262  0.50101804
   0.58929744  0.78359177  0.57100211
   0.49754383  0.83213904  0.66846742
   0.39824115  0.90272704  0.76341761
   0.32830435  0.02156564  0.83070063
   0.31640973  0.01619794  0.99454153
   0.22607243  0.11321565  0.08238284
   0.14034095  0.16760138  0.17922206
   0.07564936  0.21867339  0.27519711
   0.99463589  0.33892056  0.32794371
   0.92238472  0.42929262  0.41756963
   0.84268577  0.51438676  0.51502292
   0.74018518  0.58603727  0.61116935
   0.69813422  0.70379974  0.67622607
   0.59775211  0.74389722  0.74281404
   0.49715388  0.82429843  0.83471732
   0.39127536  0.92971880  0.91649641
   0.40348064  0.91408566  0.09261778
   0.34559286  0.02748837  0.18054390
   0.22647013  0.07700450  0.25122400
   0.16763861  0.18376726  0.34735175
   0.05407748  0.24647984  0.41820302
   0.98435166  0.34926027  0.49850596
   0.91307219  0.40138759  0.58851912
   0.81746473  0.52096447  0.67751385
   0.74649711  0.60120560  0.77552228
   0.64912767  0.69331649  0.81534765
   0.58512389  0.76277787  0.91200933
   0.48617234  0.82337463  0.99902924
   0.50548355  0.81359121  0.15489696
   0.42724146  0.93226996  0.25163999
   0.36630145  0.00558073  0.33326077
   0.26562042  0.07274660  0.43014874
   0.17512235  0.18330413  0.49616210
   0.03989702  0.22383404  0.56145868
   0.00778512  0.32588941  0.66459581
   0.96780842  0.40067744  0.73818722
   0.86656215  0.51037435  0.82932151
   0.76470171  0.59075463  0.87861544
   0.68598310  0.66113685  0.96900706
   0.59715858  0.73529072  0.06271979
   0.60621855  0.74022130  0.25493887
   0.48069697  0.83413446  0.32733330
   0.39618307  0.91521024  0.38953962
   0.33248139  0.99061512  0.50182591
   0.25389326  0.07371006  0.55488494
   0.17156247  0.17142926  0.64314183
   0.10722062  0.22762229  0.77223635
   0.02221336  0.32029991  0.82093860
   0.91813778  0.39273162  0.91318579
   0.81688840  0.48915654  0.98699677
   0.77784867  0.56877962  0.04337108
   0.68959373  0.65447534  0.14797478
   0.26181036  0.22465126  0.76149340
   0.20310492  0.35319068  0.83814155
   0.10903715  0.41007993  0.89841783
   0.00231265  0.46852495  0.99012467
   0.95259708  0.56141274  0.08140914
   0.85093168  0.64783382  0.14142127
   0.77933461  0.72036924  0.24519334
   0.70840166  0.81454136  0.35040525
   0.59528380  0.89748947  0.39830933
   0.50104639  0.94715642  0.47842251
   0.43014785  0.07380165  0.56394185
   0.33907205  0.13734278  0.64714239
   0.33679987  0.16276955  0.85604840
   0.25532739  0.24279990  0.93351628
   0.16764621  0.35250698  0.00792580
   0.09416429  0.39359752  0.08128758
   0.01042641  0.47632652  0.17894539
   0.93412654  0.57957692  0.22654587
   0.82498231  0.65670058  0.33976839
   0.76575457  0.71653950  0.42790816
   0.67937847  0.82885786  0.47816766
   0.58154523  0.90538811  0.57839014
   0.46812127  0.96988047  0.65274923
   0.43348465  0.09889279  0.75405575
   0.42832344  0.10935575  0.91516558
   0.34880120  0.18199143  0.00634257
   0.26667676  0.25909387  0.08950776
   0.16173130  0.32936286  0.17322065
   0.08536651  0.39978141  0.27368709
   0.99759011  0.49877127  0.34398588
   0.91965099  0.58523561  0.41672706
   0.83134526  0.65733138  0.49304798
   0.76043311  0.77475288  0.57203343
   0.68179980  0.83624096  0.68466293
   0.58126553  0.93513502  0.74281680
   0.50636186  0.99496443  0.82851558
   0.47795838  0.01987270  0.00458575
   0.42326928  0.09172039  0.07362404
   0.33403239  0.16016163  0.17118929
   0.27367458  0.24945635  0.26448834
   0.18186765  0.33303596  0.31317666
   0.07926431  0.42597023  0.41995416
   0.98193680  0.51854826  0.50777510
   0.90220081  0.60006586  0.61231107
   0.80951054  0.68456451  0.68794162
   0.75820411  0.79323512  0.77748183
   0.66298287  0.86016342  0.82479015
   0.56826479  0.91012968  0.93890600
   0.58236447  0.92406450  0.08957267
   0.49428654  0.98576079  0.17156325
   0.43237674  0.08185309  0.24063500
   0.34354550  0.15596166  0.31020330
   0.24332506  0.24900321  0.40959833
   0.12997565  0.32656053  0.49794663
   0.07793662  0.44866488  0.59082350
   0.98436586  0.49534043  0.65982771
   0.91489705  0.59283380  0.74805495
   0.85968918  0.68914100  0.82595306
   0.76006204  0.76098626  0.89713647
   0.67669106  0.83650855  0.00697313
   0.67715810  0.82392953  0.17757363
   0.60415745  0.90391116  0.25566831
   0.49054850  0.98402518  0.32985825
   0.41550606  0.09223189  0.43482313
   0.34820811  0.18651641  0.51582121
   0.25100256  0.26415341  0.59332122
   0.15482626  0.30914899  0.63276129
   0.08009342  0.42939678  0.74025159
   0.01023059  0.49299354  0.83100767
   0.93478053  0.58050979  0.91649017
   0.83818384  0.67597003  0.99542939
   0.74123628  0.72413857  0.05398309
   0.34259876  0.31305717  0.67150719
   0.26361008  0.39804375  0.71840601
   0.18226818  0.48823754  0.83706047
   0.08235776  0.58663723  0.91930862
   0.02798430  0.65689116  0.01271174
   0.93532496  0.73368017  0.05811668
   0.83209690  0.80735045  0.16348464
   0.80505357  0.91092080  0.26163886
   0.67110126  0.00438597  0.32851176
   0.57715032  0.06592689  0.41199708
   0.52892290  0.14305895  0.47342559
   0.42081069  0.25291758  0.57676272
   0.40046552  0.23391965  0.75888360
   0.32648780  0.32077787  0.83616516
   0.28139392  0.40539611  0.90968358
   0.17243119  0.50195289  0.01609885
   0.07903649  0.57621058  0.07617695
   0.00070193  0.67392926  0.15748231
   0.90877268  0.72933852  0.24713273
   0.83986387  0.81018503  0.35271030
   0.76665210  0.92838669  0.40045319
   0.67620308  0.99606277  0.48242298
   0.57159214  0.06050960  0.59728815
   0.50560195  0.16977192  0.64645895
   0.53376616  0.16780183  0.84220913
   0.41685482  0.23392811  0.90320847
   0.34295342  0.33058844  0.00933784
   0.25544760  0.42167879  0.09289544
   0.15670626  0.48949831  0.15362425
   0.06545110  0.57354058  0.22873697
   0.99978795  0.63876792  0.33690438
   0.90488684  0.73203557  0.43202748
   0.82981923  0.82030645  0.47568844
   0.73536340  0.90148747  0.56680628
   0.67675706  0.98977056  0.66165879
   0.57624501  0.05640602  0.73636553
   0.57463462  0.09447477  0.89879502
   0.51980357  0.17803498  0.01001906
   0.40364975  0.23961144  0.11833022
   0.33075242  0.35518270  0.16613934
   0.24932042  0.44300149  0.24749230
   0.14703973  0.50702364  0.33243482
   0.08704903  0.57862966  0.43979320
   0.01980411  0.67896627  0.51920173
   0.90477124  0.75258157  0.58508842
   0.80174480  0.85708425  0.66915914
   0.76059754  0.91580593  0.77254052
   0.65322317  0.97301785  0.85364650
   0.66919278  0.01336279  0.00323238
   0.57914174  0.06471448  0.10717243
   0.50189132  0.15965294  0.15178693
   0.41738587  0.24373116  0.25922585
   0.32761136  0.38539895  0.33384210
   0.22327342  0.44594092  0.41878043
   0.16943670  0.50637980  0.50761926
   0.06523444  0.56129389  0.60349638
   0.00630791  0.67237055  0.67871459
   0.92645445  0.75990761  0.72553020
   0.86783335  0.84053637  0.82565888
   0.76245899  0.90825800  0.93193006
   0.75408669  0.91440486  0.09185298
   0.68421328  0.00619285  0.18508837
   0.57832276  0.07814672  0.25633399
   0.49449944  0.15661085  0.33939091
   0.41316412  0.28145808  0.39760996
   0.34134501  0.31580522  0.50774620
   0.24129754  0.38636248  0.57722020
   0.15598697  0.49356456  0.65416326
   0.08344886  0.57145625  0.74964796
   0.00292186  0.65275888  0.80836248
   0.92699876  0.73518057  0.89684710
   0.84775206  0.82161791  0.00668965
   0.41973015  0.40069401  0.56600545
   0.35795035  0.50486271  0.65277814
   0.25011989  0.56916419  0.72461653
   0.14013163  0.64432122  0.81981076
   0.06310473  0.73819212  0.91714475
   0.01008640  0.84144359  0.01099445
   0.92937138  0.90141624  0.09700333
   0.85549712  0.00871085  0.16053409
   0.75986367  0.07235241  0.24777400
   0.66427296  0.17657013  0.32492496
   0.60667011  0.25629605  0.38971520
   0.51111233  0.32073402  0.46694814
   0.48993686  0.31728943  0.65231986
   0.41864582  0.38257378  0.73131603
   0.34137454  0.49433836  0.82336715
   0.24064032  0.58557168  0.91363361
   0.14797733  0.68642490  0.97883447
   0.08494078  0.77617430  0.07083484
   0.00311323  0.83293662  0.20125501
   0.91772923  0.91827941  0.26401897
   0.83930474  0.01749364  0.35835995
   0.74345854  0.09837305  0.42065216
   0.66960845  0.17893975  0.50180042
   0.59300634  0.24188990  0.58369943
   0.56990974  0.26246500  0.74666738
   0.47783374  0.29614844  0.84858122
   0.41428188  0.40797292  0.92530966
   0.32997903  0.52213569  0.98906548
   0.25715303  0.58684537  0.07869361
   0.14668595  0.66367946  0.15097600
   0.06363360  0.73075304  0.25039908
   0.97881746  0.83479115  0.33613968
   0.93309836  0.91346456  0.42219701
   0.84431669  0.00621966  0.50088906
   0.74784033  0.08167919  0.60567397
   0.65668026  0.16990508  0.69119615
   0.65118464  0.17659424  0.83558495
   0.61958249  0.25797934  0.94089325
   0.49677982  0.29477307  0.01730524
   0.41236156  0.43659050  0.08405326
   0.34170979  0.51123284  0.14603927
   0.26053878  0.57224406  0.23592975
   0.14698185  0.62672379  0.34140801
   0.04718692  0.72748978  0.43110406
   0.99023649  0.81749200  0.51093257
   0.91779094  0.91887714  0.57550738
   0.82567717  0.00883867  0.67541874
   0.74899596  0.08175725  0.77951847
   0.74423183  0.08364589  0.91107664
   0.67487711  0.13369617  0.00813217
   0.60499400  0.23921414  0.09710228
   0.50542699  0.34318249  0.17111799
   0.42227913  0.45048345  0.22877015
   0.35934209  0.52055079  0.32240902
   0.27413647  0.58310335  0.41650533
   0.15682633  0.66279306  0.49909627
   0.08904273  0.75409492  0.60109245
   0.99065153  0.84810110  0.64641034
   0.92346686  0.91572834  0.73162123
   0.84945815  0.98170638  0.85262226
   0.82495775  0.00649210  0.99388555
   0.76055252  0.09846283  0.10661798
   0.67552192  0.18634531  0.20504452
   0.55975891  0.26114228  0.26890930
   0.48931213  0.35406764  0.31966327
   0.42527664  0.44573837  0.41475354
   0.35490171  0.50586598  0.51486361
   0.24095033  0.59409332  0.57151648
   0.15514408  0.68499986  0.67507491
   0.09082846  0.76841498  0.75421505
   0.98997413  0.86717113  0.81229042
   0.89885743  0.91006486  0.91315594
