 504 504   0   0
  0.1982611E+02  0.2127286E-08  0.2105467E-08  0.2230970E-08  0.5000000E-15
  1.000000000000000E-004
  CAR 
 Li                                      
      3.58947936     -3.41561669  301      0.45718027      1.00000000
     -3.416  0.0000E+00  0.0000E+00
     -3.392  0.0000E+00  0.0000E+00
     -3.369  0.0000E+00  0.0000E+00
     -3.346  0.0000E+00  0.0000E+00
     -3.322  0.0000E+00  0.0000E+00
     -3.299  0.0000E+00  0.0000E+00
     -3.276  0.0000E+00  0.0000E+00
     -3.252  0.1136E-10  0.2651E-12
     -3.229  0.2264E-07  0.5289E-09
     -3.205  0.1381E-04  0.3230E-06
     -3.182  0.2600E-02  0.6103E-04
     -3.159  0.1531E+00  0.3637E-02
     -3.135  0.2872E+01  0.7071E-01
     -3.112  0.1752E+02  0.4798E+00
     -3.089  0.3540E+02  0.1307E+01
     -3.065  0.2394E+02  0.1866E+01
     -3.042  0.6153E+01  0.2009E+01
     -3.019  0.1030E+02  0.2250E+01
     -2.995  0.4785E+02  0.3367E+01
     -2.972  0.9399E+02  0.5562E+01
     -2.949  0.7654E+02  0.7349E+01
     -2.925  0.2517E+02  0.7936E+01
     -2.902  0.9476E+01  0.8158E+01
     -2.879  0.3961E+02  0.9083E+01
     -2.855  0.9108E+02  0.1121E+02
     -2.832  0.8374E+02  0.1317E+02
     -2.809  0.3288E+02  0.1393E+02
     -2.785  0.2016E+02  0.1440E+02
     -2.762  0.5406E+02  0.1567E+02
     -2.738  0.9467E+02  0.1788E+02
     -2.715  0.1024E+03  0.2027E+02
     -2.692  0.6042E+02  0.2168E+02
     -2.668  0.3124E+02  0.2241E+02
     -2.645  0.6955E+02  0.2403E+02
     -2.622  0.1293E+03  0.2705E+02
     -2.598  0.1478E+03  0.3050E+02
     -2.575  0.1051E+03  0.3296E+02
     -2.552  0.4183E+02  0.3393E+02
     -2.528  0.2904E+02  0.3461E+02
     -2.505  0.6634E+02  0.3616E+02
     -2.482  0.9099E+02  0.3828E+02
     -2.458  0.6339E+02  0.3976E+02
     -2.435  0.4284E+02  0.4077E+02
     -2.412  0.6322E+02  0.4224E+02
     -2.388  0.9383E+02  0.4443E+02
     -2.365  0.1219E+03  0.4728E+02
     -2.342  0.1260E+03  0.5022E+02
     -2.318  0.9816E+02  0.5251E+02
     -2.295  0.9991E+02  0.5485E+02
     -2.271  0.1265E+03  0.5780E+02
     -2.248  0.1587E+03  0.6151E+02
     -2.225  0.1755E+03  0.6561E+02
     -2.201  0.1339E+03  0.6873E+02
     -2.178  0.7501E+02  0.7048E+02
     -2.155  0.4874E+02  0.7162E+02
     -2.131  0.4599E+02  0.7269E+02
     -2.108  0.6745E+02  0.7427E+02
     -2.085  0.6719E+02  0.7584E+02
     -2.061  0.7186E+02  0.7752E+02
     -2.038  0.1146E+03  0.8019E+02
     -2.015  0.1433E+03  0.8354E+02
     -1.991  0.1400E+03  0.8681E+02
     -1.968  0.1261E+03  0.8975E+02
     -1.945  0.1070E+03  0.9225E+02
     -1.921  0.1125E+03  0.9488E+02
     -1.898  0.1336E+03  0.9800E+02
     -1.874  0.1581E+03  0.1017E+03
     -1.851  0.1799E+03  0.1059E+03
     -1.828  0.1559E+03  0.1095E+03
     -1.804  0.8450E+02  0.1115E+03
     -1.781  0.4043E+02  0.1124E+03
     -1.758  0.7826E+02  0.1143E+03
     -1.734  0.1349E+03  0.1174E+03
     -1.711  0.1378E+03  0.1206E+03
     -1.688  0.1230E+03  0.1235E+03
     -1.664  0.1415E+03  0.1268E+03
     -1.641  0.1567E+03  0.1305E+03
     -1.618  0.1648E+03  0.1343E+03
     -1.594  0.1713E+03  0.1383E+03
     -1.571  0.1433E+03  0.1417E+03
     -1.548  0.1221E+03  0.1445E+03
     -1.524  0.1380E+03  0.1477E+03
     -1.501  0.1499E+03  0.1512E+03
     -1.478  0.1538E+03  0.1548E+03
     -1.454  0.1379E+03  0.1581E+03
     -1.431  0.1078E+03  0.1606E+03
     -1.407  0.9216E+02  0.1627E+03
     -1.384  0.1041E+03  0.1652E+03
     -1.361  0.1118E+03  0.1678E+03
     -1.337  0.1014E+03  0.1701E+03
     -1.314  0.1163E+03  0.1728E+03
     -1.291  0.1470E+03  0.1763E+03
     -1.267  0.1432E+03  0.1796E+03
     -1.244  0.1372E+03  0.1828E+03
     -1.221  0.1588E+03  0.1865E+03
     -1.197  0.1663E+03  0.1904E+03
     -1.174  0.1661E+03  0.1943E+03
     -1.151  0.1918E+03  0.1988E+03
     -1.127  0.2189E+03  0.2039E+03
     -1.104  0.2201E+03  0.2090E+03
     -1.081  0.2093E+03  0.2139E+03
     -1.057  0.1882E+03  0.2183E+03
     -1.034  0.1583E+03  0.2220E+03
     -1.011  0.1446E+03  0.2254E+03
     -0.987  0.1436E+03  0.2287E+03
     -0.964  0.1121E+03  0.2314E+03
     -0.940  0.9286E+02  0.2335E+03
     -0.917  0.1416E+03  0.2368E+03
     -0.894  0.1731E+03  0.2409E+03
     -0.870  0.1517E+03  0.2444E+03
     -0.847  0.1424E+03  0.2477E+03
     -0.824  0.1569E+03  0.2514E+03
     -0.800  0.1804E+03  0.2556E+03
     -0.777  0.1995E+03  0.2603E+03
     -0.754  0.1836E+03  0.2646E+03
     -0.730  0.1529E+03  0.2681E+03
     -0.707  0.1270E+03  0.2711E+03
     -0.684  0.1231E+03  0.2740E+03
     -0.660  0.1642E+03  0.2778E+03
     -0.637  0.1744E+03  0.2819E+03
     -0.614  0.1503E+03  0.2854E+03
     -0.590  0.1535E+03  0.2890E+03
     -0.567  0.1757E+03  0.2931E+03
     -0.544  0.2030E+03  0.2978E+03
     -0.520  0.2266E+03  0.3031E+03
     -0.497  0.2176E+03  0.3082E+03
     -0.473  0.1981E+03  0.3128E+03
     -0.450  0.2002E+03  0.3175E+03
     -0.427  0.2181E+03  0.3226E+03
     -0.403  0.2307E+03  0.3280E+03
     -0.380  0.2170E+03  0.3330E+03
     -0.357  0.1844E+03  0.3373E+03
     -0.333  0.1526E+03  0.3409E+03
     -0.310  0.1457E+03  0.3443E+03
     -0.287  0.1728E+03  0.3483E+03
     -0.263  0.1919E+03  0.3528E+03
     -0.240  0.1713E+03  0.3568E+03
     -0.217  0.1551E+03  0.3604E+03
     -0.193  0.1717E+03  0.3644E+03
     -0.170  0.1874E+03  0.3688E+03
     -0.147  0.1896E+03  0.3732E+03
     -0.123  0.1910E+03  0.3777E+03
     -0.100  0.1939E+03  0.3822E+03
     -0.077  0.1965E+03  0.3868E+03
     -0.053  0.2172E+03  0.3919E+03
     -0.030  0.2474E+03  0.3977E+03
     -0.006  0.2554E+03  0.4036E+03
      0.017  0.2477E+03  0.4094E+03
      0.040  0.2376E+03  0.4150E+03
      0.064  0.2122E+03  0.4199E+03
      0.087  0.2012E+03  0.4246E+03
      0.110  0.2122E+03  0.4296E+03
      0.134  0.2078E+03  0.4344E+03
      0.157  0.1951E+03  0.4390E+03
      0.180  0.2009E+03  0.4437E+03
      0.204  0.2085E+03  0.4485E+03
      0.227  0.2014E+03  0.4532E+03
      0.250  0.1884E+03  0.4576E+03
      0.274  0.1792E+03  0.4618E+03
      0.297  0.1794E+03  0.4660E+03
      0.320  0.1898E+03  0.4704E+03
      0.344  0.2060E+03  0.4753E+03
      0.367  0.2198E+03  0.4804E+03
      0.390  0.2413E+03  0.4860E+03
      0.414  0.2627E+03  0.4922E+03
      0.437  0.2687E+03  0.4984E+03
      0.461  0.2791E+03  0.5050E+03
      0.484  0.2859E+03  0.5116E+03
      0.507  0.2795E+03  0.5182E+03
      0.531  0.2691E+03  0.5244E+03
      0.554  0.2672E+03  0.5307E+03
      0.577  0.2753E+03  0.5371E+03
      0.601  0.2844E+03  0.5437E+03
      0.624  0.2892E+03  0.5505E+03
      0.647  0.2685E+03  0.5568E+03
      0.671  0.2401E+03  0.5624E+03
      0.694  0.2282E+03  0.5677E+03
      0.717  0.2294E+03  0.5731E+03
      0.741  0.2381E+03  0.5786E+03
      0.764  0.2283E+03  0.5840E+03
      0.787  0.2097E+03  0.5888E+03
      0.811  0.2029E+03  0.5936E+03
      0.834  0.2072E+03  0.5984E+03
      0.857  0.2140E+03  0.6034E+03
      0.881  0.2094E+03  0.6083E+03
      0.904  0.1946E+03  0.6129E+03
      0.928  0.2011E+03  0.6176E+03
      0.951  0.2169E+03  0.6226E+03
      0.974  0.2188E+03  0.6277E+03
      0.998  0.2009E+03  0.6324E+03
      1.021  0.1968E+03  0.6370E+03
      1.044  0.2144E+03  0.6420E+03
      1.068  0.2296E+03  0.6474E+03
      1.091  0.2422E+03  0.6530E+03
      1.114  0.2556E+03  0.6590E+03
      1.138  0.2523E+03  0.6649E+03
      1.161  0.2486E+03  0.6707E+03
      1.184  0.2430E+03  0.6764E+03
      1.208  0.2247E+03  0.6816E+03
      1.231  0.2060E+03  0.6864E+03
      1.254  0.2019E+03  0.6911E+03
      1.278  0.2125E+03  0.6961E+03
      1.301  0.2230E+03  0.7013E+03
      1.324  0.2201E+03  0.7065E+03
      1.348  0.2211E+03  0.7116E+03
      1.371  0.2310E+03  0.7170E+03
      1.395  0.2238E+03  0.7222E+03
      1.418  0.2155E+03  0.7273E+03
      1.441  0.2177E+03  0.7324E+03
      1.465  0.2054E+03  0.7371E+03
      1.488  0.1884E+03  0.7415E+03
      1.511  0.1900E+03  0.7460E+03
      1.535  0.2038E+03  0.7507E+03
      1.558  0.2189E+03  0.7559E+03
      1.581  0.2272E+03  0.7612E+03
      1.605  0.2284E+03  0.7665E+03
      1.628  0.2105E+03  0.7714E+03
      1.651  0.2003E+03  0.7761E+03
      1.675  0.2168E+03  0.7811E+03
      1.698  0.2247E+03  0.7864E+03
      1.721  0.2163E+03  0.7914E+03
      1.745  0.2126E+03  0.7964E+03
      1.768  0.2144E+03  0.8014E+03
      1.792  0.2252E+03  0.8067E+03
      1.815  0.2320E+03  0.8121E+03
      1.838  0.2309E+03  0.8175E+03
      1.862  0.2314E+03  0.8229E+03
      1.885  0.2271E+03  0.8282E+03
      1.908  0.2134E+03  0.8332E+03
      1.932  0.2023E+03  0.8379E+03
      1.955  0.1911E+03  0.8424E+03
      1.978  0.1833E+03  0.8466E+03
      2.002  0.1946E+03  0.8512E+03
      2.025  0.2067E+03  0.8560E+03
      2.048  0.2049E+03  0.8608E+03
      2.072  0.1951E+03  0.8653E+03
      2.095  0.1893E+03  0.8698E+03
      2.118  0.1870E+03  0.8741E+03
      2.142  0.1890E+03  0.8785E+03
      2.165  0.1947E+03  0.8831E+03
      2.188  0.1986E+03  0.8877E+03
      2.212  0.1888E+03  0.8921E+03
      2.235  0.1695E+03  0.8961E+03
      2.259  0.1552E+03  0.8997E+03
      2.282  0.1451E+03  0.9031E+03
      2.305  0.1494E+03  0.9066E+03
      2.329  0.1580E+03  0.9103E+03
      2.352  0.1517E+03  0.9138E+03
      2.375  0.1436E+03  0.9172E+03
      2.399  0.1430E+03  0.9205E+03
      2.422  0.1497E+03  0.9240E+03
      2.445  0.1600E+03  0.9278E+03
      2.469  0.1521E+03  0.9313E+03
      2.492  0.1370E+03  0.9345E+03
      2.515  0.1312E+03  0.9376E+03
      2.539  0.1342E+03  0.9407E+03
      2.562  0.1400E+03  0.9440E+03
      2.585  0.1355E+03  0.9471E+03
      2.609  0.1362E+03  0.9503E+03
      2.632  0.1369E+03  0.9535E+03
      2.655  0.1341E+03  0.9566E+03
      2.679  0.1328E+03  0.9597E+03
      2.702  0.1343E+03  0.9629E+03
      2.726  0.1335E+03  0.9660E+03
      2.749  0.1283E+03  0.9690E+03
      2.772  0.1227E+03  0.9719E+03
      2.796  0.1134E+03  0.9745E+03
      2.819  0.1124E+03  0.9771E+03
      2.842  0.1199E+03  0.9799E+03
      2.866  0.1271E+03  0.9829E+03
      2.889  0.1336E+03  0.9860E+03
      2.912  0.1308E+03  0.9891E+03
      2.936  0.1223E+03  0.9919E+03
      2.959  0.1164E+03  0.9946E+03
      2.982  0.1128E+03  0.9973E+03
      3.006  0.1071E+03  0.9998E+03
      3.029  0.9331E+02  0.1002E+04
      3.052  0.6764E+02  0.1004E+04
      3.076  0.4153E+02  0.1005E+04
      3.099  0.3428E+02  0.1005E+04
      3.122  0.2964E+02  0.1006E+04
      3.146  0.3243E+02  0.1007E+04
      3.169  0.3407E+02  0.1008E+04
      3.193  0.1918E+02  0.1008E+04
      3.216  0.1682E+02  0.1008E+04
      3.239  0.2646E+02  0.1009E+04
      3.263  0.2337E+02  0.1010E+04
      3.286  0.1337E+02  0.1010E+04
      3.309  0.4823E+01  0.1010E+04
      3.333  0.7403E+00  0.1010E+04
      3.356  0.3916E-01  0.1010E+04
      3.379  0.6673E-03  0.1010E+04
      3.403  0.3565E-05  0.1010E+04
      3.426  0.5883E-08  0.1010E+04
      3.449  0.2969E-11  0.1010E+04
      3.473  0.0000E+00  0.1010E+04
      3.496  0.0000E+00  0.1010E+04
      3.519  0.0000E+00  0.1010E+04
      3.543  0.0000E+00  0.1010E+04
      3.566  0.0000E+00  0.1010E+04
      3.589  0.0000E+00  0.1010E+04
