       N       E                     dE             d eps       ncg     rms          rms(c)
DAV:   1    -0.288730820369E+03   -0.28873E+03   -0.12310E+05  4040   0.658E+02
DAV:   2    -0.897180009861E+03   -0.60845E+03   -0.55710E+03  4636   0.680E+01
DAV:   3    -0.940008728961E+03   -0.42829E+02   -0.38929E+02  5200   0.142E+01
DAV:   4    -0.941475584146E+03   -0.14669E+01   -0.14420E+01  4680   0.285E+00
DAV:   5    -0.941508840180E+03   -0.33256E-01   -0.33185E-01  4840   0.461E-01    0.918E+00
DAV:   6    -0.944548701876E+03   -0.30399E+01   -0.11174E+01  4688   0.541E+00    0.940E+00
DAV:   7    -0.931255945189E+03    0.13293E+02   -0.12348E+01  4704   0.499E+00    0.481E+00
DAV:   8    -0.928998761250E+03    0.22572E+01   -0.50146E+00  4576   0.238E+00    0.279E+00
DAV:   9    -0.928738669501E+03    0.26009E+00   -0.26027E+00  4568   0.164E+00    0.215E+00
DAV:  10    -0.928289781272E+03    0.44889E+00   -0.12451E+00  4552   0.109E+00    0.119E+00
DAV:  11    -0.928232287339E+03    0.57494E-01   -0.36600E-01  4456   0.521E-01    0.729E-01
DAV:  12    -0.928236155109E+03   -0.38678E-02   -0.10618E-01  4744   0.387E-01    0.646E-01
DAV:  13    -0.928195339227E+03    0.40816E-01   -0.44776E-02  4608   0.249E-01    0.285E-01
DAV:  14    -0.928194434183E+03    0.90504E-03   -0.15894E-02  4528   0.126E-01    0.165E-01
DAV:  15    -0.928194127829E+03    0.30635E-03   -0.64577E-03  4536   0.955E-02    0.124E-01
DAV:  16    -0.928192432778E+03    0.16951E-02   -0.23448E-03  4512   0.585E-02    0.569E-02
DAV:  17    -0.928192271968E+03    0.16081E-03   -0.83503E-04  4336   0.259E-02    0.267E-02
DAV:  18    -0.928192264602E+03    0.73663E-05   -0.23189E-04  4672   0.166E-02    0.223E-02
DAV:  19    -0.928192213231E+03    0.51371E-04   -0.96828E-05  4584   0.112E-02    0.127E-02
DAV:  20    -0.928192189154E+03    0.24077E-04   -0.32852E-05  3616   0.599E-03    0.529E-03
DAV:  21    -0.928192184425E+03    0.47283E-05   -0.12491E-05  2184   0.361E-03
   1 F= -.92819218E+03 E0= -.92812840E+03  d E =-.127571E+00
