Li                                      
           1
   -10.636430   18.422837    0.000000
   -18.233880  -10.527336    0.000000
    -0.000000    0.000000   22.309700
   Li
   504
Direct configuration=     1
   0.99185972  0.99853455  0.00769742
   0.92766987  0.04390108  0.65424611
   0.86304588  0.08625887  0.33343509
   0.78869378  0.12935124  0.01757768
   0.71411391  0.16597498  0.67201736
   0.64337306  0.19670698  0.32231303
   0.56950525  0.24800851  0.98152544
   0.50653656  0.29484490  0.66749571
   0.42844136  0.32865235  0.32421199
   0.35527481  0.37052979  0.99836789
   0.29284723  0.41663626  0.66547230
   0.21756158  0.45494476  0.33134754
   0.07550713  0.03735549  0.68189397
   0.99453492  0.07677351  0.33394355
   0.93849744  0.12883269  0.00491851
   0.85546358  0.17220931  0.65680428
   0.78925965  0.21018878  0.32637838
   0.71471526  0.24803315  0.99724790
   0.64627526  0.29440753  0.68804648
   0.57667124  0.33216840  0.31816474
   0.49984401  0.37471105  0.98896009
   0.42796532  0.41004004  0.69251738
   0.35994888  0.45735399  0.32233059
   0.28348776  0.50053192  0.00479742
   0.15226178  0.08001206  0.32656776
   0.07298216  0.12126195  0.99850750
   0.00385901  0.17566420  0.65063682
   0.93439042  0.21301143  0.33648352
   0.85687225  0.26395601  0.01220735
   0.78158361  0.29568279  0.66366528
   0.72171187  0.33941927  0.31170510
   0.65361715  0.38004846  0.01394446
   0.57419100  0.42136718  0.67567631
   0.49749682  0.46416242  0.32726930
   0.43102377  0.49489978  0.01350693
   0.36128164  0.54592462  0.68487687
   0.21383715  0.12040469  0.00341095
   0.14357625  0.16489446  0.65841473
   0.07173803  0.21747587  0.34163900
   0.00033497  0.25172757  0.00418691
   0.93536255  0.29941329  0.65390341
   0.86792159  0.33873729  0.32731980
   0.79275860  0.36932497  0.02177513
   0.71421313  0.41933569  0.68216420
   0.64740157  0.45751161  0.31668194
   0.57729254  0.49394271  0.00227073
   0.49660534  0.53283349  0.66685226
   0.43697043  0.57869480  0.31785537
   0.28399217  0.16675935  0.63778250
   0.20950100  0.20000560  0.33020040
   0.14505379  0.24051726  0.00552890
   0.07838451  0.29381102  0.67345093
   0.99908615  0.32205607  0.35026855
   0.92247798  0.37212455  0.99022991
   0.86692232  0.41992219  0.67544888
   0.78771479  0.45090851  0.32194984
   0.72236123  0.50871232  0.99153798
   0.65118847  0.54514645  0.67310723
   0.57442840  0.57814036  0.33436731
   0.51033998  0.62444205  0.01627798
   0.35727235  0.20475111  0.31405768
   0.27560935  0.24356337  0.00573253
   0.20835650  0.28469484  0.66454960
   0.14100273  0.33798342  0.31349437
   0.06667127  0.36886550  0.99318099
   0.99866873  0.41414489  0.67255483
   0.92820285  0.45488393  0.32677931
   0.86445823  0.49855191  0.00956739
   0.79007245  0.53498123  0.66869710
   0.71989202  0.58766498  0.33009981
   0.65158592  0.62763042  0.99283093
   0.57801511  0.67143310  0.67526156
   0.43432114  0.25061427  0.00680009
   0.35829222  0.28423313  0.65061336
   0.29513763  0.32908455  0.31589898
   0.21523700  0.37986488  0.99377318
   0.14155259  0.42355235  0.67824983
   0.07682365  0.46475313  0.34000826
   0.99729805  0.50884999  0.99055944
   0.92819971  0.54474967  0.64596046
   0.86172820  0.59095887  0.35249578
   0.79073484  0.62216089  0.99780783
   0.71047297  0.66539294  0.64969061
   0.65094913  0.70996963  0.33258769
   0.15266510  0.49382601  0.99649265
   0.07013218  0.54639971  0.64541252
   0.99692875  0.58641472  0.32952424
   0.93520139  0.62334402  0.98340195
   0.85805975  0.67112126  0.67265352
   0.78015313  0.70078411  0.35033863
   0.71195973  0.75217906  0.99756406
   0.22175335  0.53152929  0.67751466
   0.15104886  0.57854867  0.33682012
   0.07663431  0.63309481  0.01333932
   0.00096626  0.67075538  0.66327461
   0.93092266  0.70886769  0.32724142
   0.85490674  0.74241608  0.99072915
   0.78167886  0.78941020  0.68142089
   0.28616176  0.58474005  0.31875294
   0.22143282  0.61343739  0.99654506
   0.14350483  0.65908822  0.66653506
   0.08449888  0.71189656  0.33976773
   0.99941123  0.74550311  0.00469356
   0.93269485  0.79527201  0.66974619
   0.84698207  0.84711583  0.33709525
   0.36455600  0.63353186  0.00990097
   0.28555735  0.66292133  0.67317822
   0.21282086  0.70218006  0.35688683
   0.15145637  0.75167622  0.00610062
   0.07007222  0.79262604  0.65152175
   0.99540551  0.83575054  0.33352778
   0.91978074  0.88231931  0.01395689
   0.43430552  0.66744711  0.67268723
   0.35062494  0.71208451  0.35332355
   0.28174696  0.75060486  0.99915303
   0.21304161  0.78760411  0.66426489
   0.14465531  0.83594319  0.33257285
   0.07234581  0.87969244  0.01221518
   0.99987763  0.91713949  0.67415914
   0.92572418  0.94770767  0.33018001
   0.85783810  0.00916977  0.00108906
   0.79340842  0.05104204  0.65915008
   0.71437034  0.08855033  0.32532668
   0.64367382  0.12013368  0.01922662
   0.58154679  0.16051100  0.66373285
   0.50068306  0.21579235  0.33817052
   0.07252781  0.95355683  0.31676770
   0.14686311  0.99188757  0.99743470
   0.21754507  0.02849401  0.66012873
   0.28849656  0.07939711  0.33363030
   0.34995961  0.11331692  0.01323251
   0.42766930  0.16559952  0.65911260
   0.84777647  0.92018087  0.67930445
   0.78161088  0.96861149  0.32886128
   0.71801516  0.99664193  0.02967928
   0.63599835  0.04633918  0.64519830
   0.57457538  0.08092337  0.31417064
   0.50995867  0.12672657  0.00714136
   0.13882881  0.92315369  0.69111697
   0.21113918  0.95649995  0.31308292
   0.27175186  0.99869471  0.99340962
   0.35846805  0.04319061  0.66684898
   0.42450246  0.08089663  0.30762477
   0.78106339  0.87732850  0.00614910
   0.70753551  0.92500079  0.66968892
   0.63920200  0.96397309  0.32374600
   0.56614049  0.99691850  0.01122514
   0.50125798  0.03725760  0.66119829
   0.21547866  0.87055302  0.99971361
   0.28004536  0.92441363  0.68942141
   0.36129938  0.97203500  0.31532808
   0.42556405  0.99067757  0.01237397
   0.70654118  0.84267208  0.33003982
   0.63538801  0.88512060  0.00513353
   0.57265254  0.92247454  0.66223051
   0.49971509  0.95930806  0.31367678
   0.29048193  0.84082694  0.34609593
   0.35960754  0.88184351  0.99367518
   0.43050304  0.92217068  0.64994757
   0.64778064  0.80104628  0.66626081
   0.56934842  0.82999988  0.32560770
   0.49291942  0.87072468  0.99645627
   0.34846843  0.79449782  0.65787318
   0.42850875  0.82511455  0.34648283
   0.57902606  0.75910825  0.01638104
   0.49144152  0.78781002  0.64271750
   0.42983817  0.74444208  0.00291446
   0.50778084  0.70338107  0.34514128
   0.00310705  0.00163694  0.77751289
   0.92865214  0.04978355  0.43420599
   0.84824689  0.08681195  0.12935989
   0.78375322  0.12233632  0.78540041
   0.71638876  0.16450839  0.43501715
   0.64191603  0.20619719  0.11545935
   0.57524796  0.25197930  0.79282939
   0.49232033  0.27814179  0.43412957
   0.42170739  0.33404105  0.10261111
   0.36858177  0.36572619  0.77840617
   0.28972350  0.41297866  0.42870328
   0.20149432  0.46290449  0.13868351
   0.08394725  0.05344067  0.44847387
   0.99248045  0.07390415  0.09824770
   0.93618859  0.11737603  0.75658175
   0.86653214  0.15973599  0.44291209
   0.76860289  0.20132493  0.11231202
   0.71396269  0.23930802  0.78592635
   0.65127630  0.29383065  0.44166331
   0.56219770  0.32961637  0.10248229
   0.49706341  0.36580670  0.78753557
   0.43757590  0.41062279  0.42172331
   0.34577583  0.45155589  0.11917941
   0.29006038  0.51660246  0.78887062
   0.14047699  0.07396957  0.10419816
   0.06121072  0.11528160  0.76030341
   0.00373825  0.16753990  0.44365951
   0.92703633  0.21469361  0.12118186
   0.85309264  0.25183101  0.77333953
   0.78548401  0.30481438  0.43851616
   0.70402272  0.34434872  0.12051076
   0.63703671  0.37012865  0.78754257
   0.57022194  0.40510811  0.43692849
   0.49546237  0.46412048  0.08887848
   0.41857887  0.48997151  0.80111802
   0.37532122  0.55070778  0.42452501
   0.22550345  0.12762194  0.76476081
   0.14076358  0.16318003  0.44391352
   0.06697265  0.21005133  0.10542929
   0.00881729  0.24268731  0.76582657
   0.93573396  0.28444436  0.44912355
   0.84492863  0.33981368  0.11846658
   0.78220380  0.37545741  0.78134927
   0.71534951  0.43032597  0.43355062
   0.62099894  0.46424501  0.11213182
   0.57264348  0.49013822  0.79228645
   0.49982165  0.52754084  0.44203345
   0.42144161  0.58291472  0.12228764
   0.27643759  0.16650645  0.45612285
   0.22302424  0.21227912  0.12272846
   0.15294075  0.26199800  0.77434105
   0.08424907  0.28772195  0.44631174
   0.99970976  0.32969789  0.11800843
   0.91664284  0.35612284  0.76846396
   0.87396009  0.41645381  0.44728620
   0.77574700  0.46566388  0.10094504
   0.71882170  0.50463871  0.79600993
   0.63692386  0.53009250  0.43283658
   0.57648231  0.57805862  0.11414684
   0.49493807  0.63326558  0.79183094
   0.36907759  0.20879284  0.11217167
   0.28824577  0.24617659  0.75612523
   0.21072237  0.29626047  0.42757411
   0.15322487  0.34191743  0.10418107
   0.06990601  0.37429097  0.78087467
   0.00291057  0.42039111  0.43159515
   0.92344640  0.45184356  0.10481461
   0.86304116  0.49932422  0.79249900
   0.79158025  0.54144761  0.43240650
   0.71813832  0.57916206  0.12367547
   0.64416981  0.63531436  0.77741157
   0.58537548  0.66056115  0.45001146
   0.42980925  0.24905547  0.76025613
   0.35305420  0.28869788  0.45894840
   0.29275993  0.33674763  0.12076267
   0.21824989  0.39435415  0.77980998
   0.14587457  0.41952197  0.44715774
   0.04789568  0.45351224  0.10799128
   0.98986100  0.50727538  0.77686294
   0.93702619  0.53636320  0.45135328
   0.85488096  0.59130161  0.09318859
   0.79273842  0.62241931  0.76754831
   0.72859505  0.66715404  0.44684126
   0.63744867  0.69839843  0.10620263
   0.14407740  0.48184590  0.78292799
   0.07957939  0.54797033  0.44753242
   0.00329722  0.58109154  0.11422247
   0.93614808  0.63656161  0.77054655
   0.85439075  0.66087171  0.44573497
   0.77552639  0.72094929  0.10537035
   0.72780561  0.75811210  0.77112841
   0.23527136  0.54027847  0.44336829
   0.13323797  0.57773504  0.11382590
   0.08211868  0.62296369  0.76562032
   0.00789686  0.66818851  0.44170384
   0.94037803  0.71453159  0.10060980
   0.85951028  0.74607778  0.78853544
   0.79284325  0.79999272  0.43963143
   0.27453700  0.57700742  0.11392597
   0.22088913  0.61616059  0.79497303
   0.15342865  0.67981493  0.43276528
   0.07486971  0.70366124  0.10512514
   0.99512313  0.76359352  0.78511375
   0.93037933  0.79795271  0.44770735
   0.84990883  0.84250894  0.10532640
   0.34422879  0.63698198  0.79479169
   0.28751029  0.66926360  0.46427695
   0.21173486  0.70212345  0.11088281
   0.14507256  0.74507283  0.77261410
   0.08146041  0.80557262  0.44595352
   0.00009600  0.83579221  0.11659410
   0.93325870  0.88762430  0.78180467
   0.42946073  0.66148492  0.44972744
   0.34195096  0.71724376  0.10705733
   0.29165435  0.75396288  0.79033574
   0.20826361  0.79385850  0.45265566
   0.13817317  0.83928500  0.09245438
   0.08012768  0.88443680  0.79105608
   0.01208637  0.91946854  0.44895868
   0.92713085  0.94782295  0.09809868
   0.86479201  0.00734139  0.78449598
   0.79847952  0.03735594  0.44470095
   0.71311884  0.06949275  0.12646308
   0.62741878  0.12502476  0.77436798
   0.57932706  0.16048044  0.43371790
   0.50298622  0.20941702  0.10633689
   0.07441315  0.96146857  0.11113229
   0.15143629  0.00272048  0.79483146
   0.22105225  0.03449062  0.45479299
   0.28600078  0.07497655  0.10174468
   0.36804714  0.13544691  0.77736367
   0.42114941  0.16083165  0.44733818
   0.84761325  0.90634639  0.46602739
   0.79563869  0.93545375  0.10813874
   0.70181963  0.98229648  0.78251974
   0.64332149  0.04612160  0.42281656
   0.57531101  0.08482039  0.11192754
   0.49914490  0.12792367  0.77968333
   0.14650178  0.91479377  0.43351945
   0.21806947  0.94517379  0.11720531
   0.29438256  0.99900494  0.79085526
   0.36175003  0.03736903  0.43834517
   0.41878653  0.08557893  0.12444538
   0.79570963  0.86414791  0.77502513
   0.70558297  0.93089697  0.45007732
   0.66588679  0.95962599  0.12348650
   0.55100856  0.99973138  0.76993369
   0.50227292  0.03277875  0.42938656
   0.22089160  0.87274650  0.77250359
   0.28328071  0.90668294  0.44762017
   0.34404824  0.97056186  0.11020787
   0.42923884  0.01736246  0.77656249
   0.70826550  0.84255299  0.10181233
   0.62540852  0.87515322  0.79161426
   0.56856865  0.91146714  0.43037788
   0.49536659  0.96874337  0.10352382
   0.28070736  0.83963357  0.10642737
   0.36272673  0.87698143  0.78668282
   0.42080768  0.91340290  0.42497790
   0.64723306  0.78610658  0.43405031
   0.57432957  0.83696555  0.13084587
   0.49514521  0.87740734  0.77819780
   0.35916017  0.78146859  0.45361669
   0.42548117  0.82682616  0.12129572
   0.56911782  0.75946383  0.75304793
   0.50630162  0.77616863  0.43914198
   0.41618428  0.73309119  0.77910383
   0.48071957  0.70068823  0.10728999
   0.99966658  0.99344346  0.19178630
   0.93311031  0.03310259  0.88584991
   0.87022427  0.07972525  0.55084772
   0.77656939  0.13027982  0.22674926
   0.71098019  0.16149427  0.90313744
   0.63615000  0.20353809  0.58063321
   0.57584393  0.25290597  0.21255046
   0.50735327  0.29598709  0.88914655
   0.43159870  0.33581554  0.55962988
   0.34706185  0.38271465  0.19791169
   0.29543279  0.42328182  0.89395757
   0.23143184  0.46027116  0.55174008
   0.07213970  0.02851223  0.88796422
   0.00158501  0.08448494  0.54550604
   0.92746373  0.12135036  0.24263598
   0.86026976  0.16829049  0.87976319
   0.79073538  0.21457316  0.53279820
   0.70935238  0.27202898  0.22743526
   0.65136549  0.29319322  0.89055909
   0.56968631  0.32441169  0.56198718
   0.49666252  0.37844002  0.21041627
   0.41777440  0.41082150  0.88663347
   0.35818410  0.45446064  0.56002241
   0.27878006  0.48680011  0.21978083
   0.14726343  0.07014222  0.57025160
   0.06720101  0.13122044  0.23124894
   0.00927591  0.15861064  0.91192915
   0.93825076  0.19625220  0.54049455
   0.85338802  0.25532257  0.21992120
   0.78807035  0.28259892  0.88603932
   0.72694241  0.34377110  0.55844854
   0.62915411  0.37638900  0.20353837
   0.55944360  0.41229393  0.89619313
   0.49700935  0.46003415  0.55178298
   0.41923179  0.51056463  0.21609754
   0.34180035  0.55518370  0.90478002
   0.21234442  0.10335450  0.21200052
   0.14771990  0.15392928  0.86617064
   0.06727911  0.21849504  0.55203700
   0.99495827  0.25253865  0.22132049
   0.92779414  0.27989646  0.89662835
   0.86690016  0.33855327  0.54836777
   0.77138170  0.38317942  0.20396898
   0.72022822  0.41729309  0.91201596
   0.64094073  0.45239806  0.56430244
   0.56648589  0.50873339  0.20029856
   0.49846355  0.54669837  0.89246710
   0.44181945  0.58358595  0.56683895
   0.28433083  0.17281417  0.89835055
   0.19457163  0.19632735  0.54139063
   0.14294104  0.23727922  0.22058482
   0.07640291  0.28045606  0.89232388
   0.99480470  0.34179682  0.55052109
   0.91120785  0.37458560  0.23385840
   0.84255174  0.41810319  0.88899862
   0.79455062  0.44542539  0.56254348
   0.70525428  0.49671065  0.22180351
   0.64713801  0.54783616  0.89061412
   0.57349253  0.58336852  0.55152656
   0.48949535  0.62721397  0.21613593
   0.36431858  0.21383480  0.55232044
   0.29622616  0.25490857  0.21585817
   0.22219456  0.28760555  0.88880019
   0.14298698  0.32952070  0.54455774
   0.05928404  0.37251375  0.21249306
   0.99239535  0.41521279  0.87521093
   0.93967490  0.45701857  0.54612236
   0.85798709  0.51160685  0.20763743
   0.78258707  0.54311181  0.90171633
   0.71544990  0.58741431  0.54902514
   0.63847271  0.61339634  0.22626247
   0.57581334  0.67310947  0.88741856
   0.43745133  0.24899284  0.22230288
   0.36220304  0.28658238  0.88251730
   0.27839257  0.32606821  0.55676103
   0.21579555  0.36822393  0.22716919
   0.13384915  0.41453141  0.88502145
   0.08243353  0.46370800  0.56842357
   0.99500798  0.49961521  0.24493326
   0.91890454  0.55353163  0.88808712
   0.85946514  0.58315888  0.55226626
   0.77995448  0.63482001  0.22635510
   0.70847092  0.66095073  0.89951954
   0.65066218  0.71230564  0.56961306
   0.12297059  0.51567107  0.23443058
   0.06347601  0.54431156  0.88953078
   0.99709488  0.58679620  0.54804443
   0.92491485  0.62231175  0.21178606
   0.86095558  0.67666648  0.89571642
   0.79219456  0.69937769  0.54118225
   0.69962635  0.74357388  0.21189488
   0.20576277  0.53365307  0.89772394
   0.15828955  0.59718279  0.55312134
   0.05213813  0.63380356  0.22092456
   0.99234059  0.67370059  0.88784671
   0.92092290  0.70385653  0.54672518
   0.84798372  0.76291781  0.23021303
   0.78934727  0.78914931  0.88992713
   0.28742504  0.58038498  0.57308916
   0.19657096  0.62529012  0.22684694
   0.14445901  0.65909397  0.88400271
   0.06920654  0.71517542  0.55293188
   0.99890852  0.73617273  0.23542004
   0.92217655  0.80058612  0.88675145
   0.85706867  0.82575518  0.56847089
   0.35065832  0.62141124  0.23331548
   0.28610449  0.66975298  0.89539171
   0.21187780  0.71623791  0.57847517
   0.13436870  0.75100788  0.22766809
   0.06121742  0.78710043  0.90117165
   0.99748231  0.83199067  0.54723775
   0.92815791  0.86815966  0.22453931
   0.40964650  0.67332164  0.90661374
   0.36127485  0.70079952  0.56526017
   0.28072026  0.75723394  0.24878518
   0.21565885  0.79618068  0.89769957
   0.15449735  0.83411646  0.56413186
   0.08220579  0.87020401  0.21001535
   0.99960627  0.91844461  0.89634279
   0.92213665  0.95378351  0.54251238
   0.86148445  0.99905538  0.21365854
   0.77995345  0.04242793  0.89548151
   0.71285313  0.09655567  0.54997046
   0.64654415  0.13021678  0.21651221
   0.56028216  0.15916138  0.89452892
   0.50272472  0.20301128  0.54221981
   0.06939461  0.95331175  0.57129838
   0.13820161  0.99508868  0.21241522
   0.20593546  0.03464649  0.89611120
   0.28287113  0.08059896  0.56461463
   0.35038524  0.12762933  0.19670299
   0.42861659  0.17509830  0.88838041
   0.86746522  0.93026834  0.89144479
   0.77971788  0.97628683  0.57269840
   0.72237437  0.00355974  0.23365967
   0.62962310  0.03953249  0.90806507
   0.56748861  0.07260764  0.53875583
   0.50031722  0.12075693  0.22554553
   0.15524421  0.91220876  0.87784479
   0.22019237  0.95867540  0.55770955
   0.27741488  0.00137758  0.22112538
   0.35950484  0.04393915  0.89663684
   0.43283457  0.07352857  0.56629381
   0.78044260  0.87899209  0.21348629
   0.72311347  0.90872754  0.88834660
   0.63985306  0.97594980  0.54321685
   0.58239153  0.01270117  0.21197641
   0.49622213  0.04265198  0.90412573
   0.21137834  0.87500223  0.21688873
   0.28303253  0.92096073  0.88822585
   0.35038716  0.94954560  0.55417664
   0.41343546  0.99134599  0.20693953
   0.71863119  0.84045304  0.56644991
   0.65358675  0.87936737  0.22162148
   0.56825656  0.92877638  0.91092214
   0.50180453  0.94858438  0.54972447
   0.29183020  0.82045495  0.56255887
   0.33697428  0.87588954  0.23904902
   0.43592540  0.91796808  0.89925688
   0.65030451  0.79798575  0.87757488
   0.57220491  0.82398139  0.54594446
   0.50431411  0.87668781  0.23337875
   0.35413096  0.79020063  0.88170258
   0.42469835  0.83787420  0.54453396
   0.55332908  0.74738636  0.20207307
   0.48874793  0.80680112  0.88888751
   0.41565229  0.74989899  0.23334333
   0.51313956  0.70061188  0.55058546
