 432 432   0   0
  0.1857636E+02  0.2002080E-08  0.2002080E-08  0.2002080E-08  0.5000000E-15
  1.000000000000000E-004
  CAR 
 Li                                      
      4.02663538     -3.32429067  301      0.64596758      1.00000000
     -3.324  0.0000E+00  0.0000E+00
     -3.300  0.0000E+00  0.0000E+00
     -3.275  0.0000E+00  0.0000E+00
     -3.251  0.0000E+00  0.0000E+00
     -3.226  0.0000E+00  0.0000E+00
     -3.202  0.0000E+00  0.0000E+00
     -3.177  0.0000E+00  0.0000E+00
     -3.153  0.6955E-12  0.1704E-13
     -3.128  0.2945E-08  0.7219E-10
     -3.104  0.3375E-05  0.8278E-07
     -3.079  0.1058E-02  0.2601E-04
     -3.055  0.9208E-01  0.2282E-02
     -3.030  0.2274E+01  0.5799E-01
     -3.006  0.1636E+02  0.4589E+00
     -2.981  0.3520E+02  0.1321E+01
     -2.957  0.2294E+02  0.1883E+01
     -2.932  0.4553E+01  0.1995E+01
     -2.908  0.2348E+01  0.2053E+01
     -2.883  0.2258E+02  0.2606E+01
     -2.859  0.7968E+02  0.4558E+01
     -2.834  0.9550E+02  0.6898E+01
     -2.810  0.3929E+02  0.7861E+01
     -2.785  0.5744E+01  0.8002E+01
     -2.761  0.6915E+01  0.8171E+01
     -2.736  0.4507E+02  0.9276E+01
     -2.712  0.9956E+02  0.1172E+02
     -2.687  0.7357E+02  0.1352E+02
     -2.663  0.1824E+02  0.1397E+02
     -2.638  0.4060E+01  0.1406E+02
     -2.614  0.2772E+02  0.1474E+02
     -2.589  0.9942E+02  0.1718E+02
     -2.565  0.1273E+03  0.2030E+02
     -2.540  0.5922E+02  0.2175E+02
     -2.516  0.1048E+02  0.2201E+02
     -2.491  0.1465E+02  0.2237E+02
     -2.467  0.8211E+02  0.2438E+02
     -2.442  0.1776E+03  0.2873E+02
     -2.418  0.1535E+03  0.3249E+02
     -2.393  0.5394E+02  0.3381E+02
     -2.369  0.8924E+01  0.3403E+02
     -2.344  0.1805E+02  0.3447E+02
     -2.320  0.6759E+02  0.3613E+02
     -2.295  0.9535E+02  0.3847E+02
     -2.271  0.5158E+02  0.3973E+02
     -2.246  0.1136E+02  0.4001E+02
     -2.222  0.1603E+02  0.4040E+02
     -2.197  0.8067E+02  0.4238E+02
     -2.173  0.1674E+03  0.4648E+02
     -2.148  0.1531E+03  0.5023E+02
     -2.124  0.6220E+02  0.5175E+02
     -2.099  0.1726E+02  0.5218E+02
     -2.075  0.5466E+02  0.5352E+02
     -2.050  0.1669E+03  0.5761E+02
     -2.026  0.2466E+03  0.6365E+02
     -2.001  0.1836E+03  0.6815E+02
     -1.977  0.6533E+02  0.6975E+02
     -1.952  0.1216E+02  0.7005E+02
     -1.928  0.2487E+02  0.7066E+02
     -1.903  0.8086E+02  0.7264E+02
     -1.879  0.9316E+02  0.7492E+02
     -1.854  0.3845E+02  0.7586E+02
     -1.830  0.1146E+02  0.7614E+02
     -1.805  0.4782E+02  0.7732E+02
     -1.781  0.1456E+03  0.8088E+02
     -1.756  0.1973E+03  0.8572E+02
     -1.732  0.1303E+03  0.8891E+02
     -1.707  0.4045E+02  0.8990E+02
     -1.683  0.2003E+02  0.9039E+02
     -1.658  0.8600E+02  0.9250E+02
     -1.634  0.2004E+03  0.9741E+02
     -1.609  0.2354E+03  0.1032E+03
     -1.585  0.1479E+03  0.1068E+03
     -1.560  0.4484E+02  0.1079E+03
     -1.536  0.2161E+02  0.1084E+03
     -1.511  0.8047E+02  0.1104E+03
     -1.487  0.1601E+03  0.1143E+03
     -1.462  0.1522E+03  0.1181E+03
     -1.438  0.6882E+02  0.1197E+03
     -1.413  0.3225E+02  0.1205E+03
     -1.389  0.9586E+02  0.1229E+03
     -1.364  0.2072E+03  0.1280E+03
     -1.340  0.2359E+03  0.1337E+03
     -1.315  0.1356E+03  0.1371E+03
     -1.291  0.3887E+02  0.1380E+03
     -1.266  0.4447E+02  0.1391E+03
     -1.242  0.1526E+03  0.1428E+03
     -1.217  0.2488E+03  0.1489E+03
     -1.193  0.1989E+03  0.1538E+03
     -1.168  0.7642E+02  0.1557E+03
     -1.144  0.1827E+02  0.1561E+03
     -1.119  0.4597E+02  0.1573E+03
     -1.095  0.1282E+03  0.1604E+03
     -1.070  0.1653E+03  0.1645E+03
     -1.046  0.1083E+03  0.1671E+03
     -1.021  0.3421E+02  0.1679E+03
     -0.996  0.2318E+02  0.1685E+03
     -0.972  0.8225E+02  0.1705E+03
     -0.947  0.1508E+03  0.1742E+03
     -0.923  0.1456E+03  0.1778E+03
     -0.898  0.8435E+02  0.1799E+03
     -0.874  0.8149E+02  0.1819E+03
     -0.849  0.1768E+03  0.1862E+03
     -0.825  0.2742E+03  0.1929E+03
     -0.800  0.3085E+03  0.2005E+03
     -0.776  0.2449E+03  0.2065E+03
     -0.751  0.1218E+03  0.2095E+03
     -0.727  0.7936E+02  0.2114E+03
     -0.702  0.1591E+03  0.2153E+03
     -0.678  0.2163E+03  0.2206E+03
     -0.653  0.1781E+03  0.2250E+03
     -0.629  0.9438E+02  0.2273E+03
     -0.604  0.3492E+02  0.2281E+03
     -0.580  0.5968E+02  0.2296E+03
     -0.555  0.1546E+03  0.2334E+03
     -0.531  0.1937E+03  0.2381E+03
     -0.506  0.1214E+03  0.2411E+03
     -0.482  0.5839E+02  0.2425E+03
     -0.457  0.1011E+03  0.2450E+03
     -0.433  0.2077E+03  0.2501E+03
     -0.408  0.2712E+03  0.2567E+03
     -0.384  0.2287E+03  0.2623E+03
     -0.359  0.1422E+03  0.2658E+03
     -0.335  0.1035E+03  0.2684E+03
     -0.310  0.9120E+02  0.2706E+03
     -0.286  0.4720E+02  0.2718E+03
     -0.261  0.2234E+02  0.2723E+03
     -0.237  0.6993E+02  0.2740E+03
     -0.212  0.1661E+03  0.2781E+03
     -0.188  0.2225E+03  0.2835E+03
     -0.163  0.2230E+03  0.2890E+03
     -0.139  0.1926E+03  0.2937E+03
     -0.114  0.1489E+03  0.2974E+03
     -0.090  0.1435E+03  0.3009E+03
     -0.065  0.1707E+03  0.3051E+03
     -0.041  0.2055E+03  0.3101E+03
     -0.016  0.2223E+03  0.3156E+03
      0.008  0.2304E+03  0.3212E+03
      0.033  0.2179E+03  0.3265E+03
      0.057  0.1653E+03  0.3306E+03
      0.082  0.1145E+03  0.3334E+03
      0.106  0.1164E+03  0.3363E+03
      0.131  0.1327E+03  0.3395E+03
      0.155  0.1477E+03  0.3431E+03
      0.180  0.1596E+03  0.3470E+03
      0.204  0.1851E+03  0.3516E+03
      0.229  0.2254E+03  0.3571E+03
      0.253  0.2498E+03  0.3632E+03
      0.278  0.2527E+03  0.3694E+03
      0.302  0.2237E+03  0.3749E+03
      0.327  0.1703E+03  0.3791E+03
      0.351  0.1504E+03  0.3827E+03
      0.376  0.1752E+03  0.3870E+03
      0.400  0.2052E+03  0.3921E+03
      0.425  0.1995E+03  0.3970E+03
      0.449  0.1646E+03  0.4010E+03
      0.474  0.1159E+03  0.4038E+03
      0.498  0.1049E+03  0.4064E+03
      0.523  0.1358E+03  0.4097E+03
      0.547  0.1617E+03  0.4137E+03
      0.572  0.1893E+03  0.4183E+03
      0.596  0.1945E+03  0.4231E+03
      0.621  0.1788E+03  0.4275E+03
      0.645  0.1786E+03  0.4319E+03
      0.670  0.2001E+03  0.4368E+03
      0.694  0.2095E+03  0.4419E+03
      0.719  0.2062E+03  0.4469E+03
      0.743  0.2048E+03  0.4520E+03
      0.768  0.1989E+03  0.4568E+03
      0.792  0.1845E+03  0.4614E+03
      0.817  0.1652E+03  0.4654E+03
      0.841  0.1682E+03  0.4695E+03
      0.866  0.1911E+03  0.4742E+03
      0.890  0.2027E+03  0.4792E+03
      0.915  0.2040E+03  0.4842E+03
      0.939  0.2105E+03  0.4893E+03
      0.964  0.2284E+03  0.4949E+03
      0.988  0.2462E+03  0.5010E+03
      1.013  0.2388E+03  0.5068E+03
      1.037  0.2280E+03  0.5124E+03
      1.062  0.2316E+03  0.5181E+03
      1.086  0.2301E+03  0.5237E+03
      1.111  0.2170E+03  0.5290E+03
      1.135  0.2124E+03  0.5342E+03
      1.160  0.2278E+03  0.5398E+03
      1.184  0.2307E+03  0.5455E+03
      1.209  0.2207E+03  0.5509E+03
      1.233  0.2197E+03  0.5563E+03
      1.258  0.2239E+03  0.5617E+03
      1.282  0.2225E+03  0.5672E+03
      1.307  0.2215E+03  0.5726E+03
      1.331  0.2188E+03  0.5780E+03
      1.356  0.2216E+03  0.5834E+03
      1.380  0.2312E+03  0.5891E+03
      1.405  0.2247E+03  0.5946E+03
      1.429  0.2025E+03  0.5996E+03
      1.454  0.1865E+03  0.6041E+03
      1.478  0.1886E+03  0.6087E+03
      1.503  0.1885E+03  0.6134E+03
      1.527  0.1794E+03  0.6178E+03
      1.552  0.1668E+03  0.6218E+03
      1.576  0.1678E+03  0.6260E+03
      1.601  0.1865E+03  0.6305E+03
      1.625  0.1873E+03  0.6351E+03
      1.650  0.1757E+03  0.6394E+03
      1.674  0.1655E+03  0.6435E+03
      1.699  0.1511E+03  0.6472E+03
      1.723  0.1215E+03  0.6502E+03
      1.748  0.9974E+02  0.6526E+03
      1.772  0.1121E+03  0.6553E+03
      1.797  0.1324E+03  0.6586E+03
      1.821  0.1408E+03  0.6620E+03
      1.846  0.1473E+03  0.6657E+03
      1.870  0.1488E+03  0.6693E+03
      1.895  0.1525E+03  0.6730E+03
      1.919  0.1583E+03  0.6769E+03
      1.944  0.1632E+03  0.6809E+03
      1.968  0.1685E+03  0.6850E+03
      1.993  0.1668E+03  0.6891E+03
      2.017  0.1551E+03  0.6929E+03
      2.042  0.1445E+03  0.6965E+03
      2.066  0.1462E+03  0.7001E+03
      2.091  0.1608E+03  0.7040E+03
      2.115  0.1755E+03  0.7083E+03
      2.140  0.1801E+03  0.7127E+03
      2.164  0.1768E+03  0.7170E+03
      2.189  0.1700E+03  0.7212E+03
      2.213  0.1776E+03  0.7256E+03
      2.238  0.1817E+03  0.7300E+03
      2.262  0.1783E+03  0.7344E+03
      2.287  0.1728E+03  0.7386E+03
      2.311  0.1645E+03  0.7426E+03
      2.336  0.1607E+03  0.7466E+03
      2.360  0.1487E+03  0.7502E+03
      2.385  0.1277E+03  0.7534E+03
      2.409  0.1306E+03  0.7566E+03
      2.434  0.1551E+03  0.7604E+03
      2.458  0.1544E+03  0.7641E+03
      2.483  0.1353E+03  0.7675E+03
      2.507  0.1243E+03  0.7705E+03
      2.532  0.1263E+03  0.7736E+03
      2.556  0.1327E+03  0.7769E+03
      2.581  0.1208E+03  0.7798E+03
      2.605  0.1031E+03  0.7823E+03
      2.630  0.9396E+02  0.7846E+03
      2.654  0.9199E+02  0.7869E+03
      2.679  0.9242E+02  0.7892E+03
      2.703  0.9899E+02  0.7916E+03
      2.728  0.9184E+02  0.7938E+03
      2.752  0.6071E+02  0.7953E+03
      2.777  0.2385E+02  0.7959E+03
      2.801  0.8782E+01  0.7961E+03
      2.826  0.3111E+02  0.7969E+03
      2.850  0.7456E+02  0.7987E+03
      2.875  0.8109E+02  0.8007E+03
      2.899  0.4240E+02  0.8017E+03
      2.924  0.9891E+01  0.8020E+03
      2.948  0.2474E+01  0.8020E+03
      2.973  0.1010E+02  0.8023E+03
      2.998  0.3152E+02  0.8031E+03
      3.022  0.6095E+02  0.8046E+03
      3.047  0.7308E+02  0.8063E+03
      3.071  0.7283E+02  0.8081E+03
      3.096  0.8381E+02  0.8102E+03
      3.120  0.1029E+03  0.8127E+03
      3.145  0.1083E+03  0.8154E+03
      3.169  0.1016E+03  0.8178E+03
      3.194  0.1015E+03  0.8203E+03
      3.218  0.1165E+03  0.8232E+03
      3.243  0.1303E+03  0.8264E+03
      3.267  0.1298E+03  0.8296E+03
      3.292  0.1258E+03  0.8326E+03
      3.316  0.1234E+03  0.8357E+03
      3.341  0.1184E+03  0.8386E+03
      3.365  0.1121E+03  0.8413E+03
      3.390  0.1018E+03  0.8438E+03
      3.414  0.8372E+02  0.8459E+03
      3.439  0.5921E+02  0.8473E+03
      3.463  0.3167E+02  0.8481E+03
      3.488  0.3665E+02  0.8490E+03
      3.512  0.5777E+02  0.8504E+03
      3.537  0.5643E+02  0.8518E+03
      3.561  0.6896E+02  0.8535E+03
      3.586  0.9598E+02  0.8558E+03
      3.610  0.1046E+03  0.8584E+03
      3.635  0.1025E+03  0.8609E+03
      3.659  0.8820E+02  0.8631E+03
      3.684  0.6758E+02  0.8647E+03
      3.708  0.3991E+02  0.8657E+03
      3.733  0.1123E+02  0.8660E+03
      3.757  0.1145E+01  0.8660E+03
      3.782  0.3776E-01  0.8660E+03
      3.806  0.3780E-03  0.8660E+03
      3.831  0.1099E-05  0.8660E+03
      3.855  0.9011E-09  0.8660E+03
      3.880  0.2016E-12  0.8660E+03
      3.904  0.0000E+00  0.8660E+03
      3.929  0.0000E+00  0.8660E+03
      3.953  0.0000E+00  0.8660E+03
      3.978  0.0000E+00  0.8660E+03
      4.002  0.0000E+00  0.8660E+03
      4.027  0.0000E+00  0.8660E+03
