       N       E                     dE             d eps       ncg     rms          rms(c)
DAV:   1    -0.214286251135E+03   -0.21429E+03   -0.10729E+05  3464   0.664E+02
DAV:   2    -0.754142475187E+03   -0.53986E+03   -0.49313E+03  4004   0.698E+01
DAV:   3    -0.791253388260E+03   -0.37111E+02   -0.33901E+02  4384   0.145E+01
DAV:   4    -0.792431185563E+03   -0.11778E+01   -0.11625E+01  3976   0.285E+00
DAV:   5    -0.792457961495E+03   -0.26776E-01   -0.26745E-01  4080   0.452E-01    0.878E+00
DAV:   6    -0.787663101717E+03    0.47949E+01   -0.88126E+00  3952   0.434E+00    0.653E+00
DAV:   7    -0.783370775321E+03    0.42923E+01   -0.77996E+00  4064   0.403E+00    0.414E+00
DAV:   8    -0.781439494275E+03    0.19313E+01   -0.35393E+00  3936   0.201E+00    0.200E+00
DAV:   9    -0.781247394064E+03    0.19210E+00   -0.17064E+00  3760   0.109E+00    0.115E+00
DAV:  10    -0.781239173022E+03    0.82210E-02   -0.32502E-01  3944   0.614E-01    0.853E-01
DAV:  11    -0.781180917591E+03    0.58255E-01   -0.10899E-01  3896   0.416E-01    0.519E-01
DAV:  12    -0.781166706865E+03    0.14211E-01   -0.32000E-02  3768   0.176E-01    0.209E-01
DAV:  13    -0.781168115432E+03   -0.14086E-02   -0.90948E-03  4008   0.114E-01    0.149E-01
DAV:  14    -0.781165911445E+03    0.22040E-02   -0.39685E-03  3968   0.817E-02    0.719E-02
DAV:  15    -0.781165631063E+03    0.28038E-03   -0.98060E-04  3840   0.349E-02    0.375E-02
DAV:  16    -0.781165523477E+03    0.10759E-03   -0.43464E-04  3752   0.191E-02    0.148E-02
DAV:  17    -0.781165524150E+03   -0.67281E-06   -0.62320E-05  4104   0.104E-02
   1 F= -.78116552E+03 E0= -.78112297E+03  d E =-.851036E-01
