Li                                      
           1
    20.020800    0.000000    0.000000
     0.000000   20.020800    0.000000
     0.000000    0.000000   20.020800
   Li
   432
Direct configuration=     1
   0.00073082  0.97137480  0.00562027
   0.92471639  0.08305330  0.06750828
   0.83986153  0.14587620  0.16674133
   0.73538126  0.24342461  0.25252668
   0.65967010  0.33048860  0.32540513
   0.59787038  0.41813123  0.42943986
   0.50272555  0.50196365  0.49204223
   0.41664092  0.57547417  0.58141324
   0.33833004  0.66375783  0.68579909
   0.25343145  0.72005593  0.76385380
   0.15283709  0.80694014  0.81538254
   0.08877487  0.92354281  0.91226799
   0.10366018  0.91956788  0.08288800
   0.99877734  0.99011131  0.17746944
   0.91323570  0.07794929  0.25818884
   0.79710924  0.16442290  0.32876312
   0.73783355  0.22848687  0.43004783
   0.67078554  0.33337725  0.50239318
   0.61004671  0.42787438  0.60601451
   0.52123880  0.51430688  0.67211707
   0.40611386  0.57343689  0.74841935
   0.34744134  0.64480694  0.83663607
   0.23462490  0.72288031  0.89245211
   0.15840346  0.82568293  0.98686959
   0.18843950  0.85010055  0.18008394
   0.07977606  0.93451395  0.25589126
   0.98851769  0.97974579  0.32899979
   0.90570596  0.07722858  0.41251399
   0.82748596  0.14486964  0.48847185
   0.75536419  0.24808146  0.57616133
   0.67865680  0.32717665  0.66277569
   0.58433704  0.41106326  0.76046930
   0.51415512  0.49733908  0.83572467
   0.41957922  0.57386111  0.92435320
   0.33481289  0.68249143  0.98864374
   0.24416341  0.76538625  0.08112194
   0.25832622  0.75370012  0.26617872
   0.16712296  0.86689076  0.33990985
   0.07474931  0.91073787  0.44525646
   0.99949918  0.99959995  0.51560238
   0.91906721  0.08424696  0.58009589
   0.82925626  0.18036336  0.66578675
   0.75486998  0.26739941  0.75165565
   0.68030803  0.33637986  0.85440957
   0.59099366  0.42294448  0.91678163
   0.50991596  0.49434853  0.01181023
   0.41376838  0.58427409  0.08608030
   0.34323284  0.68110587  0.16877803
   0.33750092  0.66653544  0.34140649
   0.24544551  0.74910789  0.41927616
   0.16664897  0.81641697  0.51310824
   0.09448535  0.89618768  0.59067232
   0.01529248  0.00844277  0.66568099
   0.91069126  0.09659279  0.75760446
   0.85648571  0.16973702  0.82036447
   0.76764675  0.26364472  0.91864414
   0.67819666  0.30994679  0.01005289
   0.57994411  0.38213533  0.08335290
   0.50614750  0.48925205  0.16840386
   0.42625935  0.57146660  0.24597245
   0.43132529  0.57872835  0.40806914
   0.33778020  0.65469744  0.48527220
   0.26374658  0.74106058  0.59286056
   0.18233198  0.82299185  0.67527277
   0.09797341  0.91147128  0.74874995
   0.98332410  0.01850946  0.83453274
   0.92660666  0.10192252  0.94312911
   0.83200807  0.18167825  0.99138743
   0.75573749  0.24571549  0.11277386
   0.65836767  0.32177599  0.17004933
   0.58024005  0.40819147  0.25902428
   0.51066422  0.48088991  0.32677090
   0.08340876  0.07747563  0.94062640
   0.02446603  0.16804752  0.00922149
   0.91184898  0.26624854  0.11064495
   0.83811943  0.34646120  0.19379617
   0.73874782  0.43970655  0.25854189
   0.66530850  0.48861006  0.33523344
   0.59669456  0.59293117  0.41824869
   0.49617974  0.65552825  0.48994678
   0.41774778  0.75618300  0.57373241
   0.34300875  0.83622499  0.67207188
   0.24098532  0.91271416  0.76329136
   0.17354333  0.00606953  0.85122410
   0.20280430  0.98226796  0.99139143
   0.08151605  0.06525000  0.07000450
   0.99561375  0.14878386  0.16822358
   0.91952939  0.22756338  0.26057142
   0.81216698  0.31758663  0.32745055
   0.73624448  0.40018783  0.41351486
   0.69902182  0.50599379  0.50737171
   0.56678308  0.58339198  0.57773029
   0.48624280  0.66318125  0.67369481
   0.42570606  0.74757055  0.73360942
   0.33420865  0.80865241  0.82481201
   0.26700691  0.89207678  0.88139466
   0.26190648  0.91850438  0.08328841
   0.15950593  0.00070700  0.14597164
   0.10748467  0.05925574  0.23505574
   0.02766058  0.15815067  0.32883549
   0.92793620  0.23708803  0.38382373
   0.83963019  0.33827610  0.48321333
   0.76996113  0.41936414  0.57892608
   0.68325494  0.49869810  0.68295584
   0.58005469  0.59941894  0.76863441
   0.49395666  0.65759814  0.83849459
   0.43025289  0.75647467  0.92478024
   0.32801372  0.81650107  0.99073770
   0.33988825  0.83366605  0.17279857
   0.25008594  0.94887652  0.24637812
   0.16964919  0.98819298  0.34144390
   0.07155107  0.06676126  0.41085175
   0.97608557  0.16740491  0.47758588
   0.90149926  0.24488952  0.56143549
   0.82690279  0.33656167  0.67512183
   0.74646488  0.42924003  0.77272594
   0.67490890  0.49631407  0.84476815
   0.58913201  0.56972226  0.91577168
   0.50054256  0.65531295  0.98930088
   0.42476700  0.76187242  0.06087664
   0.41920176  0.75490650  0.25662567
   0.34064210  0.86360527  0.31855038
   0.25946069  0.92812796  0.43312050
   0.16972023  0.98935882  0.52171284
   0.06702231  0.06442884  0.58555638
   0.00613020  0.17937690  0.65795744
   0.93619406  0.24723316  0.73088867
   0.84283814  0.33439889  0.86210695
   0.74863211  0.44026928  0.95449004
   0.66369474  0.50545832  0.02606691
   0.57340526  0.58462229  0.06650616
   0.50028515  0.66783177  0.14569138
   0.49381394  0.65213802  0.32961139
   0.41847818  0.75845065  0.41599674
   0.34218320  0.83351335  0.51014726
   0.25362922  0.89067441  0.59933961
   0.18136253  0.99125340  0.68664669
   0.07791902  0.09025792  0.75000197
   0.00654486  0.17151267  0.83223199
   0.94612408  0.24275420  0.90680786
   0.84041108  0.32364515  0.01118449
   0.75107650  0.43076323  0.10601427
   0.65467531  0.50403000  0.15719891
   0.59238859  0.57808059  0.23665862
   0.12853989  0.17637040  0.83363806
   0.08503996  0.24748737  0.92055924
   0.99487372  0.30432498  0.99725053
   0.89355536  0.42181194  0.07510510
   0.83300420  0.50700849  0.17118568
   0.74375841  0.58726496  0.22856439
   0.68585911  0.64367734  0.30391373
   0.58512722  0.72238769  0.40880867
   0.51914658  0.82476183  0.50583883
   0.43242464  0.92096239  0.59049649
   0.32075812  0.99294362  0.67827553
   0.23395169  0.09561963  0.76474121
   0.23804396  0.08949338  0.89711613
   0.17133304  0.17749350  0.99655586
   0.08263229  0.25258968  0.10332178
   0.98931221  0.34511183  0.17507085
   0.91195541  0.42278180  0.27952778
   0.82717524  0.48415912  0.33194782
   0.75548349  0.57525418  0.39815255
   0.67201415  0.63909637  0.50043010
   0.58855652  0.72660918  0.59304921
   0.51280823  0.83051735  0.65027499
   0.42431673  0.92724656  0.76836189
   0.34465261  0.01880647  0.84578775
   0.33767723  0.98805218  0.98091646
   0.25332570  0.09539630  0.06429465
   0.16163152  0.16458953  0.15414151
   0.08837727  0.24718023  0.25029370
   0.01596309  0.33586561  0.34416332
   0.90813697  0.42210626  0.38462915
   0.83394124  0.51559143  0.46141888
   0.77308451  0.57299044  0.59066759
   0.65928870  0.64831767  0.67612897
   0.59895799  0.72020301  0.77514479
   0.51817355  0.80875846  0.82837136
   0.43923595  0.89576599  0.88271811
   0.41696672  0.89601898  0.06463250
   0.33858833  0.01393066  0.14514352
   0.23156768  0.07138951  0.24543307
   0.15477836  0.15399578  0.35445854
   0.08251895  0.25025473  0.42819757
   0.98901107  0.36128101  0.48738194
   0.88224968  0.43109457  0.57121525
   0.85293499  0.49416399  0.66347773
   0.78038008  0.59670349  0.74420979
   0.67822761  0.63847600  0.85682481
   0.59490129  0.73417992  0.92631006
   0.50241992  0.85215061  0.97832084
   0.51234944  0.83590630  0.17024067
   0.42040363  0.92907377  0.24196474
   0.33746211  0.01594734  0.33971169
   0.25352573  0.08448369  0.41742018
   0.15618168  0.16085029  0.50213822
   0.08427113  0.25961438  0.57227138
   0.97259187  0.37096778  0.63038278
   0.93032358  0.42234728  0.75808834
   0.85521689  0.49385900  0.83922758
   0.76955669  0.57748098  0.91695291
   0.67957038  0.65164539  0.00599080
   0.56334780  0.75380044  0.06469749
   0.59122008  0.74715141  0.25569179
   0.49704370  0.83750008  0.34939692
   0.42145721  0.92437413  0.42376657
   0.33611848  0.98630687  0.50758488
   0.25447582  0.08633399  0.58118614
   0.15036227  0.15886538  0.65025185
   0.06544926  0.26134569  0.72939530
   0.00539082  0.32423034  0.83645324
   0.92514020  0.40214235  0.92417398
   0.83281150  0.49564466  0.02028510
   0.75350606  0.59503929  0.08641353
   0.67689462  0.67373805  0.14521541
   0.22920832  0.23812379  0.75465214
   0.17205477  0.33606606  0.83056718
   0.07704689  0.40371223  0.91747146
   0.99154538  0.49441444  0.99001843
   0.93267750  0.56473753  0.12572920
   0.85672152  0.68006982  0.16667211
   0.73100726  0.75384070  0.23580662
   0.66656433  0.83750694  0.34295301
   0.59453523  0.91767079  0.42285696
   0.50394318  0.01309000  0.50686116
   0.41375641  0.06508245  0.58348132
   0.31839805  0.16421987  0.66299512
   0.33295038  0.16453389  0.82553312
   0.23813916  0.25842266  0.93098726
   0.16603807  0.34193636  0.00422782
   0.06087603  0.40325389  0.08824958
   0.99090052  0.45680095  0.18837592
   0.90588696  0.56084169  0.27270710
   0.84011222  0.68400383  0.31846133
   0.74991511  0.74370116  0.41855688
   0.66801483  0.83488605  0.51750932
   0.61259636  0.91338350  0.59067068
   0.50104147  0.00071908  0.67298570
   0.40867609  0.08779561  0.73732160
   0.39656632  0.07665466  0.91338659
   0.32111453  0.15803209  0.97296254
   0.25490005  0.26000612  0.06900951
   0.14823276  0.34044175  0.16097119
   0.10272240  0.40076839  0.25850711
   0.01403667  0.51470845  0.32935189
   0.92894778  0.57800882  0.38638186
   0.82795438  0.65741653  0.47036101
   0.75612122  0.73093169  0.59557775
   0.67026230  0.82685710  0.67277528
   0.56796399  0.90435972  0.73806197
   0.51623161  0.04051749  0.83040373
   0.48347820  0.01471227  0.97583910
   0.40918547  0.08067216  0.05949407
   0.32786994  0.16222650  0.15553173
   0.22469763  0.23156200  0.24812086
   0.17294108  0.32689607  0.32917864
   0.10282267  0.44267092  0.40976112
   0.97771687  0.51240562  0.48341822
   0.89403563  0.57927391  0.58711963
   0.83553782  0.67292892  0.68287870
   0.75138369  0.75295271  0.76060170
   0.68043941  0.84170645  0.84411467
   0.58540332  0.91417566  0.88000902
   0.58270257  0.91803693  0.06120182
   0.49663391  0.99280793  0.14769688
   0.40032808  0.06291009  0.25039095
   0.33047522  0.17857434  0.31648714
   0.24108015  0.24633982  0.43246955
   0.18307484  0.34393503  0.49227131
   0.10045422  0.41044438  0.57685455
   0.99544492  0.52128339  0.65898203
   0.91146970  0.58989505  0.76129295
   0.84165543  0.67859388  0.84980159
   0.75546500  0.75259406  0.91972954
   0.65363871  0.81835146  0.99844622
   0.64335774  0.83765474  0.16544467
   0.57542266  0.92806717  0.23052536
   0.49501653  0.00957031  0.33977063
   0.41534386  0.09751775  0.42292244
   0.33020412  0.18001594  0.49658536
   0.24277085  0.23975565  0.56615978
   0.19452465  0.32177813  0.65756482
   0.08646277  0.40804131  0.72229821
   0.98968592  0.48984287  0.82382388
   0.91898145  0.58782123  0.92582823
   0.85413020  0.65953628  0.03242015
   0.76274408  0.76051451  0.10444397
   0.31797150  0.33572759  0.67084314
   0.25990973  0.40277157  0.76932988
   0.16113474  0.48127024  0.83209839
   0.06567031  0.57610655  0.91409363
   0.01509085  0.66452214  0.02996243
   0.91594165  0.74688807  0.09334741
   0.82976386  0.82272410  0.14385539
   0.73161659  0.91580262  0.23365212
   0.66376342  0.01197980  0.33557836
   0.55683501  0.08025706  0.43210420
   0.49944065  0.16261190  0.51074714
   0.42050587  0.25989579  0.59386052
   0.41773270  0.26587935  0.75384960
   0.32866138  0.31744304  0.82959384
   0.26867178  0.42102127  0.91825859
   0.15393083  0.48492417  0.00421346
   0.07616379  0.56996803  0.10223257
   0.01371202  0.67410337  0.19487943
   0.93794309  0.78083272  0.25092791
   0.81665712  0.82697271  0.33756563
   0.74264141  0.93417184  0.43288530
   0.65516114  0.01420989  0.49700610
   0.58247041  0.08613084  0.59455913
   0.48784449  0.18355477  0.66496813
   0.49598893  0.19643512  0.83573252
   0.41575723  0.26949668  0.91358778
   0.34256046  0.33484141  0.00501701
   0.25199654  0.43112994  0.08901764
   0.16290447  0.50759831  0.16580873
   0.10566153  0.57981610  0.24223811
   0.01416485  0.67072149  0.31250945
   0.92319840  0.75926456  0.41550495
   0.83346835  0.83843069  0.50865337
   0.73313041  0.92669106  0.59001387
   0.67559023  0.98752026  0.68980000
   0.57285030  0.09294638  0.75645167
   0.61046811  0.10465101  0.91394230
   0.50009424  0.16071506  0.98967121
   0.40991534  0.23377646  0.07674062
   0.32875140  0.32889358  0.17760985
   0.25941228  0.40283758  0.23851910
   0.18570561  0.50361573  0.32191414
   0.07918978  0.58081839  0.41361293
   0.98882195  0.66378778  0.49246948
   0.91300764  0.75022578  0.57103928
   0.82210215  0.84043407  0.66375415
   0.74632467  0.89644067  0.75373259
   0.67986282  0.00847229  0.82319322
   0.65850904  0.99859215  0.96975458
   0.58119837  0.06464048  0.07250336
   0.48539162  0.15435519  0.16873375
   0.40371401  0.24356775  0.25330923
   0.33425914  0.31666341  0.33148025
   0.25381760  0.41063889  0.40541616
   0.19671019  0.49731952  0.48366334
   0.09370921  0.56398252  0.57568772
   0.98249103  0.66759930  0.65289745
   0.91725178  0.75825265  0.74190453
   0.85546396  0.84446034  0.84878362
   0.74633486  0.91962868  0.90830377
   0.72928466  0.92790576  0.07599648
   0.65889306  0.01502527  0.16897426
   0.57760774  0.07975039  0.25231297
   0.48951624  0.16530125  0.30317175
   0.40731452  0.24238384  0.40682958
   0.34287919  0.35644706  0.50149388
   0.25366033  0.42526016  0.60601154
   0.18040969  0.48734447  0.67197212
   0.07834410  0.59901596  0.73081205
   0.00298791  0.67116683  0.82024239
   0.92608296  0.74354204  0.93602754
   0.82030832  0.82938192  0.00603346
   0.42597882  0.44033712  0.57743360
   0.33738718  0.48840006  0.68173891
   0.28024081  0.56310362  0.77070921
   0.14108602  0.64888838  0.83380142
   0.07677140  0.75748003  0.92028887
   0.99974222  0.82743302  0.00006861
   0.90586578  0.91603211  0.06467117
   0.82430213  0.00533219  0.16097652
   0.73240435  0.08902741  0.24132739
   0.63626266  0.17154122  0.33549475
   0.56596991  0.26571307  0.40199616
   0.47575792  0.35242013  0.48772255
   0.48647940  0.35699846  0.66120085
   0.40055428  0.43425403  0.75840428
   0.32683720  0.49105516  0.84243609
   0.24481263  0.58130455  0.93568251
   0.13897829  0.66827241  0.00917899
   0.08403315  0.75621494  0.10106172
   0.99909640  0.86656305  0.15757999
   0.88500607  0.88753374  0.24393857
   0.80182407  0.99780657  0.33601499
   0.72289140  0.10820974  0.41791486
   0.63468786  0.19823524  0.51955434
   0.54904828  0.27815343  0.57040819
   0.58306398  0.27007637  0.75244300
   0.50318740  0.33391649  0.84540671
   0.42520588  0.43007876  0.91277146
   0.34114710  0.50043335  0.00770143
   0.25305447  0.56792073  0.08815129
   0.16556372  0.68205322  0.15151567
   0.09983490  0.78021977  0.23258363
   0.01276359  0.83336236  0.33590557
   0.91321981  0.91106578  0.39910525
   0.82962594  0.00668380  0.51079268
   0.73939608  0.10958131  0.57934065
   0.65341605  0.18140587  0.66015274
   0.67177597  0.19998228  0.81978620
   0.57304056  0.25168414  0.91384709
   0.50123001  0.32837235  0.99518819
   0.42223688  0.39346696  0.08489017
   0.33981858  0.50061704  0.17728073
   0.25964183  0.60650587  0.25499548
   0.15257263  0.67473487  0.32697338
   0.08572979  0.74302897  0.41614187
   0.99534397  0.82791701  0.51010742
   0.91331693  0.91964700  0.59096891
   0.83203562  0.99699363  0.65972557
   0.75059830  0.11303681  0.76597415
   0.75597076  0.12365900  0.90688448
   0.68500444  0.17837496  0.00003900
   0.55870968  0.24832322  0.08255304
   0.48862031  0.33042639  0.18184647
   0.40928843  0.42375884  0.26637152
   0.32227260  0.51268765  0.32398195
   0.25499585  0.59283302  0.39451364
   0.17269853  0.65403894  0.50793922
   0.07113892  0.73576852  0.58182844
   0.99213288  0.84063506  0.65857331
   0.92187837  0.93685995  0.75422847
   0.82244431  0.00948495  0.85374913
   0.80672569  0.98649850  0.99675700
   0.75542341  0.09489704  0.07308768
   0.66635749  0.15674528  0.16000738
   0.57974802  0.24683267  0.22764343
   0.49350311  0.33793489  0.32294277
   0.41274241  0.43223281  0.41965952
   0.31968871  0.50774821  0.49183401
   0.25872100  0.58718823  0.60359192
   0.17335491  0.66560686  0.68153791
   0.06417543  0.73938485  0.74744123
   0.99119745  0.84273537  0.84681919
   0.91746875  0.92404286  0.92181763
