 500 500   0   0
  0.2153794E+02  0.2208300E-08  0.2208300E-08  0.2208300E-08  0.5000000E-15
  1.000000000000000E-004
  CAR 
 Li                                      
      3.24595584     -3.51214240  301      0.24395562      1.00000000
     -3.512  0.0000E+00  0.0000E+00
     -3.490  0.0000E+00  0.0000E+00
     -3.467  0.0000E+00  0.0000E+00
     -3.445  0.0000E+00  0.0000E+00
     -3.422  0.0000E+00  0.0000E+00
     -3.400  0.0000E+00  0.0000E+00
     -3.377  0.2464E-13  0.5551E-15
     -3.354  0.8022E-10  0.1808E-11
     -3.332  0.9502E-07  0.2142E-08
     -3.309  0.3741E-04  0.8449E-06
     -3.287  0.4939E-02  0.1121E-03
     -3.264  0.2213E+00  0.5097E-02
     -3.242  0.3416E+01  0.8205E-01
     -3.219  0.1848E+02  0.4984E+00
     -3.197  0.3557E+02  0.1300E+01
     -3.174  0.2453E+02  0.1852E+01
     -3.152  0.6459E+01  0.1998E+01
     -3.129  0.7471E+01  0.2166E+01
     -3.107  0.4174E+02  0.3106E+01
     -3.084  0.9602E+02  0.5269E+01
     -3.062  0.8638E+02  0.7215E+01
     -3.039  0.3069E+02  0.7907E+01
     -3.017  0.8358E+01  0.8095E+01
     -2.994  0.3057E+02  0.8784E+01
     -2.971  0.8557E+02  0.1071E+02
     -2.949  0.9582E+02  0.1287E+02
     -2.926  0.4277E+02  0.1383E+02
     -2.904  0.1278E+02  0.1412E+02
     -2.881  0.3636E+02  0.1494E+02
     -2.859  0.9990E+02  0.1719E+02
     -2.836  0.1245E+03  0.2000E+02
     -2.814  0.7028E+02  0.2158E+02
     -2.791  0.2271E+02  0.2209E+02
     -2.769  0.4117E+02  0.2302E+02
     -2.746  0.1220E+03  0.2577E+02
     -2.724  0.1787E+03  0.2979E+02
     -2.701  0.1308E+03  0.3274E+02
     -2.679  0.4805E+02  0.3382E+02
     -2.656  0.1665E+02  0.3420E+02
     -2.634  0.4750E+02  0.3527E+02
     -2.611  0.9842E+02  0.3748E+02
     -2.589  0.8155E+02  0.3932E+02
     -2.566  0.2867E+02  0.3997E+02
     -2.543  0.2471E+02  0.4052E+02
     -2.521  0.9298E+02  0.4262E+02
     -2.498  0.1760E+03  0.4658E+02
     -2.476  0.1574E+03  0.5013E+02
     -2.453  0.7099E+02  0.5173E+02
     -2.431  0.3914E+02  0.5261E+02
     -2.408  0.1073E+03  0.5503E+02
     -2.386  0.2116E+03  0.5979E+02
     -2.363  0.2323E+03  0.6502E+02
     -2.341  0.1530E+03  0.6847E+02
     -2.318  0.5894E+02  0.6980E+02
     -2.296  0.2864E+02  0.7044E+02
     -2.273  0.6653E+02  0.7194E+02
     -2.251  0.9962E+02  0.7419E+02
     -2.228  0.6342E+02  0.7561E+02
     -2.206  0.2336E+02  0.7614E+02
     -2.183  0.5254E+02  0.7732E+02
     -2.161  0.1517E+03  0.8074E+02
     -2.138  0.2109E+03  0.8549E+02
     -2.115  0.1448E+03  0.8876E+02
     -2.093  0.5657E+02  0.9003E+02
     -2.070  0.5967E+02  0.9137E+02
     -2.048  0.1506E+03  0.9477E+02
     -2.025  0.2323E+03  0.1000E+03
     -2.003  0.2124E+03  0.1048E+03
     -1.980  0.1117E+03  0.1073E+03
     -1.958  0.4170E+02  0.1082E+03
     -1.935  0.6978E+02  0.1098E+03
     -1.913  0.1526E+03  0.1132E+03
     -1.890  0.1724E+03  0.1171E+03
     -1.868  0.1030E+03  0.1195E+03
     -1.845  0.6183E+02  0.1208E+03
     -1.823  0.1225E+03  0.1236E+03
     -1.800  0.2135E+03  0.1284E+03
     -1.778  0.2273E+03  0.1335E+03
     -1.755  0.1445E+03  0.1368E+03
     -1.733  0.6404E+02  0.1382E+03
     -1.710  0.8763E+02  0.1402E+03
     -1.687  0.1912E+03  0.1445E+03
     -1.665  0.2448E+03  0.1500E+03
     -1.642  0.1778E+03  0.1540E+03
     -1.620  0.7714E+02  0.1558E+03
     -1.597  0.5356E+02  0.1570E+03
     -1.575  0.1158E+03  0.1596E+03
     -1.552  0.1707E+03  0.1634E+03
     -1.530  0.1378E+03  0.1665E+03
     -1.507  0.7084E+02  0.1681E+03
     -1.485  0.7237E+02  0.1698E+03
     -1.462  0.1227E+03  0.1725E+03
     -1.440  0.1473E+03  0.1758E+03
     -1.417  0.1193E+03  0.1785E+03
     -1.395  0.6953E+02  0.1801E+03
     -1.372  0.9966E+02  0.1823E+03
     -1.350  0.2336E+03  0.1876E+03
     -1.327  0.3437E+03  0.1953E+03
     -1.304  0.3301E+03  0.2028E+03
     -1.282  0.2195E+03  0.2077E+03
     -1.259  0.1120E+03  0.2103E+03
     -1.237  0.1253E+03  0.2131E+03
     -1.214  0.2175E+03  0.2180E+03
     -1.192  0.2378E+03  0.2233E+03
     -1.169  0.1542E+03  0.2268E+03
     -1.147  0.7210E+02  0.2284E+03
     -1.124  0.7410E+02  0.2301E+03
     -1.102  0.1380E+03  0.2332E+03
     -1.079  0.1901E+03  0.2375E+03
     -1.057  0.1566E+03  0.2410E+03
     -1.034  0.1294E+03  0.2439E+03
     -1.012  0.1946E+03  0.2483E+03
     -0.989  0.2590E+03  0.2541E+03
     -0.967  0.2559E+03  0.2599E+03
     -0.944  0.1802E+03  0.2640E+03
     -0.922  0.7608E+02  0.2657E+03
     -0.899  0.3360E+02  0.2664E+03
     -0.876  0.6958E+02  0.2680E+03
     -0.854  0.1004E+03  0.2703E+03
     -0.831  0.6769E+02  0.2718E+03
     -0.809  0.6371E+02  0.2732E+03
     -0.786  0.1570E+03  0.2768E+03
     -0.764  0.2802E+03  0.2831E+03
     -0.741  0.3400E+03  0.2907E+03
     -0.719  0.3150E+03  0.2978E+03
     -0.696  0.2495E+03  0.3035E+03
     -0.674  0.1974E+03  0.3079E+03
     -0.651  0.1982E+03  0.3124E+03
     -0.629  0.2695E+03  0.3184E+03
     -0.606  0.3106E+03  0.3254E+03
     -0.584  0.2515E+03  0.3311E+03
     -0.561  0.1688E+03  0.3349E+03
     -0.539  0.1121E+03  0.3374E+03
     -0.516  0.9941E+02  0.3397E+03
     -0.494  0.1271E+03  0.3425E+03
     -0.471  0.1442E+03  0.3458E+03
     -0.448  0.1808E+03  0.3499E+03
     -0.426  0.2050E+03  0.3545E+03
     -0.403  0.1959E+03  0.3589E+03
     -0.381  0.1860E+03  0.3631E+03
     -0.358  0.1507E+03  0.3665E+03
     -0.336  0.1276E+03  0.3693E+03
     -0.313  0.2030E+03  0.3739E+03
     -0.291  0.3058E+03  0.3808E+03
     -0.268  0.3215E+03  0.3880E+03
     -0.246  0.2613E+03  0.3939E+03
     -0.223  0.1997E+03  0.3984E+03
     -0.201  0.2062E+03  0.4031E+03
     -0.178  0.2339E+03  0.4083E+03
     -0.156  0.2009E+03  0.4129E+03
     -0.133  0.1160E+03  0.4155E+03
     -0.111  0.8162E+02  0.4173E+03
     -0.088  0.1565E+03  0.4209E+03
     -0.066  0.2597E+03  0.4267E+03
     -0.043  0.3057E+03  0.4336E+03
     -0.020  0.2855E+03  0.4400E+03
      0.002  0.2227E+03  0.4450E+03
      0.025  0.1904E+03  0.4493E+03
      0.047  0.2200E+03  0.4543E+03
      0.070  0.2331E+03  0.4595E+03
      0.092  0.1914E+03  0.4638E+03
      0.115  0.1563E+03  0.4674E+03
      0.137  0.1944E+03  0.4717E+03
      0.160  0.2531E+03  0.4774E+03
      0.182  0.2811E+03  0.4838E+03
      0.205  0.2861E+03  0.4902E+03
      0.227  0.2644E+03  0.4962E+03
      0.250  0.2255E+03  0.5013E+03
      0.272  0.2103E+03  0.5060E+03
      0.295  0.2284E+03  0.5111E+03
      0.317  0.2396E+03  0.5165E+03
      0.340  0.2290E+03  0.5217E+03
      0.363  0.2373E+03  0.5270E+03
      0.385  0.2938E+03  0.5337E+03
      0.408  0.3524E+03  0.5416E+03
      0.430  0.3829E+03  0.5502E+03
      0.453  0.3839E+03  0.5589E+03
      0.475  0.3574E+03  0.5669E+03
      0.498  0.3252E+03  0.5743E+03
      0.520  0.2915E+03  0.5808E+03
      0.543  0.2716E+03  0.5869E+03
      0.565  0.2706E+03  0.5930E+03
      0.588  0.2718E+03  0.5992E+03
      0.610  0.2712E+03  0.6053E+03
      0.633  0.2416E+03  0.6107E+03
      0.655  0.1612E+03  0.6143E+03
      0.678  0.8146E+02  0.6162E+03
      0.700  0.8763E+02  0.6182E+03
      0.723  0.1437E+03  0.6214E+03
      0.745  0.1730E+03  0.6253E+03
      0.768  0.1811E+03  0.6294E+03
      0.791  0.1748E+03  0.6333E+03
      0.813  0.1726E+03  0.6372E+03
      0.836  0.1966E+03  0.6416E+03
      0.858  0.2317E+03  0.6468E+03
      0.881  0.2542E+03  0.6526E+03
      0.903  0.2630E+03  0.6585E+03
      0.926  0.2713E+03  0.6646E+03
      0.948  0.2748E+03  0.6708E+03
      0.971  0.2775E+03  0.6770E+03
      0.993  0.2896E+03  0.6836E+03
      1.016  0.3046E+03  0.6904E+03
      1.038  0.3092E+03  0.6974E+03
      1.061  0.2856E+03  0.7038E+03
      1.083  0.2445E+03  0.7093E+03
      1.106  0.2017E+03  0.7139E+03
      1.128  0.1662E+03  0.7176E+03
      1.151  0.1706E+03  0.7215E+03
      1.173  0.2144E+03  0.7263E+03
      1.196  0.2420E+03  0.7317E+03
      1.219  0.2418E+03  0.7372E+03
      1.241  0.2371E+03  0.7425E+03
      1.264  0.2363E+03  0.7479E+03
      1.286  0.2322E+03  0.7531E+03
      1.309  0.2171E+03  0.7580E+03
      1.331  0.1976E+03  0.7624E+03
      1.354  0.1821E+03  0.7665E+03
      1.376  0.1554E+03  0.7700E+03
      1.399  0.1277E+03  0.7729E+03
      1.421  0.1395E+03  0.7761E+03
      1.444  0.1657E+03  0.7798E+03
      1.466  0.1657E+03  0.7835E+03
      1.489  0.1398E+03  0.7867E+03
      1.511  0.1075E+03  0.7891E+03
      1.534  0.9616E+02  0.7913E+03
      1.556  0.1241E+03  0.7941E+03
      1.579  0.1661E+03  0.7978E+03
      1.601  0.2116E+03  0.8026E+03
      1.624  0.2439E+03  0.8081E+03
      1.647  0.2522E+03  0.8137E+03
      1.669  0.2585E+03  0.8196E+03
      1.692  0.2719E+03  0.8257E+03
      1.714  0.2777E+03  0.8319E+03
      1.737  0.2766E+03  0.8382E+03
      1.759  0.2724E+03  0.8443E+03
      1.782  0.2571E+03  0.8501E+03
      1.804  0.2342E+03  0.8554E+03
      1.827  0.2185E+03  0.8603E+03
      1.849  0.1971E+03  0.8647E+03
      1.872  0.1680E+03  0.8685E+03
      1.894  0.1613E+03  0.8722E+03
      1.917  0.1605E+03  0.8758E+03
      1.939  0.1237E+03  0.8786E+03
      1.962  0.7936E+02  0.8803E+03
      1.984  0.9511E+02  0.8825E+03
      2.007  0.1461E+03  0.8858E+03
      2.029  0.1726E+03  0.8897E+03
      2.052  0.1820E+03  0.8938E+03
      2.075  0.1730E+03  0.8977E+03
      2.097  0.1582E+03  0.9012E+03
      2.120  0.1671E+03  0.9050E+03
      2.142  0.1694E+03  0.9088E+03
      2.165  0.1565E+03  0.9123E+03
      2.187  0.1517E+03  0.9158E+03
      2.210  0.1410E+03  0.9189E+03
      2.232  0.1338E+03  0.9219E+03
      2.255  0.1357E+03  0.9250E+03
      2.277  0.1414E+03  0.9282E+03
      2.300  0.1492E+03  0.9316E+03
      2.322  0.1485E+03  0.9349E+03
      2.345  0.1366E+03  0.9380E+03
      2.367  0.1249E+03  0.9408E+03
      2.390  0.1098E+03  0.9433E+03
      2.412  0.8626E+02  0.9452E+03
      2.435  0.9026E+02  0.9472E+03
      2.458  0.1252E+03  0.9501E+03
      2.480  0.1472E+03  0.9534E+03
      2.503  0.1501E+03  0.9568E+03
      2.525  0.1559E+03  0.9603E+03
      2.548  0.1625E+03  0.9639E+03
      2.570  0.1655E+03  0.9677E+03
      2.593  0.1708E+03  0.9715E+03
      2.615  0.1694E+03  0.9753E+03
      2.638  0.1616E+03  0.9790E+03
      2.660  0.1564E+03  0.9825E+03
      2.683  0.1314E+03  0.9854E+03
      2.705  0.7878E+02  0.9872E+03
      2.728  0.2876E+02  0.9879E+03
      2.750  0.5397E+01  0.9880E+03
      2.773  0.7955E+00  0.9880E+03
      2.795  0.4684E+01  0.9881E+03
      2.818  0.2491E+02  0.9887E+03
      2.840  0.6256E+02  0.9901E+03
      2.863  0.9730E+02  0.9923E+03
      2.886  0.1194E+03  0.9950E+03
      2.908  0.1264E+03  0.9978E+03
      2.931  0.1071E+03  0.1000E+04
      2.953  0.5938E+02  0.1002E+04
      2.976  0.1718E+02  0.1002E+04
      2.998  0.2175E+01  0.1002E+04
      3.021  0.1087E+00  0.1002E+04
      3.043  0.2018E-02  0.1002E+04
      3.066  0.1339E-04  0.1002E+04
      3.088  0.3093E-07  0.1002E+04
      3.111  0.2439E-10  0.1002E+04
      3.133  0.4928E-14  0.1002E+04
      3.156  0.0000E+00  0.1002E+04
      3.178  0.0000E+00  0.1002E+04
      3.201  0.0000E+00  0.1002E+04
      3.223  0.0000E+00  0.1002E+04
      3.246  0.0000E+00  0.1002E+04
