Li                                      
           1
    22.083000   -0.000000    0.000000
    -0.000000   22.083000    0.000000
     0.000000    0.000000   22.083000
   Li
   500
Direct configuration=     1
   0.99370033  0.00888851  0.00175379
   0.00529737  0.09912928  0.09461677
   0.00402015  0.19823917  0.19623407
   0.99069659  0.29588983  0.29907946
   0.99951803  0.39724923  0.40095548
   0.00388882  0.50220829  0.49843560
   0.99494291  0.58434326  0.59987843
   0.99618120  0.69096460  0.71481535
   0.00633592  0.79242449  0.81018907
   0.00161403  0.89198950  0.90603164
   0.09265089  0.99387066  0.10588484
   0.09806034  0.09543124  0.20252954
   0.09474657  0.22730074  0.30106845
   0.10416020  0.30897239  0.39342669
   0.10504426  0.40751707  0.49314228
   0.09942574  0.51153240  0.59615977
   0.11106844  0.59197790  0.71100176
   0.10587003  0.68291115  0.80465351
   0.09676215  0.77845661  0.89247159
   0.09384389  0.90373901  0.99420677
   0.19787694  0.00650272  0.21242340
   0.18239747  0.11563876  0.30072050
   0.19776662  0.21572657  0.39448288
   0.20313894  0.29289694  0.50375445
   0.20732311  0.41566240  0.59194554
   0.20052646  0.49579291  0.70457200
   0.19490086  0.59880835  0.79087647
   0.21396151  0.66525943  0.90025796
   0.19038368  0.80040546  0.98396326
   0.19550266  0.90134607  0.09567146
   0.29185562  0.02233399  0.30781062
   0.30241732  0.10984402  0.40442352
   0.29334975  0.20969889  0.49782804
   0.30045000  0.31171125  0.61308616
   0.31457339  0.40884729  0.71690002
   0.30622741  0.50413892  0.80510775
   0.29843537  0.60013881  0.89771656
   0.28938676  0.71360100  0.00373738
   0.28813653  0.80923583  0.08799278
   0.28778948  0.90174736  0.21165573
   0.41098137  0.99295124  0.41203756
   0.40518715  0.10382141  0.50136420
   0.39097822  0.20791859  0.59999804
   0.39883213  0.29186833  0.71937040
   0.40438935  0.42633546  0.81065752
   0.38305625  0.50265468  0.90864210
   0.40590153  0.60170393  0.00614672
   0.39702202  0.70821883  0.10841668
   0.38792927  0.81552942  0.19705491
   0.40376148  0.91128245  0.29140530
   0.50290753  0.97361403  0.49628227
   0.49891404  0.09351716  0.59239383
   0.50013389  0.19073001  0.69284589
   0.51564059  0.30052540  0.78885960
   0.50354360  0.41248910  0.89420293
   0.49375467  0.50347786  0.99006237
   0.47983585  0.58629691  0.10895842
   0.48031930  0.70579910  0.20122128
   0.48313800  0.81333588  0.27780691
   0.50320332  0.89360434  0.39346912
   0.59533306  0.98965079  0.60037801
   0.59976661  0.09515886  0.69104387
   0.62382533  0.21008097  0.79313912
   0.59992915  0.29329678  0.89675118
   0.60130542  0.40347857  0.99763905
   0.61043124  0.48937303  0.10333194
   0.58206919  0.59233784  0.19698474
   0.59195811  0.70703646  0.29986287
   0.59835744  0.80516474  0.38184363
   0.61418890  0.89079831  0.50065958
   0.70948868  0.98779878  0.70000747
   0.69823206  0.09012998  0.79773269
   0.69666404  0.19785383  0.89598722
   0.70168207  0.29263389  0.00735439
   0.69396094  0.40147430  0.09280527
   0.70654689  0.50219108  0.19243884
   0.70193004  0.60156491  0.29826795
   0.69220286  0.68246241  0.39317064
   0.69079175  0.78206001  0.48853416
   0.70074246  0.89802760  0.59499328
   0.82142053  0.98114161  0.80323210
   0.79879460  0.09169335  0.90274542
   0.80770351  0.20122654  0.00279224
   0.79824740  0.27765997  0.10558383
   0.79899758  0.39684568  0.20389589
   0.79918437  0.51048669  0.28787214
   0.79693398  0.59602205  0.38275197
   0.81130985  0.69598773  0.49298025
   0.80972067  0.77989962  0.60929399
   0.80932251  0.89486896  0.70838449
   0.89712474  0.97841557  0.89983826
   0.89522362  0.09330726  0.99698552
   0.91528552  0.18688652  0.09689189
   0.90872185  0.30100259  0.19712540
   0.90623275  0.40965463  0.31095969
   0.90444605  0.49825040  0.39284895
   0.89221970  0.59470994  0.49765652
   0.90061666  0.67888411  0.60931169
   0.90899523  0.80549755  0.69540835
   0.91981374  0.89653196  0.79472388
   0.09801616  0.10220506  0.01507722
   0.09802749  0.20722397  0.10610572
   0.09689328  0.32090916  0.20206326
   0.08845260  0.40040567  0.30342254
   0.10202617  0.50726852  0.40339424
   0.09233732  0.61756382  0.50165278
   0.09316873  0.69576731  0.60281729
   0.11265199  0.78993602  0.70339616
   0.10431871  0.89602922  0.80694367
   0.10610181  0.00994345  0.89822511
   0.20538458  0.09975849  0.11118859
   0.18972577  0.20465309  0.21569055
   0.19815495  0.31841285  0.29392101
   0.19117413  0.40156279  0.40147537
   0.19341680  0.51487206  0.50711173
   0.20805291  0.60045135  0.61374815
   0.20369662  0.70034003  0.70544309
   0.20445959  0.78769218  0.80708952
   0.21122948  0.91172749  0.89995262
   0.20558347  0.00495202  0.99429576
   0.30705428  0.09827769  0.21685844
   0.30153985  0.19598368  0.29599215
   0.29681947  0.30603655  0.39689204
   0.30165866  0.39597839  0.49646492
   0.29852078  0.50567739  0.61666857
   0.30300556  0.61315966  0.69686988
   0.30036687  0.69980929  0.80190492
   0.31585010  0.81732126  0.89411909
   0.30289367  0.91333453  0.98993892
   0.30131214  0.99282104  0.10387841
   0.40930085  0.09829741  0.30811711
   0.40398520  0.20841579  0.42664561
   0.39456071  0.30953191  0.50491908
   0.39591303  0.40250405  0.60856672
   0.41880611  0.51594175  0.69734352
   0.39278443  0.60302318  0.78790565
   0.40422299  0.70099961  0.89247816
   0.39614556  0.79900936  0.00759041
   0.39738151  0.89400397  0.10228136
   0.39157004  0.99203752  0.20856796
   0.51231765  0.09761075  0.40225109
   0.50442120  0.20699466  0.52160996
   0.49784354  0.30842105  0.60447300
   0.50371608  0.40254916  0.68917208
   0.49658703  0.50985829  0.80994696
   0.48699019  0.60252586  0.91233367
   0.50110612  0.69707257  0.01345300
   0.48692306  0.78917815  0.10204393
   0.51114936  0.90406636  0.20067703
   0.52076169  0.99710107  0.28688634
   0.59229910  0.07397391  0.51269538
   0.61406505  0.20462955  0.59571998
   0.60548238  0.31119764  0.68831487
   0.60247771  0.41506633  0.78973685
   0.59769908  0.51356668  0.89979877
   0.58228156  0.59985230  0.01141451
   0.58603268  0.69389731  0.10889864
   0.60363397  0.80151087  0.20667253
   0.60015888  0.90298814  0.30161074
   0.61698998  0.99266220  0.38398358
   0.70184189  0.09344060  0.58982406
   0.70962438  0.19949177  0.70743539
   0.71696419  0.30450486  0.78090294
   0.69229673  0.40769792  0.90879449
   0.68663761  0.51378478  0.00228650
   0.69308084  0.60561429  0.10442401
   0.71235509  0.70114498  0.19838254
   0.70472978  0.77397375  0.30376263
   0.71000688  0.90125746  0.40050466
   0.69521611  0.00076320  0.49760463
   0.81451797  0.08549142  0.70459495
   0.81688157  0.19273082  0.80384569
   0.79419474  0.30784846  0.90131582
   0.78975867  0.38778807  0.00750846
   0.79658288  0.51233303  0.09426960
   0.80702029  0.62039332  0.18416592
   0.80740007  0.70347498  0.28633178
   0.79472699  0.78320815  0.39455157
   0.79185814  0.89338054  0.50330831
   0.79072291  0.99673613  0.59380976
   0.89652217  0.09498049  0.81323170
   0.90576814  0.19727203  0.91135283
   0.90814442  0.29732414  0.01651052
   0.89883048  0.40293897  0.10081131
   0.90106009  0.51641329  0.19513634
   0.90642718  0.61496269  0.28922242
   0.89762082  0.69427318  0.40573888
   0.89339064  0.79672435  0.50790638
   0.88567058  0.91087458  0.60271195
   0.90128963  0.99481115  0.70432872
   0.99878524  0.11378065  0.90355959
   0.00637036  0.19634468  0.01892112
   0.98658218  0.30208725  0.09446401
   0.99343830  0.39796470  0.19257458
   0.00542239  0.50839318  0.28715483
   0.00393366  0.61221330  0.39935434
   0.97924417  0.69485952  0.50841483
   0.00131634  0.80854433  0.60954680
   0.00762447  0.89688446  0.69854704
   0.01229911  0.00542858  0.80752354
   0.20857337  0.19871417  0.01336175
   0.20923536  0.28951388  0.11041728
   0.21238950  0.39895362  0.18230228
   0.20671922  0.49707806  0.28626419
   0.19644734  0.60024457  0.40392488
   0.20565989  0.70408436  0.49887477
   0.21069366  0.80493633  0.59742461
   0.20451862  0.89212162  0.71306240
   0.19652093  0.01582998  0.78714191
   0.19966922  0.11816390  0.89486826
   0.30945001  0.19259868  0.11406837
   0.30356783  0.28013902  0.20043890
   0.30480260  0.40146915  0.28856916
   0.29586613  0.50136829  0.41123970
   0.28952785  0.61461479  0.51548974
   0.29756767  0.71204220  0.60706873
   0.29767308  0.80166843  0.71580087
   0.29731504  0.89137824  0.80861701
   0.30323871  0.00657127  0.89651311
   0.30440326  0.09489137  0.99981042
   0.41741774  0.20726976  0.18625832
   0.41041056  0.29113069  0.30076957
   0.40226427  0.40232537  0.40583660
   0.39108344  0.49437903  0.52696087
   0.39011702  0.60584278  0.60854662
   0.39614972  0.70198056  0.69750759
   0.40983701  0.79237703  0.79410229
   0.40641003  0.91628608  0.89736992
   0.39907929  0.98859857  0.99989770
   0.39612296  0.08668042  0.10309547
   0.51542935  0.19682670  0.28921006
   0.50238291  0.30996777  0.40125131
   0.50633363  0.41403882  0.49779759
   0.49952765  0.51224136  0.61006786
   0.49969972  0.60905880  0.70202158
   0.49886770  0.70167912  0.78269136
   0.49578038  0.80333494  0.89878229
   0.50528566  0.88618904  0.99213146
   0.50357835  0.99130917  0.10573665
   0.51433566  0.07708798  0.20294838
   0.58149189  0.19386013  0.41331361
   0.60190410  0.31265613  0.51283089
   0.61154183  0.42980841  0.60311284
   0.60668143  0.50743846  0.71839180
   0.59547827  0.61143301  0.79846956
   0.59161826  0.69450862  0.89254965
   0.58800947  0.79075311  0.99114151
   0.59563798  0.89304978  0.09383908
   0.61340473  0.99809299  0.20356925
   0.61506031  0.10541117  0.29881999
   0.69733815  0.19004536  0.50405846
   0.70081864  0.31863751  0.60749885
   0.70029897  0.41636353  0.70528284
   0.71693897  0.50959850  0.81018452
   0.70730589  0.60693948  0.90921367
   0.68835513  0.69650991  0.00380161
   0.70461948  0.79434128  0.08874947
   0.70268868  0.89533822  0.21232444
   0.71629153  0.00349746  0.30503036
   0.70324626  0.10495666  0.41699246
   0.79664092  0.19868240  0.61186099
   0.79675217  0.31159879  0.70279316
   0.79380162  0.40647978  0.79878060
   0.80527530  0.49203622  0.90877249
   0.79009787  0.60433924  0.99887489
   0.80603297  0.70974154  0.07963885
   0.81989077  0.80551857  0.18472624
   0.81390984  0.90789111  0.31203824
   0.79994301  0.01229309  0.40713714
   0.81237394  0.09822814  0.50602637
   0.90506069  0.20286893  0.71356449
   0.88191096  0.30935189  0.80897452
   0.89678463  0.40266086  0.90029978
   0.90363029  0.50335742  0.00178279
   0.90593984  0.60647833  0.09911047
   0.90003371  0.71502330  0.19559877
   0.89333522  0.79237074  0.29011954
   0.90127782  0.89590101  0.41275214
   0.89998392  0.99371025  0.50190986
   0.90165766  0.10721100  0.60027723
   0.98530431  0.20291328  0.81075692
   0.00473877  0.31149779  0.91936577
   0.99874412  0.40893559  0.01504792
   0.00684318  0.51753616  0.09177948
   0.99549119  0.61218048  0.18182943
   0.00165648  0.70476423  0.29376632
   0.99758197  0.79871945  0.40667030
   0.99131327  0.89067657  0.51994422
   0.99917644  0.99498359  0.60032870
   0.99765702  0.10557952  0.70514334
   0.08788822  0.18567777  0.90877087
   0.10626858  0.29336341  0.01244813
   0.09652247  0.38901914  0.08446099
   0.10395288  0.47977599  0.19338107
   0.09710085  0.59705317  0.28687928
   0.09049627  0.69244693  0.39908263
   0.10826250  0.80057084  0.50416966
   0.10538464  0.89473934  0.60493420
   0.09266046  0.98733527  0.69544930
   0.09557911  0.11191165  0.79052796
   0.29718300  0.27884062  0.99151319
   0.31226096  0.39648571  0.08964852
   0.30518466  0.49032879  0.19006398
   0.28024296  0.59062999  0.28719331
   0.30226620  0.69651896  0.39246524
   0.29931798  0.79273907  0.47796621
   0.29937513  0.88102960  0.59725314
   0.29709653  0.99134937  0.70351251
   0.29840229  0.10571305  0.78933428
   0.30038166  0.19022496  0.88668871
   0.39509028  0.31913332  0.08604716
   0.40312724  0.38825128  0.18721595
   0.40694170  0.50314118  0.28232910
   0.39117327  0.60197998  0.40385990
   0.40128463  0.71143166  0.50150298
   0.40541254  0.79521507  0.60239841
   0.40689759  0.89645600  0.70058533
   0.41257421  0.00317971  0.79157982
   0.40676579  0.09328371  0.89851732
   0.40148500  0.18780430  0.99773517
   0.50631387  0.31783415  0.18587736
   0.49749284  0.38981474  0.30233488
   0.49181599  0.49562044  0.39158989
   0.51120359  0.59107216  0.49096869
   0.50090110  0.69862552  0.60608583
   0.49714978  0.80641245  0.70361177
   0.50115856  0.89421785  0.78969030
   0.50180206  0.98920393  0.90170625
   0.49703492  0.08126543  0.00052530
   0.51041644  0.19506449  0.09828686
   0.60132407  0.29981068  0.30472776
   0.60668877  0.39447076  0.39386082
   0.61411751  0.50411043  0.49598463
   0.60509504  0.58331209  0.60968100
   0.60535486  0.70248803  0.69816153
   0.60273149  0.79706393  0.80929754
   0.59744816  0.89117431  0.89715935
   0.60153218  0.98556293  0.98944610
   0.60691949  0.10193361  0.08692173
   0.60095248  0.21316777  0.18932373
   0.69117492  0.30069698  0.39453296
   0.70163766  0.41589846  0.49969032
   0.70494912  0.51315189  0.60628960
   0.70403632  0.60022078  0.70750047
   0.71440998  0.70469334  0.79684259
   0.69912995  0.78685920  0.89122103
   0.70361443  0.89076763  0.98080881
   0.69392600  0.98740986  0.08023185
   0.69393166  0.10487767  0.19684984
   0.69331973  0.19401124  0.29493515
   0.78321609  0.30053023  0.49321938
   0.80528418  0.41097019  0.61167391
   0.80463496  0.49525864  0.70301093
   0.79909479  0.60323016  0.80067818
   0.79837131  0.69366069  0.89973175
   0.80165353  0.79387873  0.99234709
   0.81287359  0.89123449  0.10095276
   0.80234925  0.00311073  0.20481542
   0.81404440  0.10573779  0.30240689
   0.78488868  0.20036955  0.40223273
   0.88444348  0.30868916  0.60055556
   0.90227854  0.40212820  0.70981304
   0.90382152  0.49097765  0.79862015
   0.90235002  0.60478175  0.89825123
   0.90881375  0.68808107  0.98924599
   0.91170379  0.79740814  0.07825064
   0.90615643  0.90046153  0.19945392
   0.89664855  0.00660155  0.30130425
   0.89202796  0.10924813  0.42085913
   0.87513924  0.20797994  0.50354169
   0.97994287  0.30294621  0.70342997
   0.00489395  0.39777180  0.80519631
   0.99883380  0.49789753  0.88236633
   0.00393500  0.59828966  0.98378664
   0.99011862  0.71731802  0.08969717
   0.00222107  0.80507407  0.21161827
   0.99853224  0.89913180  0.32171082
   0.98615842  0.01181850  0.41778155
   0.00194066  0.10320156  0.51032949
   0.98914437  0.20806884  0.60248799
   0.10430032  0.30204889  0.81684964
   0.10757619  0.39989248  0.90703611
   0.10983663  0.51178441  0.00246101
   0.09953753  0.61340070  0.09242999
   0.10040152  0.70942956  0.19351037
   0.08435302  0.80822667  0.30571998
   0.08534343  0.90247203  0.40689658
   0.09539308  0.99769703  0.50601748
   0.10255326  0.11949426  0.60899276
   0.08286326  0.22459927  0.70109647
   0.20525177  0.29614305  0.90394624
   0.20797997  0.38323424  0.00134540
   0.20081630  0.49230817  0.09147510
   0.19420934  0.59824727  0.18288915
   0.17912759  0.69280613  0.29604783
   0.19188663  0.78606991  0.39636298
   0.19513544  0.89394809  0.49495070
   0.20479740  0.98878595  0.61473454
   0.19691607  0.09385103  0.69134267
   0.20509982  0.21054422  0.79149653
   0.39148795  0.39725542  0.99071645
   0.38998230  0.50123988  0.10174076
   0.41281105  0.59888158  0.20342722
   0.40469961  0.68501820  0.29264230
   0.38408900  0.79139518  0.37440331
   0.39174852  0.87985952  0.49440941
   0.39469724  0.99926569  0.59872518
   0.39818515  0.09967578  0.70152056
   0.40287357  0.20069405  0.79910359
   0.40577393  0.30499797  0.89040088
   0.48453586  0.40946151  0.09829317
   0.50524444  0.48301923  0.20607620
   0.50592788  0.59080629  0.28977829
   0.48633918  0.68546322  0.40419174
   0.49213034  0.80173920  0.50173768
   0.48738305  0.89787879  0.60199557
   0.49752405  0.00541715  0.69577012
   0.49559665  0.11403940  0.79869768
   0.49676381  0.19967794  0.89903174
   0.49883131  0.30741817  0.99916439
   0.59461606  0.39116889  0.20214492
   0.60921934  0.50028118  0.30369181
   0.59855038  0.59893942  0.39268687
   0.58066256  0.69034361  0.50261614
   0.60293264  0.78768136  0.60325635
   0.60955180  0.89881847  0.69105126
   0.58959363  0.99676063  0.78424088
   0.58668830  0.08949657  0.88864082
   0.58032168  0.19789547  0.99540224
   0.60318587  0.30940285  0.08275869
   0.71342160  0.39160706  0.29760738
   0.71031492  0.49650716  0.39951031
   0.69268036  0.60006815  0.49264070
   0.69971195  0.69214595  0.59146793
   0.70804599  0.79595368  0.68838811
   0.69508491  0.87891169  0.80081487
   0.70397201  0.98495093  0.88223935
   0.70602819  0.09316567  0.98062732
   0.69008032  0.19699988  0.08649929
   0.69238869  0.29845554  0.18614942
   0.80397926  0.40641595  0.38700839
   0.80832864  0.50429413  0.50452543
   0.79828966  0.60128051  0.58743877
   0.79965336  0.68572477  0.69614922
   0.80320855  0.79137964  0.79378136
   0.81477480  0.87695628  0.89109228
   0.81476329  0.98212114  0.99474141
   0.79697285  0.09399123  0.09286621
   0.79317044  0.18519899  0.19636627
   0.80893751  0.27592459  0.29053139
   0.89511266  0.41669899  0.49439159
   0.90547822  0.50569888  0.59716967
   0.89848296  0.58945609  0.70816832
   0.89711736  0.70194678  0.80706328
   0.89683492  0.78990737  0.89947521
   0.90382795  0.88726678  0.99671942
   0.89704450  0.00571115  0.09263502
   0.89635557  0.10085280  0.19446647
   0.89864246  0.20452618  0.30275144
   0.88681186  0.29292903  0.40309077
   0.99480526  0.40922556  0.58976984
   0.00546000  0.51472806  0.71145201
   0.99012245  0.59806059  0.80074211
   0.99382840  0.68396609  0.89294254
   0.00616507  0.79697599  0.99702350
   0.99566724  0.90581602  0.09691285
   0.99641828  0.98945786  0.20924350
   0.99229391  0.11264260  0.29456368
   0.98015339  0.20870789  0.41701149
   0.98690069  0.30420573  0.50447251
   0.09858877  0.40086214  0.69873659
   0.09179803  0.49056141  0.80948612
   0.11301479  0.59931849  0.89513680
   0.08359917  0.68945882  0.99411154
   0.10818187  0.79090291  0.08919251
   0.10093013  0.89925253  0.20316009
   0.08677833  0.00692389  0.31056714
   0.08638873  0.11719206  0.41084578
   0.09815663  0.18940711  0.51876036
   0.10356034  0.29782430  0.59707260
   0.19529356  0.41065252  0.80828248
   0.20175010  0.50283318  0.89750299
   0.20177433  0.60615920  0.00627198
   0.21053348  0.71371830  0.08489001
   0.20927665  0.80096283  0.20697536
   0.19440459  0.90732727  0.32028770
   0.18473062  0.00768237  0.40717536
   0.19590469  0.10867009  0.51751223
   0.19936664  0.21648417  0.61371538
   0.20557443  0.32890046  0.71782782
   0.28973673  0.40321115  0.89615781
   0.30342145  0.49927156  0.01076657
   0.30950141  0.60537259  0.08902019
   0.29167888  0.69989211  0.20289321
   0.28909364  0.78842779  0.29807365
   0.28854760  0.89649196  0.40046671
   0.30418423  0.99772045  0.50371701
   0.29669342  0.10599754  0.59201176
   0.30006174  0.20482979  0.69586937
   0.29658191  0.28954010  0.80075815
