 running on   64 total cores
 distrk:  each k-point on   32 cores,    2 groups
 distr:  one band on   32 cores,    1 groups
 vasp.6.2.1 16May21 (build Nov 23 2021 15:40:41) complex                        
  
 POSCAR found type information on POSCAR Li
 POSCAR found :  1 types and     504 ions
 scaLAPACK will be used
 -----------------------------------------------------------------------------
|                                                                             |
|           W    W    AA    RRRRR   N    N  II  N    N   GGGG   !!!           |
|           W    W   A  A   R    R  NN   N  II  NN   N  G    G  !!!           |
|           W    W  A    A  R    R  N N  N  II  N N  N  G       !!!           |
|           W WW W  AAAAAA  RRRRR   N  N N  II  N  N N  G  GGG   !            |
|           WW  WW  A    A  R   R   N   NN  II  N   NN  G    G                |
|           W    W  A    A  R    R  N    N  II  N    N   GGGG   !!!           |
|                                                                             |
|     For optimal performance we recommend to set                             |
|       NCORE = 2 up to number-of-cores-per-socket                            |
|     NCORE specifies how many cores store one orbital (NPAR=cpu/NCORE).      |
|     This setting can greatly improve the performance of VASP for DFT.       |
|     The default, NCORE=1 might be grossly inefficient on modern             |
|     multi-core architectures or massively parallel machines. Do your        |
|     own testing! More info at https://www.vasp.at/wiki/index.php/NCORE      |
|     Unfortunately you need to use the default for GW and RPA                |
|     calculations (for HF NCORE is supported but not extensively tested      |
|     yet).                                                                   |
|                                                                             |
 -----------------------------------------------------------------------------

 -----------------------------------------------------------------------------
|                                                                             |
|               ----> ADVICE to this user running VASP <----                  |
|                                                                             |
|     You have a (more or less) 'large supercell' and for larger cells it     |
|     might be more efficient to use real-space projection operators.         |
|     Therefore, try LREAL= Auto in the INCAR file.                           |
|     Mind: If you want to do very accurate calculations, keep the            |
|     reciprocal projection scheme (i.e. LREAL=.FALSE.).                      |
|                                                                             |
 -----------------------------------------------------------------------------

 LDA part: xc-table for Pade appr. of Perdew
 POSCAR found type information on POSCAR Li
 POSCAR found :  1 types and     504 ions
 POSCAR, INCAR and KPOINTS ok, starting setup
 FFT: planning ...
 WAVECAR not read
 entering main loop
       N       E                     dE             d eps       ncg     rms          rms(c)
DAV:   1    -0.286061803455E+03   -0.28606E+03   -0.12431E+05  4040   0.661E+02
DAV:   2    -0.898565156847E+03   -0.61250E+03   -0.56168E+03  4628   0.686E+01
DAV:   3    -0.940892967321E+03   -0.42328E+02   -0.38419E+02  5128   0.143E+01
DAV:   4    -0.942316266497E+03   -0.14233E+01   -0.13988E+01  4632   0.283E+00
DAV:   5    -0.942347934230E+03   -0.31668E-01   -0.31599E-01  4816   0.453E-01    0.728E+00
DAV:   6    -0.939938457618E+03    0.24095E+01   -0.64155E+00  4528   0.340E+00    0.588E+00
DAV:   7    -0.937039675101E+03    0.28988E+01   -0.54934E+00  4576   0.331E+00    0.420E+00
DAV:   8    -0.935071695182E+03    0.19680E+01   -0.24096E+00  4568   0.188E+00    0.237E+00
DAV:   9    -0.934907204264E+03    0.16449E+00   -0.13704E+00  4552   0.116E+00    0.182E+00
DAV:  10    -0.934631584169E+03    0.27562E+00   -0.74899E-01  4544   0.891E-01    0.111E+00
DAV:  11    -0.934545399554E+03    0.86185E-01   -0.24984E-01  4424   0.429E-01    0.558E-01
DAV:  12    -0.934551930003E+03   -0.65304E-02   -0.54776E-02  4600   0.251E-01    0.447E-01
DAV:  13    -0.934534995162E+03    0.16935E-01   -0.29428E-02  4592   0.209E-01    0.255E-01
DAV:  14    -0.934531640495E+03    0.33547E-02   -0.80092E-03  4592   0.109E-01    0.143E-01
DAV:  15    -0.934531748281E+03   -0.10779E-03   -0.42065E-03  4592   0.801E-02    0.118E-01
DAV:  16    -0.934530065898E+03    0.16824E-02   -0.22380E-03  4584   0.540E-02    0.455E-02
DAV:  17    -0.934529945378E+03    0.12052E-03   -0.73693E-04  4296   0.228E-02    0.205E-02
DAV:  18    -0.934529910146E+03    0.35232E-04   -0.13776E-04  4424   0.115E-02    0.127E-02
DAV:  19    -0.934529899504E+03    0.10642E-04   -0.27763E-05  3888   0.732E-03    0.111E-02
DAV:  20    -0.934529875940E+03    0.23564E-04   -0.15925E-05  3056   0.560E-03    0.408E-03
DAV:  21    -0.934529870182E+03    0.57577E-05   -0.10427E-05  2128   0.304E-03
   1 F= -.93452987E+03 E0= -.93447250E+03  d E =-.114732E+00
