 432 432   0   0
  0.1915683E+02  0.2022720E-08  0.2022720E-08  0.2022720E-08  0.5000000E-15
  1.000000000000000E-004
  CAR 
 Li                                      
      3.87641531     -3.36950456  301      0.55694332      1.00000000
     -3.370  0.0000E+00  0.0000E+00
     -3.345  0.0000E+00  0.0000E+00
     -3.321  0.0000E+00  0.0000E+00
     -3.297  0.0000E+00  0.0000E+00
     -3.273  0.0000E+00  0.0000E+00
     -3.249  0.0000E+00  0.0000E+00
     -3.225  0.0000E+00  0.0000E+00
     -3.200  0.1649E-11  0.3983E-13
     -3.176  0.5533E-08  0.1337E-09
     -3.152  0.5217E-05  0.1261E-06
     -3.128  0.1397E-02  0.3387E-04
     -3.104  0.1078E+00  0.2637E-02
     -3.080  0.2444E+01  0.6168E-01
     -3.056  0.1671E+02  0.4654E+00
     -3.031  0.3526E+02  0.1317E+01
     -3.007  0.2323E+02  0.1878E+01
     -2.983  0.4937E+01  0.1997E+01
     -2.959  0.4096E+01  0.2096E+01
     -2.935  0.2566E+02  0.2716E+01
     -2.911  0.7026E+02  0.4413E+01
     -2.886  0.8911E+02  0.6566E+01
     -2.862  0.4883E+02  0.7745E+01
     -2.838  0.1050E+02  0.7999E+01
     -2.814  0.9178E+01  0.8220E+01
     -2.790  0.4256E+02  0.9248E+01
     -2.766  0.8745E+02  0.1136E+02
     -2.742  0.7789E+02  0.1324E+02
     -2.717  0.2795E+02  0.1392E+02
     -2.693  0.7751E+01  0.1410E+02
     -2.669  0.2929E+02  0.1481E+02
     -2.645  0.8387E+02  0.1684E+02
     -2.621  0.1166E+03  0.1965E+02
     -2.597  0.7553E+02  0.2148E+02
     -2.572  0.2141E+02  0.2200E+02
     -2.548  0.2157E+02  0.2252E+02
     -2.524  0.8309E+02  0.2452E+02
     -2.500  0.1507E+03  0.2816E+02
     -2.476  0.1441E+03  0.3164E+02
     -2.452  0.7618E+02  0.3348E+02
     -2.428  0.2060E+02  0.3398E+02
     -2.403  0.1639E+02  0.3438E+02
     -2.379  0.5790E+02  0.3578E+02
     -2.355  0.9064E+02  0.3797E+02
     -2.331  0.6273E+02  0.3948E+02
     -2.307  0.2110E+02  0.3999E+02
     -2.283  0.2065E+02  0.4049E+02
     -2.258  0.7136E+02  0.4221E+02
     -2.234  0.1387E+03  0.4556E+02
     -2.210  0.1515E+03  0.4922E+02
     -2.186  0.8885E+02  0.5137E+02
     -2.162  0.3450E+02  0.5220E+02
     -2.138  0.6373E+02  0.5374E+02
     -2.114  0.1509E+03  0.5738E+02
     -2.089  0.2004E+03  0.6222E+02
     -2.065  0.1808E+03  0.6659E+02
     -2.041  0.1059E+03  0.6915E+02
     -2.017  0.3515E+02  0.6999E+02
     -1.993  0.2741E+02  0.7066E+02
     -1.969  0.6296E+02  0.7218E+02
     -1.944  0.8495E+02  0.7423E+02
     -1.920  0.5691E+02  0.7560E+02
     -1.896  0.2113E+02  0.7611E+02
     -1.872  0.4253E+02  0.7714E+02
     -1.848  0.1176E+03  0.7998E+02
     -1.824  0.1733E+03  0.8417E+02
     -1.800  0.1519E+03  0.8784E+02
     -1.775  0.7383E+02  0.8962E+02
     -1.751  0.3124E+02  0.9037E+02
     -1.727  0.7880E+02  0.9228E+02
     -1.703  0.1704E+03  0.9639E+02
     -1.679  0.2157E+03  0.1016E+03
     -1.655  0.1722E+03  0.1058E+03
     -1.630  0.7687E+02  0.1076E+03
     -1.606  0.2709E+02  0.1083E+03
     -1.582  0.6268E+02  0.1098E+03
     -1.558  0.1378E+03  0.1131E+03
     -1.534  0.1549E+03  0.1169E+03
     -1.510  0.9786E+02  0.1192E+03
     -1.486  0.4673E+02  0.1204E+03
     -1.461  0.8501E+02  0.1224E+03
     -1.437  0.1720E+03  0.1266E+03
     -1.413  0.2108E+03  0.1316E+03
     -1.389  0.1713E+03  0.1358E+03
     -1.365  0.8018E+02  0.1377E+03
     -1.341  0.4966E+02  0.1389E+03
     -1.316  0.1199E+03  0.1418E+03
     -1.292  0.1949E+03  0.1465E+03
     -1.268  0.2045E+03  0.1515E+03
     -1.244  0.1339E+03  0.1547E+03
     -1.220  0.5172E+02  0.1559E+03
     -1.196  0.4476E+02  0.1570E+03
     -1.172  0.1064E+03  0.1596E+03
     -1.147  0.1470E+03  0.1631E+03
     -1.123  0.1234E+03  0.1661E+03
     -1.099  0.6272E+02  0.1676E+03
     -1.075  0.2436E+02  0.1682E+03
     -1.051  0.5869E+02  0.1696E+03
     -1.027  0.1314E+03  0.1728E+03
     -1.003  0.1526E+03  0.1765E+03
     -0.978  0.1124E+03  0.1792E+03
     -0.954  0.9008E+02  0.1814E+03
     -0.930  0.1573E+03  0.1852E+03
     -0.906  0.2361E+03  0.1909E+03
     -0.882  0.2659E+03  0.1973E+03
     -0.858  0.2501E+03  0.2034E+03
     -0.833  0.1845E+03  0.2078E+03
     -0.809  0.1081E+03  0.2104E+03
     -0.785  0.1325E+03  0.2136E+03
     -0.761  0.1969E+03  0.2184E+03
     -0.737  0.1845E+03  0.2228E+03
     -0.713  0.1267E+03  0.2259E+03
     -0.689  0.6964E+02  0.2276E+03
     -0.664  0.5292E+02  0.2289E+03
     -0.640  0.1141E+03  0.2316E+03
     -0.616  0.1768E+03  0.2359E+03
     -0.592  0.1579E+03  0.2397E+03
     -0.568  0.9179E+02  0.2419E+03
     -0.544  0.9368E+02  0.2442E+03
     -0.519  0.1723E+03  0.2483E+03
     -0.495  0.2230E+03  0.2537E+03
     -0.471  0.2337E+03  0.2594E+03
     -0.447  0.1896E+03  0.2640E+03
     -0.423  0.1255E+03  0.2670E+03
     -0.399  0.1025E+03  0.2695E+03
     -0.375  0.7367E+02  0.2712E+03
     -0.350  0.3206E+02  0.2720E+03
     -0.326  0.3900E+02  0.2730E+03
     -0.302  0.1108E+03  0.2756E+03
     -0.278  0.1909E+03  0.2802E+03
     -0.254  0.2280E+03  0.2858E+03
     -0.230  0.2166E+03  0.2910E+03
     -0.205  0.1833E+03  0.2954E+03
     -0.181  0.1685E+03  0.2995E+03
     -0.157  0.1704E+03  0.3036E+03
     -0.133  0.1768E+03  0.3079E+03
     -0.109  0.1966E+03  0.3126E+03
     -0.085  0.2183E+03  0.3179E+03
     -0.061  0.2272E+03  0.3234E+03
     -0.036  0.2052E+03  0.3283E+03
     -0.012  0.1514E+03  0.3320E+03
      0.012  0.1047E+03  0.3345E+03
      0.036  0.1068E+03  0.3371E+03
      0.060  0.1419E+03  0.3405E+03
      0.084  0.1604E+03  0.3444E+03
      0.109  0.1736E+03  0.3486E+03
      0.133  0.2124E+03  0.3537E+03
      0.157  0.2591E+03  0.3600E+03
      0.181  0.2797E+03  0.3667E+03
      0.205  0.2509E+03  0.3728E+03
      0.229  0.1928E+03  0.3775E+03
      0.253  0.1345E+03  0.3807E+03
      0.278  0.1385E+03  0.3840E+03
      0.302  0.1843E+03  0.3885E+03
      0.326  0.2062E+03  0.3935E+03
      0.350  0.1987E+03  0.3983E+03
      0.374  0.1582E+03  0.4021E+03
      0.398  0.1090E+03  0.4047E+03
      0.423  0.1158E+03  0.4075E+03
      0.447  0.1546E+03  0.4113E+03
      0.471  0.1911E+03  0.4159E+03
      0.495  0.2030E+03  0.4208E+03
      0.519  0.1891E+03  0.4253E+03
      0.543  0.1750E+03  0.4296E+03
      0.567  0.1815E+03  0.4340E+03
      0.592  0.1979E+03  0.4387E+03
      0.616  0.2145E+03  0.4439E+03
      0.640  0.2206E+03  0.4492E+03
      0.664  0.2081E+03  0.4543E+03
      0.688  0.1898E+03  0.4589E+03
      0.712  0.1597E+03  0.4627E+03
      0.737  0.1514E+03  0.4664E+03
      0.761  0.1779E+03  0.4707E+03
      0.785  0.2022E+03  0.4755E+03
      0.809  0.2121E+03  0.4807E+03
      0.833  0.2134E+03  0.4858E+03
      0.857  0.2178E+03  0.4911E+03
      0.881  0.2296E+03  0.4966E+03
      0.906  0.2455E+03  0.5026E+03
      0.930  0.2500E+03  0.5086E+03
      0.954  0.2519E+03  0.5147E+03
      0.978  0.2542E+03  0.5208E+03
      1.002  0.2392E+03  0.5266E+03
      1.026  0.2300E+03  0.5322E+03
      1.051  0.2302E+03  0.5377E+03
      1.075  0.2228E+03  0.5431E+03
      1.099  0.2127E+03  0.5482E+03
      1.123  0.2048E+03  0.5532E+03
      1.147  0.2075E+03  0.5582E+03
      1.171  0.2201E+03  0.5635E+03
      1.195  0.2245E+03  0.5689E+03
      1.220  0.2293E+03  0.5745E+03
      1.244  0.2356E+03  0.5802E+03
      1.268  0.2349E+03  0.5858E+03
      1.292  0.2261E+03  0.5913E+03
      1.316  0.2193E+03  0.5966E+03
      1.340  0.2144E+03  0.6018E+03
      1.364  0.2089E+03  0.6068E+03
      1.389  0.2014E+03  0.6117E+03
      1.413  0.1847E+03  0.6161E+03
      1.437  0.1717E+03  0.6203E+03
      1.461  0.1642E+03  0.6242E+03
      1.485  0.1742E+03  0.6285E+03
      1.509  0.1912E+03  0.6331E+03
      1.534  0.1837E+03  0.6375E+03
      1.558  0.1713E+03  0.6416E+03
      1.582  0.1623E+03  0.6456E+03
      1.606  0.1384E+03  0.6489E+03
      1.630  0.1044E+03  0.6514E+03
      1.654  0.9502E+02  0.6537E+03
      1.678  0.1280E+03  0.6568E+03
      1.703  0.1537E+03  0.6605E+03
      1.727  0.1549E+03  0.6643E+03
      1.751  0.1589E+03  0.6681E+03
      1.775  0.1577E+03  0.6719E+03
      1.799  0.1577E+03  0.6757E+03
      1.823  0.1606E+03  0.6796E+03
      1.848  0.1622E+03  0.6835E+03
      1.872  0.1543E+03  0.6873E+03
      1.896  0.1477E+03  0.6908E+03
      1.920  0.1509E+03  0.6945E+03
      1.944  0.1651E+03  0.6985E+03
      1.968  0.1773E+03  0.7027E+03
      1.992  0.1759E+03  0.7070E+03
      2.017  0.1741E+03  0.7112E+03
      2.041  0.1742E+03  0.7154E+03
      2.065  0.1648E+03  0.7194E+03
      2.089  0.1695E+03  0.7235E+03
      2.113  0.1820E+03  0.7279E+03
      2.137  0.1848E+03  0.7323E+03
      2.162  0.1825E+03  0.7367E+03
      2.186  0.1795E+03  0.7411E+03
      2.210  0.1677E+03  0.7451E+03
      2.234  0.1541E+03  0.7489E+03
      2.258  0.1497E+03  0.7525E+03
      2.282  0.1456E+03  0.7560E+03
      2.306  0.1425E+03  0.7594E+03
      2.331  0.1446E+03  0.7629E+03
      2.355  0.1429E+03  0.7664E+03
      2.379  0.1239E+03  0.7694E+03
      2.403  0.1161E+03  0.7722E+03
      2.427  0.1271E+03  0.7752E+03
      2.451  0.1308E+03  0.7784E+03
      2.476  0.1195E+03  0.7813E+03
      2.500  0.9510E+02  0.7836E+03
      2.524  0.9441E+02  0.7859E+03
      2.548  0.1098E+03  0.7885E+03
      2.572  0.1084E+03  0.7911E+03
      2.596  0.8974E+02  0.7933E+03
      2.620  0.6459E+02  0.7949E+03
      2.645  0.3670E+02  0.7957E+03
      2.669  0.1450E+02  0.7961E+03
      2.693  0.2438E+02  0.7967E+03
      2.717  0.5322E+02  0.7980E+03
      2.741  0.7215E+02  0.7997E+03
      2.765  0.6164E+02  0.8012E+03
      2.790  0.2739E+02  0.8019E+03
      2.814  0.5668E+01  0.8020E+03
      2.838  0.3668E+01  0.8021E+03
      2.862  0.1929E+02  0.8025E+03
      2.886  0.5003E+02  0.8038E+03
      2.910  0.7708E+02  0.8056E+03
      2.934  0.8971E+02  0.8078E+03
      2.959  0.8672E+02  0.8099E+03
      2.983  0.8715E+02  0.8120E+03
      3.007  0.9913E+02  0.8144E+03
      3.031  0.1026E+03  0.8169E+03
      3.055  0.1178E+03  0.8197E+03
      3.079  0.1275E+03  0.8228E+03
      3.104  0.1206E+03  0.8257E+03
      3.128  0.1200E+03  0.8286E+03
      3.152  0.1249E+03  0.8316E+03
      3.176  0.1298E+03  0.8347E+03
      3.200  0.1284E+03  0.8378E+03
      3.224  0.1165E+03  0.8407E+03
      3.248  0.9583E+02  0.8430E+03
      3.273  0.7708E+02  0.8448E+03
      3.297  0.6274E+02  0.8464E+03
      3.321  0.5080E+02  0.8476E+03
      3.345  0.4538E+02  0.8487E+03
      3.369  0.5342E+02  0.8500E+03
      3.393  0.6134E+02  0.8514E+03
      3.418  0.7539E+02  0.8533E+03
      3.442  0.9115E+02  0.8555E+03
      3.466  0.1071E+03  0.8581E+03
      3.490  0.1111E+03  0.8607E+03
      3.514  0.9115E+02  0.8629E+03
      3.538  0.7168E+02  0.8647E+03
      3.562  0.4225E+02  0.8657E+03
      3.587  0.1139E+02  0.8660E+03
      3.611  0.1147E+01  0.8660E+03
      3.635  0.3964E-01  0.8660E+03
      3.659  0.4422E-03  0.8660E+03
      3.683  0.1514E-05  0.8660E+03
      3.707  0.1531E-08  0.8660E+03
      3.731  0.4459E-12  0.8660E+03
      3.756  0.0000E+00  0.8660E+03
      3.780  0.0000E+00  0.8660E+03
      3.804  0.0000E+00  0.8660E+03
      3.828  0.0000E+00  0.8660E+03
      3.852  0.0000E+00  0.8660E+03
      3.876  0.0000E+00  0.8660E+03
