       N       E                     dE             d eps       ncg     rms          rms(c)
DAV:   1    -0.225650936910E+03   -0.22565E+03   -0.10646E+05  3464   0.661E+02
DAV:   2    -0.758458889728E+03   -0.53281E+03   -0.48690E+03  3996   0.688E+01
DAV:   3    -0.795667764816E+03   -0.37209E+02   -0.33956E+02  4368   0.144E+01
DAV:   4    -0.796879548131E+03   -0.12118E+01   -0.11954E+01  3952   0.286E+00
DAV:   5    -0.796907105094E+03   -0.27557E-01   -0.27524E-01  4120   0.457E-01    0.900E+00
DAV:   6    -0.794651869751E+03    0.22552E+01   -0.10044E+01  3992   0.510E+00    0.764E+00
DAV:   7    -0.786856545132E+03    0.77953E+01   -0.88175E+00  4032   0.453E+00    0.411E+00
DAV:   8    -0.785181687049E+03    0.16749E+01   -0.41562E+00  3920   0.219E+00    0.227E+00
DAV:   9    -0.784834070705E+03    0.34762E+00   -0.21938E+00  3728   0.122E+00    0.112E+00
DAV:  10    -0.784871595952E+03   -0.37525E-01   -0.35028E-01  4104   0.681E-01    0.955E-01
DAV:  11    -0.784777029232E+03    0.94567E-01   -0.14661E-01  3992   0.469E-01    0.476E-01
DAV:  12    -0.784771067516E+03    0.59617E-02   -0.45527E-02  3800   0.192E-01    0.225E-01
DAV:  13    -0.784770027510E+03    0.10400E-02   -0.11439E-02  3816   0.117E-01    0.135E-01
DAV:  14    -0.784769249121E+03    0.77839E-03   -0.26937E-03  3872   0.727E-02    0.928E-02
DAV:  15    -0.784768508581E+03    0.74054E-03   -0.10645E-03  3824   0.394E-02    0.342E-02
DAV:  16    -0.784768463286E+03    0.45295E-04   -0.53342E-04  3720   0.195E-02    0.148E-02
DAV:  17    -0.784768460163E+03    0.31230E-05   -0.65179E-05  4104   0.101E-02
   1 F= -.78476846E+03 E0= -.78472745E+03  d E =-.820139E-01
