Li                                      
           1
    20.227200    0.000000    0.000000
     0.000000   20.227200    0.000000
     0.000000    0.000000   20.227200
   Li
   432
Direct configuration=     1
   0.99530864  0.00906256  0.00185111
   0.89358960  0.06115069  0.07146227
   0.82926403  0.14470561  0.16978565
   0.74421017  0.26038718  0.24930072
   0.65066031  0.35247021  0.32685453
   0.58563802  0.41063963  0.41093216
   0.52480264  0.51196688  0.48659321
   0.40469430  0.57454091  0.56561853
   0.33281691  0.67020859  0.66726410
   0.24766086  0.76573213  0.74443112
   0.17371747  0.83074335  0.83468707
   0.07981540  0.91180264  0.92077165
   0.08439069  0.92259152  0.06487119
   0.99693791  0.99172263  0.16916730
   0.93946631  0.08707819  0.25772150
   0.82788811  0.16257305  0.33478774
   0.75480032  0.27725696  0.41382674
   0.66870040  0.32979390  0.48745448
   0.57564017  0.40114268  0.56114000
   0.48691919  0.49679820  0.65778789
   0.42361506  0.58352982  0.73762033
   0.35560818  0.67180974  0.81059470
   0.24377518  0.74510581  0.90097461
   0.18125981  0.81734535  0.01086902
   0.15997524  0.82969774  0.16904130
   0.06983527  0.90276329  0.25541643
   0.99862474  0.99157670  0.35128574
   0.90435670  0.07098067  0.39716857
   0.82746246  0.16466839  0.49357430
   0.73809005  0.24892283  0.58586416
   0.65195741  0.33496397  0.65379496
   0.59405328  0.41525200  0.73865023
   0.50896880  0.49729945  0.82187795
   0.40997054  0.58090605  0.89761796
   0.33094392  0.68256796  0.97995503
   0.25609750  0.76075891  0.08679846
   0.26047078  0.75214724  0.24705956
   0.16425746  0.82604355  0.35362204
   0.08097879  0.92094999  0.42748993
   0.98501151  0.98940171  0.47624040
   0.91115275  0.06370794  0.56039356
   0.85035265  0.15542180  0.65820555
   0.75991123  0.23983032  0.73502889
   0.65349249  0.32919489  0.81855423
   0.58536989  0.40620131  0.92530652
   0.51875965  0.52218486  0.97065491
   0.40532905  0.58426752  0.05891254
   0.32532672  0.68237394  0.16690473
   0.32942152  0.66320504  0.32973083
   0.27039480  0.74696834  0.41729981
   0.17739514  0.81873970  0.49619854
   0.07695580  0.90130511  0.57466910
   0.98405488  0.99571127  0.63898021
   0.90816171  0.08000696  0.75727151
   0.84871550  0.16871906  0.84192037
   0.74502337  0.22809333  0.92134415
   0.67866480  0.31786220  0.00957193
   0.58587233  0.43808216  0.06895501
   0.49696802  0.50831548  0.16390208
   0.41356244  0.58985364  0.22768429
   0.42236652  0.58030192  0.42918688
   0.31682895  0.68922382  0.50633430
   0.23054528  0.75710519  0.59061786
   0.16321875  0.83496574  0.66645255
   0.07196622  0.93036539  0.74020633
   0.01332174  0.00105350  0.83751513
   0.90148704  0.07533017  0.92245458
   0.81480076  0.16304821  0.01010011
   0.75991600  0.23437615  0.08545384
   0.65923790  0.35490483  0.15071300
   0.57083493  0.42431121  0.25631546
   0.50665780  0.50871058  0.34476309
   0.07374541  0.08594247  0.92772192
   0.96940228  0.16637135  0.03458572
   0.89639657  0.24154174  0.09269983
   0.83454057  0.35325632  0.18391255
   0.76144490  0.41828524  0.26412215
   0.66625918  0.51767710  0.34641393
   0.58489854  0.59239911  0.39636602
   0.52178659  0.66231774  0.51835571
   0.43746419  0.75803929  0.59138610
   0.34026295  0.82078949  0.66452696
   0.23945296  0.89371546  0.76722544
   0.16911734  0.98683089  0.85121539
   0.16786552  0.99264702  0.99531009
   0.08406957  0.06415503  0.07268888
   0.00977484  0.16791919  0.13508394
   0.92695259  0.22569866  0.25150491
   0.84831009  0.32311707  0.34482250
   0.77238674  0.43161845  0.41935605
   0.66431312  0.52163376  0.50900963
   0.57478462  0.59964649  0.59519031
   0.49185325  0.65852179  0.65929824
   0.43598155  0.77127360  0.75950566
   0.35122342  0.83445258  0.83687243
   0.26534714  0.89623880  0.92192097
   0.24583393  0.91138748  0.08347970
   0.16438742  0.01361141  0.16886712
   0.06974893  0.07027147  0.25133406
   0.00794785  0.14087044  0.33307077
   0.92339790  0.24310270  0.41951137
   0.84891466  0.32977447  0.52084305
   0.73112304  0.40985563  0.59248759
   0.65275043  0.49747285  0.67617672
   0.59013815  0.58518932  0.74483225
   0.51416644  0.65924414  0.82516310
   0.44589842  0.73713642  0.91293883
   0.35392743  0.83679794  0.98665537
   0.34390465  0.83497882  0.16186674
   0.26735414  0.92092906  0.25472365
   0.17420212  0.99170595  0.32830014
   0.10745877  0.08129931  0.42823703
   0.00821182  0.14934277  0.48365972
   0.91888438  0.23210523  0.59673020
   0.84878045  0.33054541  0.68822204
   0.75361809  0.39820888  0.75931213
   0.66814016  0.50799690  0.84169603
   0.60604516  0.58911778  0.90877638
   0.52556177  0.64909714  0.98106105
   0.42845990  0.74896093  0.08511496
   0.43703694  0.76539454  0.25846046
   0.34542959  0.82268200  0.33979996
   0.26539998  0.90671714  0.43036849
   0.17448224  0.97725513  0.51461963
   0.08578435  0.07644108  0.57337578
   0.98923217  0.15394980  0.67965720
   0.91726367  0.23625784  0.75415838
   0.84788263  0.31578752  0.85576285
   0.73582531  0.41984607  0.91515176
   0.66046111  0.49145752  0.00334621
   0.59883003  0.57337289  0.09631088
   0.49850042  0.66451935  0.15431451
   0.49809017  0.66011860  0.33561199
   0.41546388  0.75437669  0.42173534
   0.31999328  0.84005540  0.50647009
   0.24653352  0.91614572  0.59586910
   0.17226742  0.99706324  0.67633564
   0.07643088  0.08361474  0.76476562
   0.99375107  0.15634082  0.85334349
   0.92581915  0.26993742  0.95950808
   0.80056089  0.34318179  0.99818646
   0.74066169  0.42627345  0.08183925
   0.67491222  0.49314302  0.20018738
   0.59070249  0.57707434  0.26203797
   0.16290361  0.16664182  0.85131592
   0.06456899  0.23783951  0.92258353
   0.99278896  0.32846313  0.04105925
   0.89849969  0.42597163  0.09491233
   0.81809553  0.53237461  0.19906180
   0.73625357  0.60866388  0.24639995
   0.66973907  0.66216960  0.33780785
   0.57768419  0.74637883  0.40682832
   0.52221842  0.83189039  0.49218761
   0.42297869  0.93213263  0.57329370
   0.30982234  0.99311772  0.66874730
   0.26188790  0.07580081  0.76450279
   0.25301477  0.07160882  0.91453116
   0.15617782  0.16582063  0.00053946
   0.10969553  0.26046374  0.08446369
   0.99585580  0.34157690  0.15810168
   0.91093669  0.43398842  0.26218959
   0.83319291  0.53766007  0.32657254
   0.73497050  0.60402920  0.43913524
   0.63641916  0.65861490  0.51624053
   0.57383185  0.76283478  0.58690887
   0.49575427  0.84907898  0.67208256
   0.41255389  0.93629232  0.72659798
   0.32268158  0.99080526  0.82615089
   0.33856615  0.99121901  0.99265626
   0.23457360  0.09474309  0.06550610
   0.18853737  0.16372618  0.16292909
   0.07235398  0.25943244  0.22319023
   0.99404307  0.32894095  0.33866220
   0.91415183  0.40198298  0.41887265
   0.84078875  0.49249931  0.52124705
   0.75852500  0.57411067  0.59523343
   0.67371586  0.66608158  0.68460396
   0.57940212  0.74938229  0.73881555
   0.48904144  0.83647422  0.83181681
   0.43182801  0.92016153  0.92035948
   0.42710574  0.91803818  0.08845709
   0.32841239  0.01877434  0.14623195
   0.26588877  0.08455709  0.25605539
   0.16515680  0.15783627  0.30634228
   0.07993982  0.21131304  0.39247431
   0.99135054  0.31901986  0.52588102
   0.91243223  0.39851510  0.58870427
   0.81106633  0.49376117  0.69659467
   0.73790712  0.57729713  0.75850492
   0.68299483  0.67721037  0.82903806
   0.57277928  0.76875361  0.90852796
   0.49108434  0.85473886  0.00140118
   0.48478272  0.84863787  0.18217809
   0.39446649  0.93263345  0.25718851
   0.33856140  0.01411047  0.34209575
   0.24475452  0.09410879  0.41217151
   0.17303360  0.15938803  0.48841434
   0.08377523  0.22956047  0.56427402
   0.99255805  0.32086788  0.68178817
   0.91377457  0.40618501  0.77024998
   0.84303237  0.50796178  0.84097713
   0.75833323  0.60058919  0.92862848
   0.66302938  0.69186199  0.00472748
   0.56648261  0.76300858  0.08112305
   0.57480997  0.74448983  0.24631307
   0.50802825  0.85785727  0.35021506
   0.40704120  0.92625379  0.43256183
   0.32918530  0.01262053  0.50986800
   0.22291607  0.07817162  0.59152919
   0.18472886  0.16762300  0.67983590
   0.05943646  0.22367903  0.76146355
   0.97672681  0.32950382  0.84446715
   0.91186334  0.42344846  0.94006761
   0.81197513  0.50119194  0.96923832
   0.74767326  0.59552737  0.08479301
   0.66290996  0.68269073  0.16179071
   0.23532781  0.24149340  0.74539358
   0.14117394  0.34793288  0.83388971
   0.05426835  0.43155848  0.95385104
   0.97907574  0.52551239  0.01759219
   0.86941860  0.60066190  0.09182611
   0.83252047  0.69833377  0.18171051
   0.72568526  0.76293575  0.24095906
   0.63604225  0.83038991  0.32332009
   0.60758921  0.93573429  0.42168225
   0.51244478  0.99126924  0.49185543
   0.42487825  0.08436767  0.56249069
   0.32570408  0.14493004  0.68061018
   0.32278096  0.17128686  0.85636614
   0.22390592  0.25618653  0.92216444
   0.16169569  0.35316635  0.99774657
   0.08013385  0.43721837  0.09211268
   0.97340214  0.51539231  0.16950910
   0.93378948  0.60501090  0.24764674
   0.83406924  0.66463008  0.31989751
   0.73284640  0.72948102  0.41474803
   0.67181532  0.83765156  0.50044630
   0.58185163  0.92736579  0.58048159
   0.51029866  0.03881559  0.65557352
   0.39970554  0.09520172  0.74934899
   0.41753475  0.09980220  0.92520203
   0.32475594  0.18402070  0.99740339
   0.24215590  0.28232298  0.06911299
   0.17233644  0.34893820  0.15621686
   0.05654514  0.40856616  0.25744940
   0.98217930  0.51935894  0.34450941
   0.90309484  0.57845601  0.42638907
   0.82627291  0.66008806  0.50661543
   0.73708328  0.75300440  0.59477548
   0.65493397  0.84835499  0.66326741
   0.57304825  0.91764528  0.75033583
   0.48670766  0.02761663  0.83542466
   0.51210073  0.00066998  0.99586536
   0.42576382  0.08778446  0.07438011
   0.33059009  0.18012575  0.14105098
   0.27079855  0.27540058  0.24517382
   0.16720172  0.31745610  0.34054868
   0.06924498  0.42430646  0.42786196
   0.99086526  0.49545054  0.49617364
   0.92539291  0.58120473  0.60616456
   0.82998056  0.66356220  0.68517728
   0.76616774  0.75484994  0.75780539
   0.66503777  0.83401621  0.81844643
   0.58777666  0.91861945  0.91635023
   0.59616822  0.91118377  0.09566018
   0.50298143  0.01049990  0.18145863
   0.41587392  0.09922028  0.25753410
   0.32847020  0.17853083  0.35046496
   0.24331826  0.24767114  0.41566432
   0.14573422  0.32039876  0.50123631
   0.08317858  0.40080796  0.59193584
   0.98666945  0.48460718  0.66884144
   0.93647315  0.58662972  0.74321555
   0.85437089  0.66610168  0.84599949
   0.75476444  0.75230147  0.90440052
   0.67655989  0.82807217  0.99629499
   0.66813935  0.83869674  0.17910954
   0.56713622  0.92953548  0.24418050
   0.51017494  0.00479165  0.32073712
   0.42366258  0.07731638  0.43046481
   0.31385685  0.16236283  0.49437095
   0.24640349  0.25140792  0.58961208
   0.15521735  0.30985387  0.68199961
   0.08042834  0.41087880  0.74717980
   0.99290618  0.49649918  0.84623079
   0.92065228  0.59470896  0.92062665
   0.83759678  0.67924426  0.98663657
   0.74558832  0.75353597  0.06400084
   0.33285876  0.31274075  0.66936893
   0.25741302  0.40446932  0.74167759
   0.16698175  0.48176674  0.82805739
   0.07440657  0.57868277  0.93935690
   0.99751395  0.67642937  0.01108888
   0.90035442  0.76278803  0.07365382
   0.83493230  0.85854902  0.17120018
   0.74468141  0.89944948  0.26588303
   0.67098353  0.99780065  0.30959828
   0.59538397  0.07456373  0.40351796
   0.49962805  0.16168954  0.48962928
   0.40559980  0.22285341  0.57550611
   0.39519945  0.23782449  0.74854393
   0.32909059  0.32639232  0.82085685
   0.27316778  0.42486986  0.90669107
   0.15712770  0.50460299  0.00556595
   0.09245121  0.58343557  0.09332277
   0.99252848  0.69356013  0.15851752
   0.93517555  0.75565385  0.23113489
   0.82667746  0.80809401  0.32063322
   0.74789405  0.89980742  0.39702880
   0.69229287  0.01947499  0.50571298
   0.58767610  0.07651443  0.57323899
   0.49733947  0.15561739  0.67848958
   0.48449698  0.16285577  0.81679652
   0.42333556  0.26256680  0.91150207
   0.36529137  0.31963685  0.98268942
   0.25834824  0.41437273  0.05928344
   0.17982251  0.49603659  0.17090307
   0.09470770  0.59113447  0.24423612
   0.02038914  0.66668248  0.32703887
   0.91714316  0.71370259  0.40165062
   0.83539252  0.82578626  0.48070428
   0.77199007  0.92381160  0.56221693
   0.65514736  0.00458651  0.67311602
   0.58441337  0.08861528  0.74206444
   0.57179332  0.10104756  0.91081654
   0.51432691  0.15768575  0.01530830
   0.41279001  0.25028617  0.09130773
   0.33670807  0.35148302  0.15489790
   0.25590229  0.41124273  0.26375655
   0.16169803  0.48742368  0.34634328
   0.08471857  0.59793732  0.42267096
   0.99148758  0.66344142  0.52318450
   0.90269907  0.76282034  0.58572442
   0.82146441  0.85300573  0.66900099
   0.73380341  0.93027044  0.73865248
   0.65933242  0.99771157  0.83552462
   0.66072822  0.97861077  0.99498633
   0.59552737  0.06590566  0.07893823
   0.50269386  0.14921444  0.15196297
   0.42493740  0.24778873  0.25248229
   0.34118201  0.37003027  0.34153894
   0.24013204  0.43065250  0.43255720
   0.16697836  0.51391239  0.51531686
   0.07575782  0.56897392  0.57431100
   0.02192824  0.67914168  0.65894544
   0.92161289  0.76009446  0.73538330
   0.85082790  0.85868023  0.83849441
   0.74570989  0.91687328  0.90684214
   0.74119560  0.91856916  0.07896099
   0.67055843  0.97960305  0.18649445
   0.61638355  0.10391085  0.24258107
   0.51436473  0.14284014  0.34192412
   0.41990960  0.23798466  0.40548517
   0.31793586  0.31976558  0.49814380
   0.24220168  0.41563816  0.59316429
   0.14923179  0.48088234  0.65695543
   0.08407616  0.55720150  0.73794948
   0.01777379  0.66455206  0.83852698
   0.93609622  0.74816851  0.92379865
   0.83118909  0.84481269  0.98848754
   0.40500853  0.40826098  0.59013528
   0.34572762  0.47786730  0.67234782
   0.27971037  0.57348770  0.73558603
   0.16852119  0.64553171  0.81975072
   0.09107869  0.75023759  0.92061849
   0.99175646  0.84457633  0.00408316
   0.92108351  0.92704008  0.07955617
   0.83972159  0.97839459  0.19717575
   0.76623172  0.06697858  0.28532519
   0.68975559  0.17583052  0.33366067
   0.56581104  0.24918842  0.41205416
   0.48239637  0.32568023  0.50362456
   0.50002738  0.31817409  0.67625207
   0.42248834  0.38322583  0.75143699
   0.33839931  0.49157156  0.81006487
   0.27013896  0.57190144  0.90489271
   0.16852043  0.65735074  0.99839808
   0.08718894  0.73998593  0.08490628
   0.99749380  0.83339026  0.15555846
   0.94325592  0.90025989  0.26915023
   0.85448142  0.99018574  0.32673834
   0.74880262  0.07212230  0.38765333
   0.66413112  0.17236934  0.48458582
   0.57268394  0.25491386  0.56570399
   0.56227706  0.24350647  0.75308871
   0.50779834  0.33331581  0.82922631
   0.42957904  0.41519997  0.91000213
   0.34939330  0.49065530  0.96816865
   0.27036266  0.58102931  0.05195955
   0.17891955  0.66156811  0.16153192
   0.09608119  0.73175087  0.25097367
   0.01152962  0.80722826  0.32522802
   0.90968356  0.90275549  0.39541271
   0.82731871  0.00544019  0.48291875
   0.74530000  0.10011033  0.56453362
   0.66523048  0.18113372  0.64516529
   0.66706469  0.17085800  0.82488934
   0.58804331  0.23150279  0.89015909
   0.50524062  0.33370904  0.99182348
   0.43082768  0.43180277  0.06335838
   0.34140734  0.50603914  0.14897906
   0.25936136  0.58864611  0.25894492
   0.18255783  0.66511250  0.32387345
   0.07928809  0.73753615  0.44608621
   0.98658969  0.83965644  0.48805094
   0.88132240  0.91997081  0.57848962
   0.81852837  0.01040994  0.66538113
   0.74302467  0.10022432  0.74910227
   0.76042834  0.09805271  0.91276916
   0.68663950  0.16155847  0.00082389
   0.59110947  0.23924306  0.08993862
   0.50596144  0.34485935  0.15813350
   0.42066343  0.42433422  0.22181389
   0.36029876  0.49433976  0.32743221
   0.25923477  0.58720584  0.41887095
   0.18394175  0.65992428  0.51701385
   0.07996809  0.76126179  0.58661405
   0.99083583  0.85507883  0.66981423
   0.90331905  0.92993078  0.75230684
   0.81833661  0.01044285  0.84312290
   0.81728014  0.99221334  0.98752346
   0.75057737  0.04604374  0.09714960
   0.68111614  0.16328524  0.15777205
   0.60291274  0.25322506  0.24307029
   0.48663688  0.31948751  0.31807505
   0.43168810  0.42066763  0.42798712
   0.32413614  0.48540429  0.49908432
   0.26590758  0.56530275  0.60508925
   0.18456550  0.64890016  0.66310327
   0.08403254  0.73637231  0.75081062
   0.01302951  0.83405593  0.82643728
   0.93426936  0.93088138  0.91888404
