432
Lattice="20.0208 0.0 0.0 0.0 20.0208 0.0 0.0 0.0 20.0208" Properties=species:S:1:pos:R:3:forces:R:3 label=bcc_0_20 energy=-799.45844156 stress="-0.011669196109393135 0.00019938690644511498 2.6712117406026254e-05 0.00019938690644511498 -0.010960467305553135 -0.00014102305392971068 2.6712117406026254e-05 -0.00014102305392971068 -0.011451434749334223" pbc="T T T"
Li       0.30620332       0.10688805       0.10284525      -0.46463445      -0.12495569      -0.15651235
Li      18.24131746       1.51853123       1.81610178       0.29368265       0.30310579      -0.37499414
Li      17.03608532       3.54584925       3.20762627      -0.48989004      -0.19498357      -0.03537804
Li      15.27228588       5.38257987       4.93834194      -0.29842856      -0.43226153      -0.07691289
Li      13.55598538       6.76446173       6.83589635      -0.03383159       0.04899595      -0.02368053
Li      11.54247330       8.48974616       8.36255422       0.02559243      -0.31376628      -0.06653011
Li       9.95152964       9.97777210      10.15135104       0.09720931       0.19876290      -0.08067698
Li       8.42534786      12.11748249      11.70248474      -0.16310080      -0.40738744       0.10481149
Li       6.55554629      13.39113111      13.66003508       0.28681567       0.12034600       0.00248179
Li       4.94533941      15.22682985      15.45754655       0.25848415      -0.25091643      -0.18031446
Li       3.59278421      16.82587273      16.88229855      -0.18726452       0.02938374       0.26078759
Li       1.66385041      18.30513756      18.46117287      -0.05485755      -0.12796658       0.02947988
Li       1.61329548      18.30391509       1.66702651      -0.08345213       0.01877434       0.28519959
Li      19.90452580       0.01959035       3.55923015      -0.07850816      -0.20719390      -0.00165768
Li      18.19049346       1.73726588       5.12464329      -0.14217683      -0.23871514      -0.07393128
Li      16.52220304       3.52635340       6.65350586       0.07262998      -0.11694523       0.17629606
Li      15.25146164       5.19829461       8.73407961       0.14483766      -0.46423688      -0.31238598
Li      13.87123870       6.73470021      10.03668991      -0.93662389      -0.09960074       0.14451795
Li      11.95765024       8.41285788      11.94939166      -0.14582090      -0.16954058      -0.20075538
Li      10.03556414       9.94992137      13.30162131      -0.04283692       0.15254690       0.03026754
Li       8.48719311      11.61545713      15.12056685       0.08858003       0.41777772      -0.33832813
Li       6.86891325      13.35962437      16.97561850      -0.22041523       0.07070309      -0.36668720
Li       4.98878094      14.81127092      18.77291675       0.08773472       0.20178522      -0.19596859
Li       3.34182589      16.60702736       0.23236201      -0.21027265       0.05170391      -0.44192968
Li       3.34744733      16.92904952       3.49227880       0.02380212      -0.35363402      -0.12881471
Li       1.72764849      18.37628508       4.93541810      -0.15642805       0.06224554       0.20322876
Li      19.84733098      19.95529815       6.69358189       0.06084920      -0.06166046       0.09006165
Li      18.19036212       1.68450927       8.38307834       0.11314898      -0.09886336       0.12557957
Li      16.82255008       3.44194230      10.28800721      -0.27238035      -0.27323924       0.17201011
Li      14.90021733       4.95054542      11.80259555       0.20392528      -0.11350647      -0.11458385
Li      13.65849628       6.62879038      13.64540348      -0.45212352      -0.31860077      -0.21087351
Li      11.84763174       8.34265194      15.07702962      -0.08149533       0.10006481       0.02508143
Li       9.79316251       9.96483206      16.80570618       0.24462839      -0.16164004      -0.04613073
Li       8.19699161      11.52289136      18.50828262       0.02957254       0.18499409       0.02222958
Li       6.60399362      13.22435404       0.42872942       0.21507891      -0.04789486      -0.63651646
Li       4.77413875      14.91106179       1.63802217       0.11455402       0.09287556       0.41371069
Li       4.87161341      14.88358725       5.16987188       0.02735243      -0.10238529      -0.20842932
Li       3.46709223      16.72895724       6.73094751      -0.06245702       0.03799029      -0.33960050
Li       1.90262067      18.33936552       8.38787673      -0.08615121      -0.00408141       0.00353374
Li       0.22809818      19.73516745      10.07019092      -0.44932486      -0.01158524       0.09118621
Li      18.25378301       1.43128959      11.74876802       0.22688302       0.17221019       0.07726055
Li      16.64564308       3.21929679      13.77590826       0.02590546      -0.03383178      -0.86262218
Li      15.31172565       4.62397974      15.39534372      -0.13330131       0.79856540      -0.27822683
Li      13.43607120       6.33217262      16.74364650       0.08198092       0.48040212      -0.09546256
Li      11.70827055       8.44824605      18.46418560       0.02249041      -0.00695915      -0.04679732
Li       9.96298854      10.08939227      19.98356992      -0.08264915      -0.19817023      -0.05374745
Li       8.39895444      11.47997857       1.75288591      -0.08195043       0.19259652       0.03167683
Li       6.42971976      13.16796145       3.35040640       0.22167887       0.39080613       0.40871229
Li       6.88396308      13.12088574       6.80140311      -0.30874509       0.36672803      -0.24299747
Li       4.96257832      14.83313904       8.21808693       0.06623385       0.00638747       0.19173955
Li       3.60891778      16.49625588      10.28203681      -0.21227459       0.18792071      -0.37558922
Li       1.85752101      18.04952921      11.66074598      -0.05165761       0.16304489       0.06170829
Li       0.02511569      19.66506001      13.29114623       0.16657242       0.09425324      -0.20587882
Li      18.45388430       1.49850743      14.84382234       0.19967777      -0.11938653       0.06821713
Li      16.79430513       2.97063986      16.32320109       0.25033981      -0.11963566       0.82381442
Li      15.11838499       4.92605858      18.29543949       0.06979069      -0.02725537       0.06510854
Li      13.57961152       6.99629238      19.78935515      -0.11320020      -0.26122458       0.17891952
Li      11.63944925       8.77608525       1.66340154      -0.14023424      -0.45713427      -0.18516351
Li       9.83013472       9.90238398       3.48749763       0.22668346       0.17702276       0.13834827
Li       8.28887127      11.95612025       4.98057021       0.17260418      -0.24336598      -0.14889881
Li       8.45309589      11.73147246       8.20943614       0.11311360      -0.23733475       0.15097943
Li       6.80974518      13.41183261       9.78506910      -0.11887605       0.04833560       0.28857202
Li       5.04839848      14.98587091      11.58993501       0.39549645      -0.14698835       0.14665209
Li       3.41697036      16.68983059      13.47002988       0.27361503      -0.20274685      -0.17464468
Li       1.93361167      18.11471293      15.06118496      -0.23634578       0.17815408       0.09523603
Li       0.27089724      19.95478542      16.37751052      -0.36336392      -0.16470120       0.15757530
Li      18.53220087       1.63690181      18.15773503      -0.31238343      -0.43400875      -0.41362356
Li      16.99566032       3.45758455      19.75883684      -0.35263456      -0.25810579       0.10901085
Li      15.22701785       5.28414680       1.92056031      -0.32972894      -0.34393493      -0.21981406
Li      13.44474581       6.92701621       3.37500476      -0.14673411      -0.02794312      -0.19372943
Li      11.61290367       8.36705590       5.32533379       0.25181884      -0.00408613      -0.13608379
Li       9.82138082       9.98542685       6.56473363      -0.07228022       0.00245226      -0.05129212
Li       1.49724291       1.53116796      18.08056225       0.19965132       0.14472634       0.29427992
Li      19.89548601       2.99156219      19.55529578       0.31429367       0.45950143       0.65732368
Li      18.65625755       4.75017825       1.34037094       0.12007828       0.21190040       0.34626691
Li      16.80099188       6.89010627       3.26448314       0.45642805       0.06992313      -0.17350032
Li      15.25540774       8.28374274       4.81479679      -0.19295086       0.22848466       0.44384437
Li      13.54025944      10.10120674       6.87087929      -0.12992470      -0.21194668      -0.12888379
Li      11.56197336      11.56495205       8.22733574       0.07841900       0.08157029       0.08200486
Li       9.95558525      13.29463165       9.82120804       0.14282298      -0.00988064       0.14424288
Li       8.23205144      15.13746301      11.74516528       0.12874602      -0.00177495      -0.07000738
Li       6.62897157      16.59811791      13.49435815      -0.09281806       0.15558025       0.03375967
Li       5.16915113      18.64623093      15.07416685      -0.20183329      -0.21546776       0.16134796
Li       3.12505648      20.01062463      17.05357449       0.56998894      -0.24659256      -0.35608068
Li       3.10582530       0.23817404       0.26723564       0.04570788      -0.34899450      -0.26355866
Li       1.27506589       1.76467756       1.95303124       0.25712742      -0.14039804      -0.45167853
Li      19.97870206       3.11601329       3.47692805      -0.17315522       0.26422423       0.14011621
Li      18.35365677       4.92721118       4.90356641       0.08388473       0.23355821       0.20268973
Li      16.83981641       6.45409789       6.72961593       0.14819021       0.24959439       0.13530167
Li      15.23776601       8.15155641       8.51542604       0.16580602       0.36016081      -0.24363087
Li      13.25073865       9.89258400       9.78139568       0.34854795       0.10688694       0.19307264
Li      11.87626068      11.56476506      11.51088749      -0.21412278      -0.03949488       0.16826982
Li      10.16556801      13.28648839      13.35451547      -0.20636439       0.14607262       0.03975578
Li       8.60920027      15.33512296      14.96961523      -0.15864776      -0.29379053       0.19697876
Li       6.68112175      17.08947919      16.99532397       0.17227698      -0.45622831      -0.24792407
Li       5.23720984      18.53459375      18.56171933      -0.38584211      -0.01697611       0.16662365
Li       4.77708501      18.18732116       1.63369107       0.23180275       0.45127636      -0.15765802
Li       3.26396880       0.12331672       3.19746411      -0.17547740      -0.09134975       0.16765526
Li       1.70669472       1.59420485       5.22170934      -0.21857311      -0.10873705       0.04075450
Li      19.69711752       3.19478993       6.79320259       0.34262890       0.21919165      -0.15698964
Li      18.42298079       4.67651632       8.63712608      -0.07537439       0.38506158      -0.25896157
Li      16.91984676       6.67444601      10.44577592      -0.08972500       0.06442204      -0.17279811
Li      14.78650159       8.33190298      11.73353940       0.48475380       0.23948568       0.13240233
Li      13.66641831      10.16361818      13.41139656      -0.19517951       0.05123173       0.02448720
Li      11.59459305      11.88514090      15.04505740       0.10244080      -0.33363722       0.09143977
Li       9.88702703      13.62655610      17.12256377       0.07161458      -0.23550955      -0.35075823
Li       8.15685472      15.02828017      18.66280615      -0.10972606      -0.04752293      -0.17248147
Li       6.94660316      16.71190713       0.29322804      -0.35679849       0.13706403      -0.06208642
Li       6.36966597      16.79747062       3.36059299       0.06010709      -0.61540938      -0.07754358
Li       5.06047302      18.44685240       4.79070796      -0.36757698      -0.12962232       0.05353804
Li       3.55928942      19.95347345       6.45753626      -0.27989719      -0.00472142      -0.02729081
Li       1.47914491       1.54401230       8.35262170       0.15652513       0.06079365      -0.04577581
Li       0.13936219       3.34046127      10.32101971      -0.19360543      -0.27844662      -0.42570454
Li      18.44684279       4.92423008      11.86208535       0.07393745      -0.10681451       0.17537361
Li      16.62502006       6.53758362      13.27180734       0.18255638      -0.04795536       0.26618863
Li      15.09388874       8.06337680      14.99020462       0.22699680       0.37039515       0.31879538
Li      13.50248880       9.86776361      16.75500110       0.04543802       0.20049554      -0.01245809
Li      11.67108372      11.68982939      18.29990333       0.00882119      -0.21877262       0.08725374
Li      10.10586979      13.26321441      20.01494692      -0.07869502       0.19968191       0.05664761
Li       8.21610267      14.65101002       1.79521669       0.19666872       0.34500559       0.19652308
Li       8.29071198      14.99943561       4.92415240      -0.09089321      -0.01920014      -0.01589594
Li       6.52272799      16.60869910       6.51357548       0.11480075       0.05735583       0.22094014
Li       4.77355534      18.32457396       8.34704211       0.47982320       0.10287038       0.08140218
Li       3.30559625      19.92176691      10.07566280       0.21618983       0.22820103       0.08376990
Li       1.62621731       1.60257134      11.68445221       0.20207387      -0.23328581      -0.17754386
Li       0.16536820       2.98467484      13.32374310      -0.48654692       0.27295673       0.10369471
Li      18.81816676       4.86939491      15.02307477      -0.32680001       0.11114745      -0.30897094
Li      17.04715622       6.59409513      16.72754838      -0.51927551       0.41165821      -0.52417421
Li      15.31355135       8.22526979      18.07231048       0.07629078       0.08682303       0.08348570
Li      13.62950916      10.14298495       0.06039795      -0.35156063       0.24997499      -0.38435214
Li      11.58090903      11.66316249       1.74629406       0.29049530       0.03467430      -0.03661444
Li      10.14838075      13.38268854       3.34747035      -0.04385499      -0.07765811       0.01231385
Li      10.26521393      13.24403589       6.46533616      -0.01027466       0.26230305      -0.08758099
Li       8.56062560      14.93735691       8.16206012      -0.34816264      -0.01762846       0.01779974
Li       6.71753438      16.79658070       9.82920255      -0.07308882      -0.28166654      -0.10626276
Li       5.32332030      18.33636941      11.69331101      -0.32710601       0.01780333       0.03864456
Li       3.43780941       0.07191732      13.23433861      -0.09892083      -0.20290748       0.09223350
Li       1.66102427       1.59698053      14.74316196       0.09873009      -0.25115158       0.35353021
Li       0.10411377       3.37279326      16.74911879      -0.08649681      -0.04703180      -0.31732879
Li      18.14361856       5.16995056      17.99263090       0.61942126      -0.59314538       0.43661795
Li      16.72067944       6.58507837       0.19023404       0.13221690       0.14387451      -0.17903170
Li      14.71678716       8.55437491       1.53947219       0.45952224      -0.38044139       0.31004209
Li      13.26572622       9.80784096       3.34287838       0.18016386       0.21603279       0.15074538
Li      11.96992999      11.51194979       4.84892124      -0.53904137      -0.11042388       0.15254428
Li       3.36249156       2.80051131      16.47749139      -0.27991016       0.33553737       0.23380726
Li       1.98639490       4.65908602      18.20343971      -0.18885103       0.18157583       0.09095161
Li       0.09091946       6.43871471      19.79897234       0.03983198      -0.20749384      -0.06339412
Li      18.86332808       8.30498922       1.82887185      -0.43382262      -0.13459826      -0.03202202
Li      16.48785415      10.14788984       3.20736720       0.14735703      -0.20566283      -0.09726372
Li      14.77529895      11.64760713       4.89447176       0.19762565       0.02500292       0.07249206
Li      13.21976687      13.31856992       6.54538293       0.07468318       0.09873556       0.23419130
Li      11.53145285      15.13756551       8.50633099       0.40183771      -0.22075599      -0.24843482
Li       9.85666849      16.76587820       9.79379096      -0.02199602       0.07818187       0.20745526
Li       8.19830538      18.44434779      11.58360924       0.09769340      -0.29133755      -0.03559880
Li       6.67359213       0.03480476      13.36759225       0.09104350       0.06844706       0.08117997
Li       5.03302711       1.54412002      15.23818645       0.21425106       0.06140584      -0.37685810
Li       4.97948108       1.53850478      18.58861067       0.50119245      -0.14148298      -0.54855859
Li       3.54336047       2.93914654      19.82722869      -0.59497475       0.49751089       0.28238418
Li       1.78029839       4.69629868       1.41588299      -0.19020941       0.05419726       0.06088054
Li       0.28231730       6.36693774       3.56159261      -0.28129755       0.01983218      -0.21975639
Li      18.32945723       8.63023492       5.10578070      -0.14582234      -0.39805978       0.04905013
Li      16.35940551      10.15509413       6.80597866       0.16374661      -0.17128294      -0.13905131
Li      15.06985877      11.94642417       8.54516994      -0.31845172      -0.23774434      -0.26366616
Li      13.32925022      13.36199083      10.16697927      -0.19484926       0.16920974      -0.44846676
Li      11.36039674      14.87858345      11.61426429       0.09029226       0.23444614      -0.26232815
Li      10.36835248      16.64948668      13.33204232      -0.30603695       0.05728658      -0.17080241
Li       8.62666962      18.38716178      14.95875314      -0.35798765       0.05239226      -0.02152467
Li       6.92025138       0.19359333      16.77566997       0.07758329      -0.10867292       0.01977413
Li       6.84513635       0.01656781      20.01429104       0.13883643       0.04240888       0.26273090
Li       4.92097850       1.58813534       1.61151423       0.13929415       0.33013336      -0.00261957
Li       2.99812201       3.15383818       3.34906521       0.28706719       0.27042455      -0.24494685
Li       1.62448591       4.57099189       5.07185044      -0.21154947       0.26782362       0.06450773
Li       0.09101856       6.74542876       6.67123608      -0.18517149      -0.20850422      -0.19034254
Li      18.21330596       8.24536747       8.44099411      -0.01668886       0.07139612      -0.08323755
Li      16.65605490      10.04477531      10.10728305       0.09292412      -0.07788795       0.08748115
Li      15.16228019      11.91141680      11.48171998      -0.13858953      -0.27566020       0.18260074
Li      13.16285375      13.53874346      13.04433982       0.18213292      -0.16187671       0.31684138
Li      11.69034773      15.05506220      15.12015442      -0.05881635      -0.12968906       0.01782085
Li      10.05448480      16.75404510      16.89352341       0.03708161      -0.21209240      -0.04080398
Li       8.65538545      18.33812584      18.28246041      -0.33539445       0.19279101      -0.09410071
Li       8.27318157      18.18104945       2.20535879      -0.02069162       0.37339550      -0.60073496
Li       6.28074599       0.14360339       3.14926143       0.50215766      -0.09312954       0.12709263
Li       4.72845188       2.07760186       4.73625839       0.33231819      -0.35270605       0.33643740
Li       3.10539586       3.47668520       6.71944957       0.42148406      -0.10231192       0.08615288
Li       1.65359655       4.96180752       8.32054358      -0.17163516       0.00270678       0.10799496
Li      19.95450553       6.62504088       9.80434052      -0.10376448      -0.15683846       0.36338213
Li      18.56182945       8.33844577      11.91361148      -0.31322418      -0.02974746      -0.24943474
Li      16.80670962       9.96507511      13.53594476      -0.26498335      -0.01554607      -0.30098636
Li      14.87441272      11.87367039      15.01452208       0.21285087      -0.05234898      -0.01271001
Li      13.26429894      13.14417714      16.74876602       0.06046610       0.14855051       0.24673126
Li      11.88664727      15.18984823      18.28938340      -0.25262009      -0.10310751       0.10068336
Li       9.78532537      16.57721099      19.94588137       0.50624100       0.01075185       0.39571762
Li       9.99927064      16.65004746       3.37964258       0.26786452      -0.08887249      -0.15010577
Li       8.23094349      18.15803934       4.82128933       0.20288407       0.07242992       0.33529129
Li       6.63311868      19.72717014       6.16955968       0.10191847       0.60146771       0.44729772
Li       4.76127238       1.67449146       7.98323274       0.32701259      -0.05088965       0.24182372
Li       3.43461849       3.27978683       9.80775126      -0.15357188      -0.09226646       0.33907864
Li       1.41772871       4.84076957      11.89872902       0.45844735       0.30604933      -0.23466832
Li       0.18746536       6.71055473      13.18207652      -0.15661325      -0.13894586       0.24771730
Li      18.44583674       8.22375362      15.02959774      -0.03719648      -0.06352261       0.00968769
Li      16.94643799      10.19967004      16.44899899      -0.40255448      -0.42140585       0.36659259
Li      15.29889612      11.76405150      18.61219037      -0.01798569      -0.11459814      -0.26929842
Li      13.35059039      13.46057405      19.89263425      -0.13426816      -0.21415005       0.21996805
Li      11.97671204      15.07382849       1.64878375      -0.33011600       0.04689635      -0.07889252
Li      11.80064492      15.22763529       4.67789716      -0.34884374       0.25125864       0.59029462
Li       9.95847926      16.59939664       6.71357226       0.10326435       0.21328796      -0.31817430
Li       8.23851856      18.42224783       8.21462654      -0.12978211       0.05895716      -0.10786860
Li       6.57776717       0.28194852      10.09185402      -0.04907576      -0.30023986      -0.40700490
Li       5.13672464       1.67946503      11.74236137      -0.23341631       0.27758501       0.17127960
Li       3.08151104       3.35808578      13.34764993       0.36717526      -0.18940967      -0.26491244
Li       1.79235131       4.99042285      15.09288189      -0.23548949      -0.12878858      -0.11537584
Li       0.16171361       6.78085436      16.52004440      -0.28890852      -0.18785262       0.26413747
Li      18.58090466       8.31321136      18.67610537      -0.16193077       0.02645010      -0.43067451
Li      16.72366314       9.61980741       0.11583755      -0.04020403       0.21662235       0.19744986
Li      14.94914095      12.02220951       1.74737578      -0.29284667      -0.23427405      -0.03095280
Li      13.12253886      13.62120434       3.64139972       0.47191408      -0.42706104      -0.37934959
Li       4.53604979       4.90008239      14.90532363       0.52766992       0.05705253       0.29077939
Li       2.89098750       6.88043202      16.61264080       0.69450182      -0.19598758       0.03417883
Li       1.51525663       8.21281986      18.32618643       0.19439829       0.40904488       0.20536144
Li       0.08070044      10.03877188       0.09271653       0.13613334      -0.05745429      -0.07201734
Li      18.46983347      11.53338306       1.73037152      -0.25927019       0.08606053       0.02921632
Li      16.61129139      13.07506294       3.51538440       0.30365632       0.42513930       0.03864633
Li      15.07003395      15.16198168       5.08942030       0.17840186      -0.09497756      -0.22767542
Li      13.39818584      16.52415607       6.49789279      -0.15752671       0.32828427       0.18924043
Li      11.85556678      18.31727037       8.09935538      -0.18611873      -0.09508400       0.14241822
Li      10.01092414      19.99506727       9.64432328      -0.08150812       0.06667244       0.26716825
Li       8.28757933       1.55187347      11.68445100       0.04722742       0.54868149      -0.27788085
Li       6.89426419       3.53646430      13.40911519      -0.34418854      -0.17280161      -0.13506938
Li       6.94032364       3.37967661      16.61241676      -0.37903890      -0.02700630      -0.12198974
Li       4.83316207       4.74309790      17.99434187       0.20917245       0.21994381       0.07678073
Li       3.35184690       6.54002176      19.96540705       0.10560404       0.22979486      -0.05129215
Li       1.49649854       8.11613441       1.67243793       0.41024500      -0.00363263       0.04314394
Li       0.08373980       9.91728186       3.59194014      -0.18526778       0.18787584      -0.50378247
Li      18.35808177      11.41962447       5.01576438      -0.07763763       0.29592473       0.09924576
Li      16.66731960      13.34214702       6.52790717      -0.05263211      -0.16904358       0.00670063
Li      14.94787884      14.94984869       8.10537083       0.04256471       0.10194868       0.31059118
Li      13.27731106      16.72603440      10.03967301      -0.00447021      -0.10868003       0.08930390
Li      11.44746680      18.30280875      11.51329739       0.07135660       0.01144909      -0.11986717
Li       9.72265325       0.00931988      12.96552013       0.58435233      -0.07280156       0.36783488
Li       8.36234180       1.81240494      14.78634642       0.26220142      -0.19497448       0.23966286
Li       8.48399659       1.99476040      18.28963286       0.14714258      -0.18795670       0.14991409
Li       6.80976620       3.35214761       0.07249932      -0.14417077       0.09977431       0.05531375
Li       4.76763439       4.92740638       1.77281761      -0.31018876      -0.32807130      -0.16869076
Li       3.13470571       6.53171292       3.76711052       0.17814793      -0.01854915      -0.48546164
Li       1.53565482       8.52927543       4.89821065       0.12569568      -0.20107312       0.28312861
Li      19.78019563      10.04289436       6.98821219       0.30943231      -0.27496906      -0.16722806
Li      18.15447724      11.64958278       8.19838426       0.07107936       0.19558743       0.12777051
Li      16.73491103      13.45411114       9.72874819       0.12096719       0.09028213       0.25313780
Li      15.00464001      15.08431459      11.55107203       0.11838386      -0.12741388      -0.22579372
Li      13.49643831      16.60378480      13.19192775      -0.38992996       0.11633408      -0.01960536
Li      11.38873578      18.26767364      15.11595526       0.42286939       0.09595746      -0.14978531
Li      10.16024368       0.16446066      16.67839791      -0.14245111       0.15510923       0.00567472
Li       9.73693910      19.76826724       0.00840834       0.29440948       0.25308264       0.17037638
Li       8.60350515       1.75408415       1.82623972      -0.30560150      -0.00536662      -0.22777694
Li       6.58346069       3.48897757       3.15235444       0.26674007      -0.25108138      -0.18573603
Li       5.21644166       4.87921571       4.93330310      -0.44326914       0.27882282       0.15793707
Li       3.18113815       6.75388014       6.48520581       0.18047720      -0.12093191       0.19293156
Li       1.62292008       8.12455256       8.40989540       0.15321440       0.33595117      -0.07581636
Li      19.83694679      10.03954448      10.01634598       0.02456089      -0.08384423      -0.09524316
Li      18.49734705      11.75462631      11.77172668      -0.17474159      -0.05376382      -0.28749667
Li      16.75704322      13.17481237      13.11936997      -0.24404831       0.17847025       0.50150839
Li      14.60479881      14.82755584      15.11250067       0.51691028      -0.07377023      -0.18317294
Li      13.41067201      16.57772392      16.61924185       0.15264233       0.39946903       0.09676079
Li      11.91268973      18.51706134      18.16154959      -0.36239431      -0.37164199       0.55598007
Li      11.73520173      18.38981934       1.58986314      -0.17673173      -0.10096567      -0.03023570
Li       9.97368486       0.02501199       3.40855121       0.15923758      -0.08575914       0.06699307
Li       8.41014446       1.88560579       4.86883012      -0.15498876      -0.11132799       0.01313271
Li       6.59374217       3.41885211       6.59243901       0.01502027      -0.17132925       0.12580903
Li       4.99628734       5.16320535       8.44974200      -0.07001637      -0.07435325      -0.32457303
Li       3.28032700       6.51641143      10.14313410      -0.15446829      -0.08562255      -0.03311573
Li       1.50700426       8.28196349      11.40181697       0.06024394       0.11918799       0.14689617
Li      19.85956028       9.95110900      13.36144907       0.30751166       0.19389863       0.25234678
Li      18.32556639      11.63986929      15.07174913       0.36023142       0.35489088      -0.49588494
Li      16.83388305      13.28132182      16.59313113      -0.25014619       0.11467196       0.18232486
Li      14.96897576      14.86125765      18.44854295       0.25479558       0.15231709      -0.23231399
Li      13.46338798      16.66996675      19.95798134       0.11103493       0.23688481       0.06346104
Li      13.48303499      16.95554345       3.37147269      -0.12898968      -0.01261422      -0.07244818
Li      11.68836267      18.62128882       5.25108986       0.17059424      -0.32659765      -0.37240201
Li       9.96733346      19.97093600       6.53206389      -0.33110590       0.16338831       0.13726808
Li       8.10042689       1.70357047       8.25559490       0.04656501      -0.03823929      -0.17652512
Li       6.63290586       3.54109752      10.11522831      -0.07026636      -0.25571405      -0.08330698
Li       4.96581608       4.94667059      11.76171668      -0.14255850      -0.00683699      -0.07360480