 432 432   0   0
  0.2159961E+02  0.2105280E-08  0.2105280E-08  0.2105280E-08  0.5000000E-15
  1.000000000000000E-004
  CAR 
 Li                                      
      3.39385664     -3.51492004  301      0.25243604      1.00000000
     -3.515  0.0000E+00  0.0000E+00
     -3.492  0.0000E+00  0.0000E+00
     -3.469  0.0000E+00  0.0000E+00
     -3.446  0.0000E+00  0.0000E+00
     -3.423  0.0000E+00  0.0000E+00
     -3.400  0.0000E+00  0.0000E+00
     -3.377  0.4821E-14  0.1110E-15
     -3.354  0.2468E-10  0.5686E-12
     -3.331  0.4005E-07  0.9229E-09
     -3.308  0.2054E-04  0.4739E-06
     -3.285  0.3359E-02  0.7783E-04
     -3.262  0.1775E+00  0.4165E-02
     -3.239  0.3081E+01  0.7511E-01
     -3.216  0.1791E+02  0.4876E+00
     -3.193  0.3547E+02  0.1305E+01
     -3.169  0.2414E+02  0.1860E+01
     -3.146  0.5766E+01  0.1993E+01
     -3.123  0.3678E+01  0.2078E+01
     -3.100  0.2546E+02  0.2664E+01
     -3.077  0.7816E+02  0.4464E+01
     -3.054  0.9654E+02  0.6688E+01
     -3.031  0.4747E+02  0.7781E+01
     -3.008  0.9528E+01  0.8000E+01
     -2.985  0.9122E+01  0.8210E+01
     -2.962  0.4517E+02  0.9250E+01
     -2.939  0.9529E+02  0.1144E+02
     -2.916  0.8074E+02  0.1330E+02
     -2.893  0.2692E+02  0.1392E+02
     -2.870  0.6773E+01  0.1408E+02
     -2.847  0.2715E+02  0.1471E+02
     -2.824  0.8804E+02  0.1673E+02
     -2.801  0.1264E+03  0.1964E+02
     -2.778  0.7940E+02  0.2147E+02
     -2.755  0.2208E+02  0.2198E+02
     -2.732  0.1753E+02  0.2238E+02
     -2.709  0.7348E+02  0.2408E+02
     -2.686  0.1600E+03  0.2776E+02
     -2.663  0.1677E+03  0.3162E+02
     -2.640  0.8300E+02  0.3353E+02
     -2.617  0.1939E+02  0.3398E+02
     -2.594  0.1375E+02  0.3430E+02
     -2.571  0.5653E+02  0.3560E+02
     -2.548  0.1012E+03  0.3793E+02
     -2.525  0.6981E+02  0.3954E+02
     -2.502  0.1905E+02  0.3998E+02
     -2.479  0.1256E+02  0.4027E+02
     -2.456  0.6044E+02  0.4166E+02
     -2.433  0.1474E+03  0.4505E+02
     -2.410  0.1721E+03  0.4901E+02
     -2.386  0.9955E+02  0.5131E+02
     -2.363  0.3221E+02  0.5205E+02
     -2.340  0.4423E+02  0.5307E+02
     -2.317  0.1386E+03  0.5626E+02
     -2.294  0.2304E+03  0.6157E+02
     -2.271  0.2153E+03  0.6652E+02
     -2.248  0.1149E+03  0.6917E+02
     -2.225  0.3376E+02  0.6995E+02
     -2.202  0.2123E+02  0.7044E+02
     -2.179  0.6327E+02  0.7189E+02
     -2.156  0.9729E+02  0.7413E+02
     -2.133  0.6316E+02  0.7559E+02
     -2.110  0.1927E+02  0.7603E+02
     -2.087  0.2753E+02  0.7667E+02
     -2.064  0.1000E+03  0.7897E+02
     -2.041  0.1871E+03  0.8328E+02
     -2.018  0.1820E+03  0.8747E+02
     -1.995  0.8925E+02  0.8953E+02
     -1.972  0.2781E+02  0.9017E+02
     -1.949  0.5480E+02  0.9143E+02
     -1.926  0.1552E+03  0.9500E+02
     -1.903  0.2377E+03  0.1005E+03
     -1.880  0.2054E+03  0.1052E+03
     -1.857  0.9678E+02  0.1074E+03
     -1.834  0.2772E+02  0.1081E+03
     -1.811  0.4336E+02  0.1091E+03
     -1.788  0.1275E+03  0.1120E+03
     -1.765  0.1796E+03  0.1161E+03
     -1.742  0.1238E+03  0.1190E+03
     -1.719  0.4901E+02  0.1201E+03
     -1.696  0.6207E+02  0.1216E+03
     -1.673  0.1543E+03  0.1251E+03
     -1.650  0.2296E+03  0.1304E+03
     -1.627  0.2039E+03  0.1351E+03
     -1.603  0.1014E+03  0.1374E+03
     -1.580  0.3802E+02  0.1383E+03
     -1.557  0.8117E+02  0.1402E+03
     -1.534  0.1983E+03  0.1447E+03
     -1.511  0.2528E+03  0.1506E+03
     -1.488  0.1689E+03  0.1544E+03
     -1.465  0.5876E+02  0.1558E+03
     -1.442  0.2687E+02  0.1564E+03
     -1.419  0.7945E+02  0.1582E+03
     -1.396  0.1587E+03  0.1619E+03
     -1.373  0.1613E+03  0.1656E+03
     -1.350  0.8292E+02  0.1675E+03
     -1.327  0.2455E+02  0.1681E+03
     -1.304  0.3758E+02  0.1690E+03
     -1.281  0.1008E+03  0.1713E+03
     -1.258  0.1534E+03  0.1748E+03
     -1.235  0.1416E+03  0.1781E+03
     -1.212  0.8637E+02  0.1801E+03
     -1.189  0.1073E+03  0.1825E+03
     -1.166  0.2193E+03  0.1876E+03
     -1.143  0.3034E+03  0.1946E+03
     -1.120  0.3108E+03  0.2017E+03
     -1.097  0.2314E+03  0.2071E+03
     -1.074  0.1146E+03  0.2097E+03
     -1.051  0.9269E+02  0.2118E+03
     -1.028  0.1827E+03  0.2160E+03
     -1.005  0.2302E+03  0.2213E+03
     -0.982  0.1768E+03  0.2254E+03
     -0.959  0.8778E+02  0.2274E+03
     -0.936  0.3567E+02  0.2283E+03
     -0.913  0.7149E+02  0.2299E+03
     -0.890  0.1670E+03  0.2337E+03
     -0.867  0.2005E+03  0.2384E+03
     -0.844  0.1228E+03  0.2412E+03
     -0.820  0.5614E+02  0.2425E+03
     -0.797  0.1038E+03  0.2449E+03
     -0.774  0.2173E+03  0.2499E+03
     -0.751  0.2846E+03  0.2564E+03
     -0.728  0.2508E+03  0.2622E+03
     -0.705  0.1493E+03  0.2656E+03
     -0.682  0.1045E+03  0.2681E+03
     -0.659  0.1025E+03  0.2704E+03
     -0.636  0.5575E+02  0.2717E+03
     -0.613  0.1632E+02  0.2721E+03
     -0.590  0.3666E+02  0.2729E+03
     -0.567  0.1328E+03  0.2760E+03
     -0.544  0.2432E+03  0.2816E+03
     -0.521  0.2656E+03  0.2877E+03
     -0.498  0.2194E+03  0.2927E+03
     -0.475  0.1725E+03  0.2967E+03
     -0.452  0.1596E+03  0.3004E+03
     -0.429  0.1753E+03  0.3044E+03
     -0.406  0.2007E+03  0.3091E+03
     -0.383  0.2297E+03  0.3143E+03
     -0.360  0.2603E+03  0.3203E+03
     -0.337  0.2579E+03  0.3263E+03
     -0.314  0.1842E+03  0.3305E+03
     -0.291  0.1105E+03  0.3331E+03
     -0.268  0.1114E+03  0.3356E+03
     -0.245  0.1297E+03  0.3386E+03
     -0.222  0.1316E+03  0.3416E+03
     -0.199  0.1092E+03  0.3442E+03
     -0.176  0.1399E+03  0.3474E+03
     -0.153  0.2437E+03  0.3530E+03
     -0.130  0.3148E+03  0.3602E+03
     -0.107  0.3313E+03  0.3679E+03
     -0.084  0.2884E+03  0.3745E+03
     -0.061  0.1770E+03  0.3786E+03
     -0.038  0.9347E+02  0.3807E+03
     -0.014  0.1357E+03  0.3839E+03
      0.009  0.2304E+03  0.3892E+03
      0.032  0.2687E+03  0.3954E+03
      0.055  0.2221E+03  0.4005E+03
      0.078  0.1253E+03  0.4034E+03
      0.101  0.7785E+02  0.4052E+03
      0.124  0.1076E+03  0.4076E+03
      0.147  0.1430E+03  0.4109E+03
      0.170  0.1932E+03  0.4154E+03
      0.193  0.2319E+03  0.4207E+03
      0.216  0.2009E+03  0.4253E+03
      0.239  0.1748E+03  0.4294E+03
      0.262  0.2008E+03  0.4340E+03
      0.285  0.2273E+03  0.4392E+03
      0.308  0.2409E+03  0.4448E+03
      0.331  0.2494E+03  0.4505E+03
      0.354  0.2399E+03  0.4560E+03
      0.377  0.1964E+03  0.4606E+03
      0.400  0.1361E+03  0.4637E+03
      0.423  0.1264E+03  0.4666E+03
      0.446  0.1648E+03  0.4704E+03
      0.469  0.2042E+03  0.4751E+03
      0.492  0.2257E+03  0.4803E+03
      0.515  0.2420E+03  0.4859E+03
      0.538  0.2727E+03  0.4922E+03
      0.561  0.3006E+03  0.4991E+03
      0.584  0.3077E+03  0.5062E+03
      0.607  0.3025E+03  0.5131E+03
      0.630  0.2939E+03  0.5199E+03
      0.653  0.2762E+03  0.5263E+03
      0.676  0.2475E+03  0.5320E+03
      0.699  0.2319E+03  0.5373E+03
      0.722  0.2436E+03  0.5429E+03
      0.745  0.2536E+03  0.5488E+03
      0.769  0.2549E+03  0.5546E+03
      0.792  0.2562E+03  0.5605E+03
      0.815  0.2469E+03  0.5662E+03
      0.838  0.2185E+03  0.5713E+03
      0.861  0.1971E+03  0.5758E+03
      0.884  0.2217E+03  0.5809E+03
      0.907  0.2571E+03  0.5868E+03
      0.930  0.2707E+03  0.5931E+03
      0.953  0.2762E+03  0.5994E+03
      0.976  0.2684E+03  0.6056E+03
      0.999  0.2437E+03  0.6112E+03
      1.022  0.2149E+03  0.6162E+03
      1.045  0.1815E+03  0.6203E+03
      1.068  0.1538E+03  0.6239E+03
      1.091  0.1663E+03  0.6277E+03
      1.114  0.2101E+03  0.6325E+03
      1.137  0.2341E+03  0.6379E+03
      1.160  0.2269E+03  0.6432E+03
      1.183  0.1941E+03  0.6476E+03
      1.206  0.1292E+03  0.6506E+03
      1.229  0.7424E+02  0.6523E+03
      1.252  0.9176E+02  0.6544E+03
      1.275  0.1497E+03  0.6579E+03
      1.298  0.1562E+03  0.6615E+03
      1.321  0.1062E+03  0.6639E+03
      1.344  0.1040E+03  0.6663E+03
      1.367  0.1644E+03  0.6701E+03
      1.390  0.2081E+03  0.6749E+03
      1.413  0.2162E+03  0.6799E+03
      1.436  0.2072E+03  0.6846E+03
      1.459  0.1817E+03  0.6888E+03
      1.482  0.1422E+03  0.6921E+03
      1.505  0.1085E+03  0.6946E+03
      1.528  0.1148E+03  0.6972E+03
      1.552  0.1454E+03  0.7006E+03
      1.575  0.1727E+03  0.7046E+03
      1.598  0.1958E+03  0.7091E+03
      1.621  0.2140E+03  0.7140E+03
      1.644  0.2138E+03  0.7189E+03
      1.667  0.1933E+03  0.7234E+03
      1.690  0.1863E+03  0.7277E+03
      1.713  0.2036E+03  0.7324E+03
      1.736  0.2133E+03  0.7373E+03
      1.759  0.2099E+03  0.7421E+03
      1.782  0.2039E+03  0.7468E+03
      1.805  0.1802E+03  0.7510E+03
      1.828  0.1584E+03  0.7546E+03
      1.851  0.1638E+03  0.7584E+03
      1.874  0.1789E+03  0.7625E+03
      1.897  0.1721E+03  0.7665E+03
      1.920  0.1539E+03  0.7700E+03
      1.943  0.1436E+03  0.7733E+03
      1.966  0.1353E+03  0.7764E+03
      1.989  0.1327E+03  0.7795E+03
      2.012  0.1155E+03  0.7821E+03
      2.035  0.7099E+02  0.7838E+03
      2.058  0.5832E+02  0.7851E+03
      2.081  0.9825E+02  0.7874E+03
      2.104  0.1306E+03  0.7904E+03
      2.127  0.1275E+03  0.7933E+03
      2.150  0.8306E+02  0.7952E+03
      2.173  0.2873E+02  0.7959E+03
      2.196  0.4683E+01  0.7960E+03
      2.219  0.5992E+01  0.7961E+03
      2.242  0.3606E+02  0.7970E+03
      2.265  0.8755E+02  0.7990E+03
      2.288  0.8688E+02  0.8010E+03
      2.311  0.3681E+02  0.8018E+03
      2.335  0.6656E+01  0.8020E+03
      2.358  0.4863E+00  0.8020E+03
      2.381  0.6963E-01  0.8020E+03
      2.404  0.1301E+01  0.8020E+03
      2.427  0.1141E+02  0.8023E+03
      2.450  0.4344E+02  0.8033E+03
      2.473  0.8485E+02  0.8052E+03
      2.496  0.1036E+03  0.8076E+03
      2.519  0.1115E+03  0.8102E+03
      2.542  0.1191E+03  0.8129E+03
      2.565  0.1090E+03  0.8155E+03
      2.588  0.9085E+02  0.8175E+03
      2.611  0.8755E+02  0.8196E+03
      2.634  0.1125E+03  0.8222E+03
      2.657  0.1387E+03  0.8253E+03
      2.680  0.1573E+03  0.8290E+03
      2.703  0.1705E+03  0.8329E+03
      2.726  0.1620E+03  0.8366E+03
      2.749  0.1337E+03  0.8397E+03
      2.772  0.1011E+03  0.8420E+03
      2.795  0.8582E+02  0.8440E+03
      2.818  0.8261E+02  0.8459E+03
      2.841  0.6206E+02  0.8473E+03
      2.864  0.3391E+02  0.8481E+03
      2.887  0.3566E+02  0.8489E+03
      2.910  0.4949E+02  0.8501E+03
      2.933  0.6034E+02  0.8515E+03
      2.956  0.8207E+02  0.8534E+03
      2.979  0.1099E+03  0.8559E+03
      3.002  0.1211E+03  0.8587E+03
      3.025  0.1133E+03  0.8613E+03
      3.048  0.9699E+02  0.8635E+03
      3.071  0.6750E+02  0.8651E+03
      3.094  0.3085E+02  0.8658E+03
      3.118  0.7989E+01  0.8660E+03
      3.141  0.9917E+00  0.8660E+03
      3.164  0.4960E-01  0.8660E+03
      3.187  0.8870E-03  0.8660E+03
      3.210  0.5311E-05  0.8660E+03
      3.233  0.1029E-07  0.8660E+03
      3.256  0.6344E-11  0.8660E+03
      3.279  0.0000E+00  0.8660E+03
      3.302  0.0000E+00  0.8660E+03
      3.325  0.0000E+00  0.8660E+03
      3.348  0.0000E+00  0.8660E+03
      3.371  0.0000E+00  0.8660E+03
      3.394  0.0000E+00  0.8660E+03
