 running on   64 total cores
 distrk:  each k-point on   32 cores,    2 groups
 distr:  one band on   32 cores,    1 groups
 vasp.6.2.1 16May21 (build Nov 23 2021 15:40:41) complex                        
  
 POSCAR found type information on POSCAR Li
 POSCAR found :  1 types and     432 ions
 scaLAPACK will be used
 -----------------------------------------------------------------------------
|                                                                             |
|           W    W    AA    RRRRR   N    N  II  N    N   GGGG   !!!           |
|           W    W   A  A   R    R  NN   N  II  NN   N  G    G  !!!           |
|           W    W  A    A  R    R  N N  N  II  N N  N  G       !!!           |
|           W WW W  AAAAAA  RRRRR   N  N N  II  N  N N  G  GGG   !            |
|           WW  WW  A    A  R   R   N   NN  II  N   NN  G    G                |
|           W    W  A    A  R    R  N    N  II  N    N   GGGG   !!!           |
|                                                                             |
|     For optimal performance we recommend to set                             |
|       NCORE = 2 up to number-of-cores-per-socket                            |
|     NCORE specifies how many cores store one orbital (NPAR=cpu/NCORE).      |
|     This setting can greatly improve the performance of VASP for DFT.       |
|     The default, NCORE=1 might be grossly inefficient on modern             |
|     multi-core architectures or massively parallel machines. Do your        |
|     own testing! More info at https://www.vasp.at/wiki/index.php/NCORE      |
|     Unfortunately you need to use the default for GW and RPA                |
|     calculations (for HF NCORE is supported but not extensively tested      |
|     yet).                                                                   |
|                                                                             |
 -----------------------------------------------------------------------------

 -----------------------------------------------------------------------------
|                                                                             |
|               ----> ADVICE to this user running VASP <----                  |
|                                                                             |
|     You have a (more or less) 'large supercell' and for larger cells it     |
|     might be more efficient to use real-space projection operators.         |
|     Therefore, try LREAL= Auto in the INCAR file.                           |
|     Mind: If you want to do very accurate calculations, keep the            |
|     reciprocal projection scheme (i.e. LREAL=.FALSE.).                      |
|                                                                             |
 -----------------------------------------------------------------------------

 LDA part: xc-table for Pade appr. of Perdew
 POSCAR found type information on POSCAR Li
 POSCAR found :  1 types and     432 ions
 POSCAR, INCAR and KPOINTS ok, starting setup
 FFT: planning ...
 WAVECAR not read
 entering main loop
       N       E                     dE             d eps       ncg     rms          rms(c)
DAV:   1    -0.280749907064E+03   -0.28075E+03   -0.10280E+05  3464   0.649E+02
DAV:   2    -0.772413076605E+03   -0.49166E+03   -0.44974E+03  3996   0.649E+01
DAV:   3    -0.806944525214E+03   -0.34531E+02   -0.31519E+02  4344   0.137E+01
DAV:   4    -0.808107571142E+03   -0.11630E+01   -0.11471E+01  3936   0.276E+00
DAV:   5    -0.808133222815E+03   -0.25652E-01   -0.25625E-01  4088   0.440E-01    0.660E+00
DAV:   6    -0.804553022394E+03    0.35802E+01   -0.51867E+00  3856   0.287E+00    0.449E+00
DAV:   7    -0.803047909511E+03    0.15051E+01   -0.39936E+00  3912   0.285E+00    0.326E+00
DAV:   8    -0.801806056100E+03    0.12419E+01   -0.20470E+00  3904   0.163E+00    0.174E+00
DAV:   9    -0.801608541084E+03    0.19752E+00   -0.12473E+00  3768   0.904E-01    0.917E-01
DAV:  10    -0.801638160671E+03   -0.29620E-01   -0.24974E-01  3984   0.542E-01    0.753E-01
DAV:  11    -0.801581683980E+03    0.56477E-01   -0.98941E-02  3912   0.378E-01    0.401E-01
DAV:  12    -0.801576375872E+03    0.53081E-02   -0.26130E-02  3712   0.144E-01    0.175E-01
DAV:  13    -0.801576375022E+03    0.84976E-06   -0.61848E-03  3864   0.841E-02    0.100E-01
DAV:  14    -0.801575906571E+03    0.46845E-03   -0.18426E-03  3848   0.583E-02    0.659E-02
DAV:  15    -0.801575463904E+03    0.44267E-03   -0.62369E-04  3824   0.333E-02    0.332E-02
DAV:  16    -0.801575380308E+03    0.83597E-04   -0.36678E-04  3672   0.166E-02    0.112E-02
DAV:  17    -0.801575384422E+03   -0.41144E-05   -0.49361E-05  4064   0.864E-03
   1 F= -.80157538E+03 E0= -.80152935E+03  d E =-.920609E-01
