Li                                      
           1
    21.052800    0.000000    0.000000
     0.000000   21.052800    0.000000
     0.000000    0.000000   21.052800
   Li
   432
Direct configuration=     1
   0.99864749  0.99044614  0.99549569
   0.90386567  0.08110332  0.08454801
   0.83514055  0.16208156  0.15616607
   0.75528178  0.22437821  0.23679034
   0.65982803  0.32627161  0.31971054
   0.58676025  0.40352057  0.41641932
   0.50154802  0.49720693  0.50075088
   0.41260496  0.56994858  0.57360823
   0.32738510  0.65558704  0.66979245
   0.24403079  0.75290738  0.73316024
   0.16410645  0.82334116  0.82378708
   0.09089223  0.91178748  0.90675776
   0.07079170  0.91347657  0.07284458
   0.01764412  0.01298865  0.15590173
   0.91567068  0.05203170  0.26347545
   0.83458439  0.15347895  0.33421972
   0.76484006  0.23367520  0.40369930
   0.68527976  0.33679103  0.52116283
   0.58361312  0.41099979  0.58306584
   0.49305050  0.47568212  0.66391641
   0.43243841  0.57912774  0.73314937
   0.34836086  0.67963081  0.82250717
   0.24306161  0.75930562  0.91196573
   0.15890779  0.84305355  0.99714161
   0.17034164  0.84053545  0.16004552
   0.07966573  0.93238478  0.23915110
   0.99792387  0.01075171  0.32815871
   0.90945831  0.06053074  0.41592726
   0.83089251  0.15932490  0.50459101
   0.76722785  0.25895700  0.58883596
   0.67934554  0.32451600  0.66982113
   0.57907400  0.41718379  0.75058725
   0.50930737  0.50234813  0.84000498
   0.41848403  0.57709479  0.92071096
   0.33555512  0.67656400  0.00378982
   0.24873458  0.75177894  0.07585560
   0.26210753  0.76786434  0.25729858
   0.14997738  0.85857250  0.32119311
   0.08022974  0.91527275  0.41033370
   0.99607682  0.99336336  0.50010845
   0.91578009  0.05971805  0.59341190
   0.84067110  0.15890484  0.66915344
   0.75306684  0.23390872  0.74739303
   0.65736635  0.33800325  0.83052647
   0.57872853  0.41556585  0.91655233
   0.50411879  0.49006684  0.99841790
   0.41712322  0.58966009  0.06899969
   0.34401739  0.67445304  0.17727641
   0.33848493  0.68460027  0.33975900
   0.24867462  0.76228247  0.42790530
   0.16770452  0.81292546  0.48492951
   0.08900578  0.89748817  0.57640943
   0.00920479  0.98788696  0.66973642
   0.93558731  0.07300681  0.74889534
   0.84254644  0.15598407  0.83140094
   0.74124229  0.24336155  0.91485993
   0.68062488  0.34042519  0.00195543
   0.58427250  0.42276588  0.07820172
   0.49617711  0.50343913  0.16935162
   0.41309176  0.59607174  0.26285814
   0.39664663  0.58820549  0.42101723
   0.31452633  0.67585432  0.49764233
   0.23678666  0.75681048  0.58988268
   0.15878721  0.84037925  0.67141528
   0.08459213  0.90051491  0.73385892
   0.00614097  0.99274506  0.82406670
   0.91005783  0.07944038  0.91594628
   0.81927063  0.16790926  0.99855749
   0.74965442  0.24669492  0.09529365
   0.67398787  0.33968995  0.17322482
   0.57285411  0.42164876  0.24219078
   0.49036504  0.50511277  0.33585791
   0.08000848  0.08203335  0.91197820
   0.99635452  0.17648375  0.00057645
   0.91046720  0.26173894  0.07546701
   0.83081868  0.33254147  0.17256162
   0.74501051  0.41303936  0.24592282
   0.64292220  0.48967194  0.32755216
   0.58206214  0.58144148  0.40883783
   0.50126268  0.64634150  0.48807736
   0.42534142  0.73446641  0.57896012
   0.33593790  0.83911326  0.65449732
   0.25326651  0.90789170  0.75790981
   0.15573168  0.99062648  0.83443452
   0.16919051  0.00153713  0.99946461
   0.08981360  0.08970370  0.07747347
   0.97054307  0.16197852  0.15419120
   0.90629037  0.24824537  0.25267882
   0.82642241  0.32972932  0.34692488
   0.74842752  0.41680253  0.41333939
   0.66804554  0.49131290  0.48626311
   0.58575317  0.56529378  0.57895337
   0.50578172  0.66278425  0.64146693
   0.42767487  0.74565197  0.71623153
   0.34691870  0.82910022  0.82002592
   0.24776578  0.90869068  0.90968179
   0.26489168  0.92052721  0.08427151
   0.17726940  0.02672570  0.16603633
   0.09212945  0.10366407  0.25746517
   0.98715632  0.17101147  0.34314707
   0.91866289  0.25504821  0.41849156
   0.83245912  0.33071103  0.51278081
   0.75257447  0.42733551  0.59324712
   0.66763765  0.48992426  0.67704289
   0.57495173  0.58958064  0.73981146
   0.48367883  0.68423247  0.82674855
   0.42771072  0.74289855  0.93162942
   0.34531738  0.82909063  0.00615461
   0.32964276  0.84261975  0.15717729
   0.25849078  0.93112701  0.24063345
   0.16493266  0.00946546  0.32434244
   0.08274435  0.09063244  0.41540781
   0.98910982  0.16037348  0.49473354
   0.91503073  0.24343002  0.58921767
   0.84199539  0.32960896  0.68065060
   0.74537038  0.40898900  0.75213124
   0.65985100  0.49481586  0.81922704
   0.58347359  0.57803612  0.92321483
   0.50409313  0.67154838  0.00529973
   0.42178850  0.75348360  0.07498327
   0.42576567  0.76826364  0.25834351
   0.34023033  0.84353378  0.33602377
   0.24652944  0.91329742  0.41302235
   0.16111652  0.98939120  0.50353792
   0.08971440  0.09053336  0.58567282
   0.00152647  0.17347003  0.65292811
   0.92647640  0.24622220  0.74942987
   0.83697215  0.32094852  0.82130578
   0.75838204  0.40288498  0.91261117
   0.67056382  0.48281307  0.99642406
   0.60027883  0.58767578  0.08990222
   0.49776306  0.67593803  0.16908927
   0.48998346  0.66674474  0.32092882
   0.42335283  0.75598108  0.42607060
   0.33580859  0.83240416  0.50545829
   0.25445474  0.90357415  0.57758601
   0.17796810  0.99396185  0.65354303
   0.09017225  0.07747120  0.75280588
   0.00361425  0.17031672  0.82011556
   0.92177036  0.24524457  0.91895773
   0.83422603  0.32968857  0.01892767
   0.75807115  0.42371757  0.08094533
   0.66118441  0.49418495  0.18223677
   0.57762398  0.57287510  0.25202712
   0.16891754  0.16482003  0.83633411
   0.09987812  0.24542142  0.91328735
   0.00906071  0.32243632  0.01435002
   0.91838674  0.42058832  0.07713163
   0.84472992  0.49014271  0.16960372
   0.73571866  0.58267779  0.25225853
   0.64395368  0.67215546  0.32089921
   0.58388373  0.74036101  0.42048615
   0.50127546  0.83767776  0.49443919
   0.41110958  0.92924782  0.58400452
   0.33505060  0.99737000  0.66780770
   0.23978240  0.09719474  0.74876660
   0.24528827  0.08948413  0.90149824
   0.17268376  0.17805844  0.98920523
   0.08335207  0.24948233  0.09079396
   0.98633649  0.34532620  0.15644998
   0.92062949  0.40772853  0.26093826
   0.83148565  0.50607278  0.33361202
   0.73990760  0.58569940  0.41474706
   0.68448951  0.65432187  0.50172299
   0.59339214  0.73557760  0.56996918
   0.51068730  0.82492098  0.64214708
   0.42641971  0.91279168  0.73345183
   0.33412680  0.01361593  0.81758173
   0.33392228  0.00126911  0.99702203
   0.25108770  0.09352647  0.08633232
   0.16279811  0.17495526  0.15584924
   0.07698297  0.23843723  0.24680524
   0.00028694  0.31479745  0.35358890
   0.91531693  0.42784134  0.41669487
   0.83453193  0.49566010  0.50258211
   0.75624757  0.57681170  0.59429926
   0.65848571  0.65931573  0.66129160
   0.56962630  0.73894431  0.74524869
   0.49461539  0.82969654  0.83101210
   0.42423671  0.91178869  0.89903068
   0.41330491  0.93200385  0.09947188
   0.34865214  0.02291053  0.16389722
   0.24787063  0.09898651  0.26317714
   0.16952826  0.16657061  0.34187441
   0.07169966  0.23624439  0.44263430
   0.98538316  0.33745397  0.50913013
   0.92107952  0.43157600  0.58792486
   0.84624995  0.50444262  0.67349434
   0.74762688  0.56916145  0.75863083
   0.66144674  0.64529948  0.84192055
   0.59153215  0.74377972  0.91915291
   0.49467375  0.82781834  0.99350670
   0.49472947  0.83396566  0.16501799
   0.42046825  0.91712343  0.25080147
   0.33977747  0.99434075  0.34737883
   0.25587744  0.07276465  0.41081334
   0.17126857  0.16113316  0.52062559
   0.07070088  0.25230007  0.56391455
   0.99443629  0.32914022  0.66592403
   0.92331450  0.41889436  0.75311251
   0.82244253  0.49230130  0.83303626
   0.72932217  0.56298563  0.91710376
   0.66801700  0.65610492  0.00183178
   0.57572203  0.76344650  0.07678028
   0.57854773  0.75798764  0.26278280
   0.51561431  0.84394257  0.35174479
   0.41205399  0.91092348  0.41597124
   0.33441831  0.00691013  0.50267633
   0.25460995  0.07171775  0.58019396
   0.17026054  0.18342411  0.65212547
   0.08034572  0.25333008  0.75211503
   0.00242079  0.31646938  0.84448247
   0.92340412  0.41134379  0.92702924
   0.83597897  0.51286669  0.01097163
   0.74605255  0.58282886  0.09728841
   0.65598049  0.67668094  0.18558403
   0.23825117  0.25692610  0.75409299
   0.15520978  0.33803272  0.84197140
   0.07087376  0.41871604  0.92490525
   0.00845638  0.51252192  0.01096643
   0.93099462  0.58292244  0.10570113
   0.82507682  0.66992288  0.17881253
   0.75210301  0.75784007  0.25260790
   0.67565272  0.82997282  0.33620606
   0.58468203  0.90669460  0.41083029
   0.51149723  0.99008895  0.50327211
   0.41991636  0.07923907  0.59772552
   0.32560440  0.17171918  0.67096741
   0.32549244  0.17810904  0.82906434
   0.24888568  0.26431252  0.91192225
   0.16238610  0.33809183  0.01226966
   0.08104785  0.41819445  0.07783091
   0.00369873  0.49719645  0.16744909
   0.91329116  0.57350220  0.24255123
   0.83605707  0.64950007  0.32689813
   0.76214711  0.74868709  0.39191119
   0.67439779  0.81274538  0.50566540
   0.60206039  0.92091576  0.58867862
   0.50269582  0.98926248  0.66990841
   0.41449555  0.08593662  0.75682827
   0.42115063  0.07862510  0.92660683
   0.34056990  0.17868146  0.00085676
   0.26400990  0.25547815  0.07819176
   0.16058003  0.33826912  0.15819083
   0.06561854  0.41043443  0.25791445
   0.01042076  0.50913693  0.33490740
   0.92851227  0.56537516  0.41411051
   0.84772979  0.64723269  0.47985914
   0.78091545  0.73089343  0.58730482
   0.67426229  0.81134682  0.66623597
   0.57960783  0.90668712  0.75645375
   0.51190416  0.99070060  0.82511951
   0.49578465  0.99545828  0.99986950
   0.41564041  0.08443914  0.06748555
   0.34090420  0.17120385  0.15892813
   0.23684685  0.24792831  0.24822246
   0.15019450  0.33235292  0.32333376
   0.08205062  0.42521765  0.43749670
   0.99459921  0.51289172  0.50131930
   0.91886558  0.59226910  0.58128296
   0.83423826  0.67136314  0.67507186
   0.73606299  0.74622253  0.76177669
   0.66817854  0.83767992  0.83258970
   0.57932402  0.91480790  0.91782481
   0.57394108  0.92222834  0.07580607
   0.47865491  0.01316408  0.16021357
   0.42227644  0.09622549  0.26212830
   0.33034938  0.18212256  0.34478792
   0.24087803  0.25340946  0.42309735
   0.17004746  0.34381909  0.49469420
   0.09386080  0.43228831  0.59075149
   0.99183159  0.51777825  0.65690327
   0.91998313  0.58913771  0.75424831
   0.82332994  0.65013915  0.84450163
   0.74471677  0.74770726  0.90073185
   0.67416816  0.83956924  0.99391043
   0.66700871  0.85287975  0.16105216
   0.58262083  0.92210215  0.23531283
   0.49160237  0.00258656  0.33532282
   0.41587805  0.08600241  0.40598215
   0.33511302  0.16795881  0.51511909
   0.24169628  0.26781322  0.59612511
   0.13153677  0.34071592  0.68242336
   0.06923197  0.41735941  0.76725772
   0.99731602  0.50889130  0.83503600
   0.91442635  0.58091652  0.91058157
   0.82026007  0.66044542  0.99587462
   0.73911351  0.74768145  0.08422646
   0.32926225  0.34107503  0.67756475
   0.25409978  0.40784195  0.75464149
   0.17175211  0.51733114  0.85570911
   0.07873785  0.59550048  0.91635676
   0.99862772  0.67827636  0.00355651
   0.91086866  0.74731945  0.07159661
   0.83278604  0.82775081  0.16914102
   0.75165899  0.90990321  0.24044912
   0.68339673  0.99750693  0.33145657
   0.58894501  0.07669509  0.40632169
   0.50653939  0.14913546  0.51132966
   0.41629170  0.26042998  0.59486721
   0.41171631  0.25490163  0.74629627
   0.34731315  0.33326462  0.83921969
   0.25816860  0.42109765  0.91822068
   0.16636528  0.50866675  0.00074800
   0.08412512  0.58535567  0.11263620
   0.98793939  0.67023409  0.17661538
   0.90480916  0.75455933  0.25168219
   0.83186550  0.85534935  0.32176839
   0.75687989  0.90242146  0.43807549
   0.67143390  0.00170085  0.50374849
   0.59513987  0.07929941  0.59349859
   0.51220724  0.16779098  0.67307910
   0.49595864  0.15749718  0.84465521
   0.43010625  0.25570339  0.91661635
   0.34067027  0.34962968  0.99681376
   0.25225475  0.43623848  0.10373064
   0.16054157  0.50368215  0.18865505
   0.08219704  0.59213882  0.25219020
   0.98666261  0.67892375  0.33499304
   0.90857452  0.74640607  0.40481286
   0.83631431  0.82114096  0.50144790
   0.76467073  0.91246429  0.58387409
   0.66833148  0.00480395  0.69282340
   0.58902681  0.08620929  0.74449477
   0.57700136  0.08584946  0.92363931
   0.52811513  0.16772526  0.00066544
   0.42575414  0.25126093  0.07527373
   0.34658787  0.35015419  0.17174314
   0.25768347  0.42879991  0.25285879
   0.16668140  0.48951702  0.34002560
   0.07915929  0.59167969  0.42274454
   0.00698246  0.67540497  0.50144418
   0.91192387  0.73774005  0.58390597
   0.82224995  0.83027333  0.67548393
   0.76232447  0.89229572  0.76125787
   0.66761999  0.00201512  0.82279826
   0.67681007  0.99221503  0.98620040
   0.59715107  0.07474530  0.08387594
   0.51516481  0.14234323  0.15785613
   0.42170914  0.23092923  0.24439487
   0.34461978  0.29440343  0.32389207
   0.26520344  0.40456459  0.40491260
   0.17345926  0.49450652  0.50271102
   0.08972141  0.58380583  0.57072375
   0.00168811  0.66295008  0.66181718
   0.91507823  0.73930327  0.75303034
   0.84438526  0.81950780  0.82592860
   0.75227372  0.91580760  0.89732875
   0.74071687  0.91642691  0.07351212
   0.65903775  0.99290577  0.17192580
   0.59876459  0.08094968  0.26740261
   0.50603683  0.15837321  0.33783268
   0.44136914  0.24250843  0.42723808
   0.33499424  0.32682549  0.50294841
   0.25163952  0.41040089  0.59982370
   0.17398385  0.50865684  0.67514350
   0.07968515  0.59376636  0.75337847
   0.99071320  0.67090601  0.83023704
   0.90733174  0.73791918  0.91321294
   0.83674587  0.81772492  0.98554500
   0.40451068  0.43277917  0.58008948
   0.33976101  0.49726453  0.67121993
   0.25409610  0.58785621  0.75622683
   0.17582334  0.67026246  0.83538174
   0.06845276  0.76435466  0.90608441
   0.99216656  0.83786295  0.99450396
   0.89486750  0.91102947  0.08032930
   0.83028566  0.99724827  0.15809671
   0.76047837  0.09753957  0.23409900
   0.67069365  0.17522720  0.32469772
   0.57367471  0.25407526  0.42257211
   0.48881401  0.33454802  0.50953329
   0.49639011  0.33668313  0.66652142
   0.42037167  0.41192532  0.74628827
   0.34753377  0.50595639  0.82209242
   0.24690532  0.58837811  0.93756080
   0.16674921  0.66761291  0.99262322
   0.06931635  0.76502059  0.08527075
   0.98565898  0.83804886  0.15851967
   0.92441415  0.94357590  0.23589248
   0.81737758  0.99647974  0.33311762
   0.73710908  0.09212141  0.42479373
   0.67109124  0.17773542  0.49815886
   0.58818555  0.25957941  0.57962261
   0.57451284  0.24884295  0.74277758
   0.50614020  0.33382719  0.83842387
   0.42869559  0.41891759  0.91092269
   0.33698182  0.50794817  0.00646907
   0.25166085  0.58841362  0.10531238
   0.16938902  0.68925017  0.18121761
   0.07009504  0.77610928  0.25029472
   0.98711904  0.83110921  0.32676323
   0.90418317  0.92678827  0.42018586
   0.81875836  0.01705096  0.50757365
   0.73402042  0.09879471  0.59627025
   0.65619152  0.18389031  0.65463040
   0.66466988  0.15786328  0.82070497
   0.59331740  0.24730370  0.92560574
   0.49663717  0.33363395  0.00779543
   0.41505069  0.43283917  0.08677341
   0.33401470  0.52252003  0.18210638
   0.24420040  0.58700300  0.25651153
   0.15810164  0.68778470  0.31566995
   0.07845992  0.74804625  0.40538914
   0.99599852  0.82967515  0.48526061
   0.92159652  0.90457933  0.58057366
   0.83312448  0.99266178  0.67175097
   0.75423422  0.09388286  0.74188051
   0.74860452  0.07835069  0.91361054
   0.67111830  0.15845388  0.00545489
   0.59704053  0.26219852  0.08414020
   0.48723363  0.32258162  0.16318873
   0.41148183  0.42057609  0.26110322
   0.33345827  0.50542828  0.33348306
   0.24307521  0.59822607  0.41652332
   0.16678452  0.66244988  0.49627657
   0.08480554  0.75383958  0.57734540
   0.98161398  0.81548946  0.67132184
   0.92012285  0.91433416  0.75147354
   0.84698687  0.99811938  0.82911313
   0.82097113  0.00006882  0.98306010
   0.75262828  0.07175737  0.08452016
   0.66906824  0.14628451  0.15921684
   0.58211659  0.24099663  0.23332736
   0.49570796  0.33712893  0.33129701
   0.39546013  0.41580932  0.41759378
   0.32633759  0.50461975  0.49884198
   0.24355077  0.58906233  0.59218310
   0.16608759  0.66414207  0.66198539
   0.08988953  0.73757770  0.73081061
   0.99270358  0.83039995  0.82479321
   0.90816477  0.90909350  0.91872795
