Li                                      
           1
   -11.179105   19.362778   -0.000000
   -19.164180  -11.064444   -0.000000
     0.000000   -0.000000   23.447950
   Li
   504
Direct configuration=     1
   0.00562384  0.00869340  0.99299362
   0.93161818  0.04896282  0.68543572
   0.84776980  0.09102937  0.33478816
   0.79152511  0.12201101  0.98468000
   0.71826519  0.17995210  0.65733706
   0.63663043  0.20963495  0.34070796
   0.57861399  0.23744329  0.99315082
   0.49700169  0.29743597  0.67718673
   0.42244320  0.32415719  0.33045348
   0.35694834  0.36818428  0.99859401
   0.28227866  0.40398083  0.66688946
   0.21436034  0.47227451  0.32110340
   0.07867407  0.04399831  0.66201411
   0.00110216  0.08520933  0.33227084
   0.93338441  0.12381940  0.00444793
   0.86312129  0.16785127  0.68586830
   0.77645157  0.21353127  0.33809588
   0.71389016  0.24466310  0.00789336
   0.65587213  0.30634979  0.68051378
   0.56969166  0.32412233  0.33722606
   0.49826840  0.37257220  0.98603004
   0.43993668  0.42165225  0.64930231
   0.35745401  0.45032852  0.31785342
   0.28636081  0.48699817  0.98582897
   0.13612606  0.08373573  0.33446295
   0.06610460  0.13348318  0.01296353
   0.00051261  0.15874089  0.67686687
   0.92709024  0.21332970  0.33360401
   0.86426380  0.24292995  0.99155628
   0.78762532  0.29132001  0.66034607
   0.71444555  0.33250798  0.33388999
   0.64937531  0.37698251  0.99531817
   0.57133545  0.42707353  0.67466952
   0.50737970  0.45691244  0.32085806
   0.41994769  0.49735443  0.98856364
   0.36267340  0.54755836  0.65148861
   0.21899949  0.12361676  0.01989536
   0.14612890  0.15966550  0.67321876
   0.06873462  0.21235526  0.34989853
   0.00461639  0.24227684  0.03311973
   0.92144627  0.29546231  0.66704286
   0.85838427  0.33638933  0.33572004
   0.79234871  0.37733933  0.97729000
   0.71213180  0.41396576  0.66876889
   0.64983331  0.45366574  0.34717887
   0.56464281  0.50382558  0.99700014
   0.51032888  0.53584617  0.65443195
   0.43214012  0.57717473  0.31369138
   0.28926916  0.17381194  0.67128939
   0.20612207  0.20914772  0.33633424
   0.15260618  0.24032567  0.01844405
   0.06442679  0.28491224  0.66125098
   0.01057145  0.32769767  0.34672133
   0.92652765  0.38244791  0.99009900
   0.85720192  0.41213840  0.66045230
   0.79573401  0.45782302  0.31252538
   0.71398632  0.49688995  0.00329813
   0.64020461  0.54829722  0.67302359
   0.57910573  0.58424814  0.32621426
   0.49323365  0.61901511  0.99119464
   0.34840426  0.20847095  0.32226571
   0.29139749  0.25998845  0.99686571
   0.21339691  0.28934117  0.66276924
   0.14897825  0.34385690  0.32467060
   0.05944124  0.36661961  0.02502116
   0.99358928  0.41450094  0.64195645
   0.93783888  0.45778127  0.32793218
   0.85133698  0.49449552  0.97831064
   0.78673426  0.54044783  0.64508234
   0.71991606  0.59984439  0.31053330
   0.63384607  0.62402200  0.97876534
   0.58375223  0.65957974  0.68263038
   0.43295785  0.25534173  0.99434344
   0.35570228  0.27691200  0.68223677
   0.28405708  0.33222981  0.33844656
   0.22047393  0.36572170  0.00205128
   0.13687568  0.40561499  0.66109761
   0.08287077  0.46556017  0.33002539
   0.99442545  0.49251844  0.99649767
   0.92589527  0.54071779  0.66493960
   0.86401637  0.59803311  0.31634191
   0.77597411  0.63331983  0.01829192
   0.71899370  0.66981191  0.67178838
   0.65578316  0.71362617  0.32678003
   0.13737282  0.49295277  0.00460011
   0.07088971  0.53525179  0.66070157
   0.00909950  0.59862483  0.31648409
   0.92374532  0.62293220  0.99984044
   0.85764764  0.66315403  0.66780100
   0.79642908  0.72239312  0.32583324
   0.70919544  0.75491941  0.99635909
   0.22032577  0.53356841  0.66221871
   0.14455535  0.57973790  0.31345821
   0.06716063  0.63363205  0.00092213
   0.00417695  0.65705289  0.67099432
   0.93408550  0.71563019  0.32295315
   0.85137096  0.76171536  0.02688252
   0.78825496  0.78219504  0.67152320
   0.28891887  0.59397921  0.32689180
   0.20444326  0.61318518  0.99933134
   0.14874173  0.66240680  0.68827408
   0.08112487  0.72206718  0.35666918
   0.00928480  0.75134024  0.00778454
   0.92701430  0.79154929  0.68668500
   0.87301564  0.84580075  0.32861503
   0.34775713  0.62336777  0.98643666
   0.27676175  0.67026296  0.65655197
   0.22647151  0.71452447  0.35105935
   0.13589097  0.76240923  0.00412080
   0.07994831  0.77537055  0.68939769
   0.00965355  0.83477030  0.33928854
   0.93568128  0.88480093  0.00726234
   0.43297601  0.67069268  0.64858212
   0.37503273  0.70071914  0.31761610
   0.28452686  0.74672302  0.00682286
   0.22726098  0.78221484  0.68835867
   0.14638088  0.82841463  0.35541989
   0.07075085  0.87621625  0.00434199
   0.01306868  0.91835775  0.65698891
   0.93266252  0.96749979  0.32787964
   0.86852867  0.99451913  0.99999811
   0.78487751  0.03668049  0.67111944
   0.69974898  0.09070290  0.33330685
   0.64047162  0.11860974  0.00066541
   0.56502387  0.17791866  0.66436565
   0.49206002  0.19094096  0.33994483
   0.07732654  0.94474333  0.33562584
   0.13769208  0.00406946  0.00142131
   0.22299902  0.05276681  0.69177889
   0.27787827  0.08267774  0.33199372
   0.36138766  0.13828351  0.01699642
   0.42659852  0.16781970  0.67398497
   0.86253584  0.92139889  0.66049927
   0.78304335  0.95918164  0.33961435
   0.71254602  0.00130583  0.99218719
   0.64143205  0.04605925  0.65961861
   0.58171598  0.07264166  0.33965071
   0.50984396  0.11922568  0.00147552
   0.15654412  0.91210003  0.65771450
   0.21138005  0.95202105  0.32814828
   0.29305135  0.99604106  0.00566493
   0.35880579  0.05227429  0.67944994
   0.42752982  0.07136369  0.32063948
   0.79877020  0.87816883  0.99983902
   0.71346389  0.91779064  0.65482037
   0.64202664  0.95386482  0.34678770
   0.57734593  0.00786788  0.00055541
   0.49044814  0.04011458  0.66537360
   0.22022118  0.87161174  0.00397980
   0.29122753  0.91629438  0.66692064
   0.35772080  0.96126667  0.34184037
   0.43361044  0.00230304  0.01313344
   0.71681041  0.85245559  0.32784272
   0.64559258  0.87837572  0.00918418
   0.57203231  0.91657316  0.65909238
   0.50145603  0.96656867  0.33798474
   0.28977524  0.83400247  0.32346299
   0.36834613  0.87588314  0.00078770
   0.43839089  0.91391511  0.66959627
   0.64236823  0.79161162  0.68485552
   0.57651471  0.84405362  0.35288801
   0.49200878  0.87712974  0.00317311
   0.35824224  0.79310788  0.64661847
   0.43437646  0.83146025  0.34740766
   0.55687902  0.74601981  0.01859805
   0.50291620  0.79581761  0.67323171
   0.41817945  0.74549886  0.00316318
   0.51311052  0.71252116  0.34402304
   0.97774360  0.98217803  0.74195908
   0.92671742  0.04840462  0.45160742
   0.86783153  0.07985951  0.09982382
   0.78791267  0.12237673  0.77058364
   0.70901878  0.16772178  0.46223472
   0.63528767  0.19751969  0.12528613
   0.57285969  0.23523115  0.77710332
   0.48676983  0.31624710  0.46101328
   0.42302394  0.33922758  0.09709304
   0.34771588  0.37636811  0.76395535
   0.27424092  0.42388792  0.43072803
   0.20989899  0.44935393  0.11966743
   0.08299228  0.04693087  0.45489054
   0.00225913  0.06693074  0.12256203
   0.92355640  0.11352550  0.78936151
   0.85786072  0.15411057  0.46777695
   0.78179895  0.20655848  0.10140522
   0.70261215  0.22248483  0.76205506
   0.63429819  0.30100722  0.43570243
   0.57023654  0.31916220  0.10173906
   0.48469590  0.35304782  0.77178810
   0.44172215  0.42188800  0.43984368
   0.34776471  0.46038150  0.11432481
   0.28332753  0.51217826  0.78259008
   0.14529206  0.07719200  0.12191301
   0.05276371  0.11697207  0.77508428
   0.00600233  0.15320251  0.45738512
   0.94144178  0.19852477  0.11498191
   0.86103842  0.24622218  0.78941941
   0.78481819  0.28320503  0.46004905
   0.70944888  0.34065016  0.10295415
   0.64234364  0.34799580  0.78130285
   0.59121198  0.41863545  0.44532408
   0.49066095  0.45375918  0.09159320
   0.42740814  0.49420159  0.75104681
   0.35587432  0.54003785  0.43889038
   0.21051341  0.13759060  0.79350174
   0.14347776  0.17809737  0.44797047
   0.06775179  0.19859290  0.12097554
   0.01699405  0.26301256  0.78250633
   0.92613937  0.30036447  0.44914762
   0.85663920  0.33552524  0.10560270
   0.77778187  0.37583835  0.77695812
   0.71076638  0.42323948  0.44889077
   0.64733595  0.45964585  0.09857765
   0.55309809  0.49979576  0.76487393
   0.50562540  0.54662620  0.43337748
   0.44879712  0.59571678  0.10255642
   0.30504265  0.17561172  0.44108872
   0.21305907  0.20940421  0.11672581
   0.15097234  0.25786527  0.78077367
   0.07457284  0.30690730  0.43902922
   0.99947014  0.33426347  0.12085343
   0.93380757  0.37690936  0.76749556
   0.87110540  0.40121435  0.43644905
   0.78375831  0.44717935  0.09617740
   0.70352863  0.48769099  0.76785430
   0.63364015  0.53940769  0.42780805
   0.57185794  0.56531660  0.10765541
   0.49266858  0.62184859  0.76400365
   0.34418675  0.20350463  0.09467285
   0.27773289  0.25652607  0.80233581
   0.21911855  0.30369444  0.42160919
   0.14173780  0.32394484  0.10243005
   0.07390756  0.40115264  0.77858646
   0.00046846  0.41469906  0.43626511
   0.92926643  0.44970662  0.10529466
   0.85293854  0.48022617  0.77002626
   0.78708886  0.53858871  0.42177472
   0.70608149  0.57668142  0.09668444
   0.64481365  0.61420287  0.77368501
   0.57949594  0.67094802  0.43600745
   0.43090835  0.24856599  0.79142949
   0.36136833  0.30523899  0.44986651
   0.29073854  0.34117625  0.11448881
   0.20576839  0.37355258  0.78138406
   0.12763225  0.41099361  0.45883394
   0.07273640  0.46511299  0.11135755
   0.00556567  0.50761482  0.76864281
   0.91851596  0.53470189  0.43545560
   0.85669649  0.57775951  0.09916964
   0.80026220  0.62176064  0.79292806
   0.72288956  0.65816413  0.46340198
   0.63433038  0.68288161  0.10614163
   0.15191680  0.50055497  0.78833158
   0.05628325  0.54745625  0.44414634
   0.00292107  0.56876104  0.11060457
   0.92729761  0.62618446  0.75975150
   0.85698532  0.66382196  0.43373283
   0.78577629  0.69478104  0.10694494
   0.69625173  0.74252499  0.78809835
   0.19206336  0.54287894  0.44057401
   0.15855905  0.58478658  0.11179251
   0.06807811  0.62622986  0.78928698
   0.98822475  0.65432726  0.43579809
   0.92433257  0.69612257  0.11438774
   0.85281262  0.75983937  0.77485022
   0.80375285  0.77528661  0.43965223
   0.29016780  0.56076005  0.10808610
   0.21237252  0.63418056  0.79147867
   0.13425057  0.66136654  0.44282598
   0.08846484  0.69556017  0.11942048
   0.99691717  0.75693978  0.78864992
   0.93922642  0.78377342  0.44310288
   0.84548122  0.81777515  0.10874542
   0.36073150  0.63593722  0.75803426
   0.28856407  0.66895013  0.44892815
   0.22695226  0.69398786  0.10905982
   0.13815682  0.75480426  0.79257591
   0.06347338  0.79103319  0.45054073
   0.99786801  0.81442383  0.12195503
   0.91232893  0.87428749  0.78245187
   0.43230004  0.67936462  0.42118746
   0.36235892  0.69741924  0.11678916
   0.28293879  0.75849494  0.77190582
   0.19847209  0.80036525  0.46459009
   0.14904228  0.80474340  0.12579348
   0.07339889  0.87242913  0.78878901
   0.99786614  0.91251580  0.44373077
   0.93361500  0.94387661  0.10431725
   0.84422100  0.99696752  0.78403020
   0.77933954  0.05218050  0.44849747
   0.73069184  0.07603245  0.10254432
   0.63207493  0.11826071  0.78093975
   0.55968161  0.18989970  0.44173179
   0.49402619  0.20029603  0.11514652
   0.07823582  0.94979000  0.11361154
   0.12429981  0.00739306  0.76455116
   0.22621003  0.05632875  0.45983220
   0.28314326  0.07177343  0.12043180
   0.34720751  0.12408869  0.79898538
   0.43156279  0.16811855  0.44426418
   0.85930912  0.91961749  0.43898429
   0.79113243  0.95223782  0.10790036
   0.68300484  0.99677136  0.76780737
   0.63706872  0.06951462  0.42951862
   0.58588097  0.07411063  0.10726918
   0.48754563  0.12391374  0.77772412
   0.13437331  0.92965773  0.44160116
   0.21290179  0.95848623  0.11910601
   0.27711110  0.01340537  0.76624649
   0.35669826  0.03536397  0.45896437
   0.43295564  0.07306391  0.12051869
   0.75897436  0.87790215  0.77349872
   0.72767204  0.91458986  0.44105050
   0.64602521  0.94885703  0.11697636
   0.54648131  0.00124899  0.76964410
   0.49322722  0.03910849  0.45790887
   0.19818988  0.88900774  0.78601810
   0.28201602  0.91534490  0.46227107
   0.36754404  0.95478716  0.10947739
   0.39960860  0.99773437  0.78730306
   0.70947953  0.81361545  0.12436907
   0.62881438  0.87902967  0.78017608
   0.57525960  0.90707353  0.45198806
   0.50404477  0.94350583  0.10548135
   0.28643720  0.84065683  0.11708514
   0.33238710  0.88783545  0.78048721
   0.43275536  0.91792821  0.44822621
   0.65253262  0.78677489  0.45645730
   0.56091861  0.82127984  0.11844177
   0.48708510  0.88124620  0.77608009
   0.36840530  0.79259368  0.43595857
   0.42117601  0.82104536  0.14120877
   0.58242875  0.75636372  0.77683652
   0.50495030  0.78916010  0.45221491
   0.43030496  0.75342423  0.76164813
   0.51349688  0.70514253  0.11627160
   0.00090071  0.98331104  0.21882612
   0.92716411  0.02662022  0.87116920
   0.85799636  0.08462584  0.56903215
   0.81203038  0.12698429  0.21623432
   0.70015288  0.14225475  0.88255669
   0.64893304  0.22084184  0.56032342
   0.58387866  0.25729966  0.23297216
   0.49606746  0.28253797  0.90193970
   0.43286973  0.33176590  0.56372886
   0.37292848  0.38457411  0.21630840
   0.29763113  0.41397764  0.85493039
   0.22408857  0.47069219  0.56827484
   0.05351803  0.03715431  0.85870808
   0.99202511  0.09925393  0.57826141
   0.94579572  0.12322109  0.21805704
   0.84916016  0.15597451  0.86629151
   0.78742745  0.21251799  0.55592815
   0.72702820  0.25296560  0.22062707
   0.62688374  0.28145577  0.87052193
   0.55857104  0.34727706  0.55158000
   0.50425157  0.37434760  0.21354705
   0.42625515  0.41525251  0.86268681
   0.35393149  0.46782713  0.55325470
   0.28143942  0.51582298  0.24241951
   0.13438588  0.10166812  0.56799395
   0.04591468  0.11622618  0.23745169
   0.99082382  0.17094614  0.90453924
   0.92557795  0.22478987  0.55742711
   0.86390350  0.25395817  0.21550294
   0.75330071  0.28431549  0.89012903
   0.70822155  0.34796394  0.55825385
   0.66192109  0.37061131  0.20107625
   0.56615558  0.40365492  0.90860938
   0.49457682  0.46723011  0.55347335
   0.42712565  0.50910856  0.19439006
   0.37538938  0.53593741  0.87355762
   0.21884892  0.12553698  0.24323663
   0.13291630  0.18727509  0.91241231
   0.06869596  0.22332460  0.57212594
   0.99751550  0.25697949  0.22803808
   0.93018732  0.28651110  0.88893373
   0.85906285  0.33484187  0.55694717
   0.79594249  0.38715617  0.21474968
   0.70981745  0.41661634  0.87280168
   0.63943856  0.47826657  0.55066982
   0.56640953  0.49676968  0.20703704
   0.50052976  0.53890475  0.87900242
   0.41995449  0.57102533  0.54493969
   0.28043115  0.15568236  0.90881671
   0.21712313  0.21663694  0.54212868
   0.14457328  0.25440511  0.24070647
   0.06180900  0.29082959  0.89050897
   0.00659630  0.33377650  0.54702633
   0.93510646  0.38104849  0.21367785
   0.84974804  0.39582844  0.86746254
   0.79444517  0.44076804  0.54900763
   0.72641612  0.51742284  0.20606309
   0.63749845  0.54394640  0.88820544
   0.57350748  0.58398622  0.58306027
   0.50273837  0.63437637  0.21284022
   0.36906208  0.22385248  0.56111901
   0.30002675  0.25250042  0.23170134
   0.21355005  0.28607187  0.89444644
   0.14536812  0.34661553  0.54653918
   0.07753293  0.37197171  0.22719596
   0.96927461  0.41946740  0.87953515
   0.94886677  0.45005323  0.54184842
   0.86838593  0.49126175  0.19480502
   0.79566598  0.53948110  0.89015792
   0.72185641  0.56823802  0.56216272
   0.63409004  0.61230377  0.19880905
   0.58368788  0.68195562  0.89332527
   0.42373934  0.26013838  0.20350042
   0.35793249  0.29364797  0.88649716
   0.29387440  0.34576643  0.55754747
   0.21743992  0.37660281  0.21480323
   0.13546515  0.43100200  0.90252902
   0.09021895  0.46394313  0.51999164
   0.00784673  0.49357923  0.21653020
   0.93408077  0.54339273  0.87347739
   0.86256925  0.59486111  0.53105709
   0.78424801  0.62280771  0.20675520
   0.72255509  0.66848245  0.89370319
   0.63877930  0.69471650  0.56521590
   0.14471880  0.51165623  0.21734126
   0.07448879  0.53608586  0.90496640
   0.01219972  0.58780338  0.55125874
   0.93055016  0.62515222  0.20091720
   0.87623330  0.65760204  0.90731409
   0.78878928  0.71102932  0.55762209
   0.70804095  0.73884610  0.21497692
   0.22073023  0.54781014  0.89838053
   0.14297033  0.59220694  0.56212555
   0.06668287  0.63525966  0.21228220
   0.02163622  0.66921406  0.88757075
   0.92604507  0.71724972  0.54251021
   0.85894704  0.75803839  0.21128802
   0.79342269  0.79203767  0.89354561
   0.26848468  0.60190594  0.55513461
   0.21228602  0.63126942  0.23134238
   0.15966510  0.66493526  0.89990524
   0.07385647  0.71451702  0.55533679
   0.01060112  0.73636533  0.21899253
   0.92956996  0.78836467  0.91426708
   0.87049497  0.83943952  0.54434770
   0.33589900  0.61977580  0.21121905
   0.31456340  0.65222172  0.88291808
   0.20361177  0.71194471  0.58156437
   0.14388070  0.74532373  0.24125325
   0.07228463  0.79093061  0.90146438
   0.99237425  0.84909679  0.55534977
   0.92859359  0.86078742  0.21669446
   0.45200434  0.64300430  0.87978985
   0.35199665  0.70625672  0.54256155
   0.28155274  0.75379598  0.22951549
   0.21779327  0.79926003  0.90330702
   0.14030889  0.85395995  0.56207915
   0.06379803  0.86562183  0.21058744
   0.98195408  0.90526186  0.89879993
   0.91504848  0.96647522  0.56100214
   0.87009619  0.00822502  0.22795505
   0.75938987  0.02979151  0.86387208
   0.72803132  0.07869546  0.55165081
   0.68037017  0.11952451  0.22087377
   0.54609763  0.17144254  0.88127512
   0.50262820  0.21404932  0.55398844
   0.07937550  0.96419810  0.55673674
   0.13380644  0.00036104  0.22804175
   0.19355927  0.04063648  0.91771751
   0.28874619  0.08742564  0.57024125
   0.36800111  0.12080632  0.22476255
   0.40491758  0.17392546  0.91589481
   0.85273683  0.91369035  0.88239680
   0.78548691  0.95875843  0.55309430
   0.72497174  0.01150094  0.22591468
   0.61691447  0.04060403  0.88455778
   0.57337175  0.09451634  0.53712216
   0.52306506  0.13370080  0.21375843
   0.13593297  0.91907690  0.90166799
   0.21059327  0.96685004  0.54528309
   0.28963170  0.01424387  0.22405407
   0.35614677  0.04546305  0.90344195
   0.43238825  0.08372491  0.56594763
   0.77200785  0.89494839  0.20712144
   0.68784405  0.91750644  0.89421616
   0.63957412  0.96406143  0.54256904
   0.57280470  0.01287377  0.22101858
   0.47144446  0.01999750  0.89255428
   0.21042609  0.87139607  0.22641057
   0.28158024  0.92914919  0.89756103
   0.34787940  0.95629822  0.55799365
   0.43976442  0.02576280  0.21965600
   0.73588213  0.81920088  0.55606095
   0.63964759  0.87554020  0.21711139
   0.54988599  0.91569670  0.89104507
   0.49887542  0.95270423  0.54400345
   0.28255741  0.81801627  0.55676901
   0.36479351  0.88965777  0.24063786
   0.40418671  0.89533126  0.91490146
   0.64322391  0.80997862  0.89285922
   0.58356785  0.82443588  0.55346655
   0.49896467  0.88677534  0.23629071
   0.34484857  0.79138532  0.88662664
   0.42219959  0.82905014  0.55742522
   0.57916817  0.75692831  0.22582910
   0.50584224  0.79192951  0.89932742
   0.41771584  0.75211183  0.22337768
   0.50104576  0.71110128  0.54561585
