 432 432   0   0
  0.1915683E+02  0.2022720E-08  0.2022720E-08  0.2022720E-08  0.5000000E-15
  1.000000000000000E-004
  CAR 
 Li                                      
      3.76426319     -3.36152701  301      0.54840123      1.00000000
     -3.362  0.0000E+00  0.0000E+00
     -3.338  0.0000E+00  0.0000E+00
     -3.314  0.0000E+00  0.0000E+00
     -3.290  0.0000E+00  0.0000E+00
     -3.267  0.0000E+00  0.0000E+00
     -3.243  0.0000E+00  0.0000E+00
     -3.219  0.0000E+00  0.0000E+00
     -3.195  0.4498E-11  0.1068E-12
     -3.172  0.1156E-07  0.2746E-09
     -3.148  0.8712E-05  0.2072E-06
     -3.124  0.1945E-02  0.4640E-04
     -3.100  0.1304E+00  0.3144E-02
     -3.076  0.2676E+01  0.6671E-01
     -3.053  0.1720E+02  0.4753E+00
     -3.029  0.3536E+02  0.1315E+01
     -3.005  0.2348E+02  0.1873E+01
     -2.981  0.5057E+01  0.1993E+01
     -2.958  0.1918E+01  0.2039E+01
     -2.934  0.1725E+02  0.2448E+01
     -2.910  0.6650E+02  0.4028E+01
     -2.886  0.9699E+02  0.6332E+01
     -2.863  0.5623E+02  0.7667E+01
     -2.839  0.1302E+02  0.7977E+01
     -2.815  0.4281E+01  0.8078E+01
     -2.791  0.2542E+02  0.8682E+01
     -2.768  0.7592E+02  0.1049E+02
     -2.744  0.9194E+02  0.1267E+02
     -2.720  0.4628E+02  0.1377E+02
     -2.696  0.1087E+02  0.1403E+02
     -2.673  0.1803E+02  0.1445E+02
     -2.649  0.6762E+02  0.1606E+02
     -2.625  0.1149E+03  0.1879E+02
     -2.601  0.9440E+02  0.2103E+02
     -2.578  0.3573E+02  0.2188E+02
     -2.554  0.1197E+02  0.2217E+02
     -2.530  0.4374E+02  0.2320E+02
     -2.506  0.1192E+03  0.2604E+02
     -2.483  0.1640E+03  0.2993E+02
     -2.459  0.1204E+03  0.3279E+02
     -2.435  0.4375E+02  0.3383E+02
     -2.411  0.9070E+01  0.3405E+02
     -2.388  0.2238E+02  0.3458E+02
     -2.364  0.7658E+02  0.3640E+02
     -2.340  0.9770E+02  0.3872E+02
     -2.316  0.4617E+02  0.3981E+02
     -2.293  0.1357E+02  0.4014E+02
     -2.269  0.3947E+02  0.4107E+02
     -2.245  0.1108E+03  0.4371E+02
     -2.221  0.1576E+03  0.4745E+02
     -2.198  0.1264E+03  0.5045E+02
     -2.174  0.5528E+02  0.5177E+02
     -2.150  0.2680E+02  0.5240E+02
     -2.126  0.8019E+02  0.5431E+02
     -2.103  0.1744E+03  0.5845E+02
     -2.079  0.2157E+03  0.6357E+02
     -2.055  0.1696E+03  0.6760E+02
     -2.031  0.8027E+02  0.6951E+02
     -2.008  0.2121E+02  0.7001E+02
     -1.984  0.2278E+02  0.7055E+02
     -1.960  0.6983E+02  0.7221E+02
     -1.936  0.9315E+02  0.7442E+02
     -1.913  0.5345E+02  0.7569E+02
     -1.889  0.2216E+02  0.7622E+02
     -1.865  0.5650E+02  0.7756E+02
     -1.841  0.1365E+03  0.8080E+02
     -1.818  0.1787E+03  0.8505E+02
     -1.794  0.1400E+03  0.8838E+02
     -1.770  0.5918E+02  0.8978E+02
     -1.746  0.2942E+02  0.9048E+02
     -1.723  0.8640E+02  0.9253E+02
     -1.699  0.1769E+03  0.9673E+02
     -1.675  0.2155E+03  0.1019E+03
     -1.651  0.1702E+03  0.1059E+03
     -1.628  0.7445E+02  0.1077E+03
     -1.604  0.2552E+02  0.1083E+03
     -1.580  0.6178E+02  0.1097E+03
     -1.556  0.1385E+03  0.1130E+03
     -1.533  0.1604E+03  0.1168E+03
     -1.509  0.1014E+03  0.1192E+03
     -1.485  0.4670E+02  0.1204E+03
     -1.461  0.8062E+02  0.1223E+03
     -1.438  0.1610E+03  0.1261E+03
     -1.414  0.2022E+03  0.1309E+03
     -1.390  0.1767E+03  0.1351E+03
     -1.366  0.9863E+02  0.1374E+03
     -1.343  0.5364E+02  0.1387E+03
     -1.319  0.1042E+03  0.1412E+03
     -1.295  0.1893E+03  0.1457E+03
     -1.271  0.2133E+03  0.1507E+03
     -1.248  0.1478E+03  0.1543E+03
     -1.224  0.6196E+02  0.1557E+03
     -1.200  0.3102E+02  0.1565E+03
     -1.176  0.7817E+02  0.1583E+03
     -1.153  0.1461E+03  0.1618E+03
     -1.129  0.1483E+03  0.1653E+03
     -1.105  0.8645E+02  0.1674E+03
     -1.081  0.3692E+02  0.1682E+03
     -1.058  0.6007E+02  0.1697E+03
     -1.034  0.1220E+03  0.1726E+03
     -1.010  0.1464E+03  0.1760E+03
     -0.986  0.1146E+03  0.1788E+03
     -0.963  0.8474E+02  0.1808E+03
     -0.939  0.1345E+03  0.1840E+03
     -0.915  0.2178E+03  0.1892E+03
     -0.891  0.2586E+03  0.1953E+03
     -0.868  0.2564E+03  0.2014E+03
     -0.844  0.2126E+03  0.2064E+03
     -0.820  0.1275E+03  0.2095E+03
     -0.796  0.9725E+02  0.2118E+03
     -0.772  0.1653E+03  0.2157E+03
     -0.749  0.2025E+03  0.2205E+03
     -0.725  0.1707E+03  0.2246E+03
     -0.701  0.1032E+03  0.2270E+03
     -0.677  0.5754E+02  0.2284E+03
     -0.654  0.8468E+02  0.2304E+03
     -0.630  0.1488E+03  0.2339E+03
     -0.606  0.1725E+03  0.2380E+03
     -0.582  0.1253E+03  0.2410E+03
     -0.559  0.7915E+02  0.2429E+03
     -0.535  0.1219E+03  0.2458E+03
     -0.511  0.1959E+03  0.2504E+03
     -0.487  0.2281E+03  0.2558E+03
     -0.464  0.2136E+03  0.2609E+03
     -0.440  0.1620E+03  0.2648E+03
     -0.416  0.1222E+03  0.2677E+03
     -0.392  0.1050E+03  0.2702E+03
     -0.369  0.6446E+02  0.2717E+03
     -0.345  0.3870E+02  0.2726E+03
     -0.321  0.7746E+02  0.2745E+03
     -0.297  0.1546E+03  0.2781E+03
     -0.274  0.2155E+03  0.2832E+03
     -0.250  0.2271E+03  0.2886E+03
     -0.226  0.2037E+03  0.2935E+03
     -0.202  0.1777E+03  0.2977E+03
     -0.179  0.1497E+03  0.3013E+03
     -0.155  0.1513E+03  0.3048E+03
     -0.131  0.1884E+03  0.3093E+03
     -0.107  0.2181E+03  0.3145E+03
     -0.084  0.2300E+03  0.3200E+03
     -0.060  0.2211E+03  0.3252E+03
     -0.036  0.1852E+03  0.3296E+03
     -0.012  0.1368E+03  0.3329E+03
      0.011  0.1193E+03  0.3357E+03
      0.035  0.1332E+03  0.3389E+03
      0.059  0.1513E+03  0.3425E+03
      0.083  0.1716E+03  0.3465E+03
      0.106  0.2032E+03  0.3514E+03
      0.130  0.2207E+03  0.3566E+03
      0.154  0.2192E+03  0.3618E+03
      0.178  0.2216E+03  0.3671E+03
      0.201  0.2208E+03  0.3723E+03
      0.225  0.1919E+03  0.3769E+03
      0.249  0.1585E+03  0.3806E+03
      0.273  0.1598E+03  0.3844E+03
      0.296  0.1779E+03  0.3887E+03
      0.320  0.1815E+03  0.3930E+03
      0.344  0.1780E+03  0.3972E+03
      0.368  0.1654E+03  0.4011E+03
      0.391  0.1370E+03  0.4044E+03
      0.415  0.1361E+03  0.4076E+03
      0.439  0.1727E+03  0.4117E+03
      0.463  0.1861E+03  0.4161E+03
      0.486  0.1807E+03  0.4204E+03
      0.510  0.1886E+03  0.4249E+03
      0.534  0.1880E+03  0.4294E+03
      0.558  0.1810E+03  0.4337E+03
      0.581  0.1814E+03  0.4380E+03
      0.605  0.1843E+03  0.4424E+03
      0.629  0.1933E+03  0.4469E+03
      0.653  0.2000E+03  0.4517E+03
      0.676  0.1860E+03  0.4561E+03
      0.700  0.1828E+03  0.4605E+03
      0.724  0.1904E+03  0.4650E+03
      0.748  0.1861E+03  0.4694E+03
      0.771  0.1865E+03  0.4738E+03
      0.795  0.1933E+03  0.4784E+03
      0.819  0.2061E+03  0.4833E+03
      0.843  0.2169E+03  0.4885E+03
      0.866  0.2150E+03  0.4936E+03
      0.890  0.2125E+03  0.4986E+03
      0.914  0.2221E+03  0.5039E+03
      0.938  0.2312E+03  0.5094E+03
      0.961  0.2289E+03  0.5148E+03
      0.985  0.2273E+03  0.5202E+03
      1.009  0.2230E+03  0.5255E+03
      1.033  0.2196E+03  0.5307E+03
      1.056  0.2284E+03  0.5362E+03
      1.080  0.2258E+03  0.5415E+03
      1.104  0.2170E+03  0.5467E+03
      1.128  0.2125E+03  0.5517E+03
      1.151  0.2062E+03  0.5566E+03
      1.175  0.2007E+03  0.5614E+03
      1.199  0.2088E+03  0.5664E+03
      1.223  0.2192E+03  0.5716E+03
      1.246  0.2182E+03  0.5767E+03
      1.270  0.2196E+03  0.5820E+03
      1.294  0.2152E+03  0.5871E+03
      1.318  0.2132E+03  0.5921E+03
      1.341  0.2084E+03  0.5971E+03
      1.365  0.1946E+03  0.6017E+03
      1.389  0.1837E+03  0.6061E+03
      1.413  0.1860E+03  0.6105E+03
      1.437  0.1856E+03  0.6149E+03
      1.460  0.1776E+03  0.6191E+03
      1.484  0.1758E+03  0.6233E+03
      1.508  0.1855E+03  0.6277E+03
      1.532  0.1983E+03  0.6324E+03
      1.555  0.1864E+03  0.6368E+03
      1.579  0.1640E+03  0.6407E+03
      1.603  0.1562E+03  0.6444E+03
      1.627  0.1563E+03  0.6482E+03
      1.650  0.1470E+03  0.6517E+03
      1.674  0.1373E+03  0.6549E+03
      1.698  0.1397E+03  0.6582E+03
      1.722  0.1462E+03  0.6617E+03
      1.745  0.1559E+03  0.6654E+03
      1.769  0.1573E+03  0.6691E+03
      1.793  0.1566E+03  0.6729E+03
      1.817  0.1596E+03  0.6767E+03
      1.840  0.1576E+03  0.6804E+03
      1.864  0.1660E+03  0.6843E+03
      1.888  0.1711E+03  0.6884E+03
      1.912  0.1625E+03  0.6923E+03
      1.935  0.1579E+03  0.6960E+03
      1.959  0.1606E+03  0.6998E+03
      1.983  0.1599E+03  0.7036E+03
      2.007  0.1672E+03  0.7076E+03
      2.030  0.1705E+03  0.7116E+03
      2.054  0.1653E+03  0.7156E+03
      2.078  0.1626E+03  0.7194E+03
      2.102  0.1656E+03  0.7234E+03
      2.125  0.1808E+03  0.7277E+03
      2.149  0.1893E+03  0.7322E+03
      2.173  0.1763E+03  0.7364E+03
      2.197  0.1655E+03  0.7403E+03
      2.220  0.1632E+03  0.7442E+03
      2.244  0.1528E+03  0.7478E+03
      2.268  0.1384E+03  0.7511E+03
      2.292  0.1268E+03  0.7541E+03
      2.315  0.1292E+03  0.7572E+03
      2.339  0.1390E+03  0.7605E+03
      2.363  0.1410E+03  0.7638E+03
      2.387  0.1417E+03  0.7672E+03
      2.410  0.1297E+03  0.7703E+03
      2.434  0.1133E+03  0.7729E+03
      2.458  0.1137E+03  0.7756E+03
      2.482  0.1151E+03  0.7784E+03
      2.505  0.1185E+03  0.7812E+03
      2.529  0.1136E+03  0.7839E+03
      2.553  0.1031E+03  0.7863E+03
      2.577  0.1040E+03  0.7888E+03
      2.600  0.1026E+03  0.7912E+03
      2.624  0.8371E+02  0.7932E+03
      2.648  0.6389E+02  0.7948E+03
      2.672  0.3941E+02  0.7957E+03
      2.695  0.2081E+02  0.7962E+03
      2.719  0.3526E+02  0.7970E+03
      2.743  0.6367E+02  0.7985E+03
      2.767  0.7628E+02  0.8003E+03
      2.790  0.5922E+02  0.8018E+03
      2.814  0.4125E+02  0.8027E+03
      2.838  0.5082E+02  0.8039E+03
      2.862  0.6894E+02  0.8056E+03
      2.885  0.7780E+02  0.8074E+03
      2.909  0.7854E+02  0.8093E+03
      2.933  0.9479E+02  0.8115E+03
      2.957  0.1071E+03  0.8141E+03
      2.980  0.1035E+03  0.8165E+03
      3.004  0.1069E+03  0.8191E+03
      3.028  0.1169E+03  0.8219E+03
      3.052  0.1199E+03  0.8247E+03
      3.075  0.1243E+03  0.8277E+03
      3.099  0.1228E+03  0.8306E+03
      3.123  0.1135E+03  0.8333E+03
      3.147  0.1170E+03  0.8361E+03
      3.170  0.1184E+03  0.8389E+03
      3.194  0.1118E+03  0.8415E+03
      3.218  0.9867E+02  0.8439E+03
      3.242  0.8777E+02  0.8460E+03
      3.265  0.8453E+02  0.8480E+03
      3.289  0.8432E+02  0.8500E+03
      3.313  0.8868E+02  0.8521E+03
      3.337  0.1035E+03  0.8545E+03
      3.360  0.1160E+03  0.8573E+03
      3.384  0.1162E+03  0.8600E+03
      3.408  0.1052E+03  0.8625E+03
      3.432  0.8491E+02  0.8646E+03
      3.455  0.4631E+02  0.8657E+03
      3.479  0.1277E+02  0.8660E+03
      3.503  0.1450E+01  0.8660E+03
      3.527  0.5842E-01  0.8660E+03
      3.550  0.7662E-03  0.8660E+03
      3.574  0.3123E-05  0.8660E+03
      3.598  0.3855E-08  0.8660E+03
      3.622  0.1419E-11  0.8660E+03
      3.646  0.0000E+00  0.8660E+03
      3.669  0.0000E+00  0.8660E+03
      3.693  0.0000E+00  0.8660E+03
      3.717  0.0000E+00  0.8660E+03
      3.741  0.0000E+00  0.8660E+03
      3.764  0.0000E+00  0.8660E+03
