       N       E                     dE             d eps       ncg     rms          rms(c)
DAV:   1    -0.204895803991E+03   -0.20490E+03   -0.10653E+05  3464   0.661E+02
DAV:   2    -0.744282035035E+03   -0.53939E+03   -0.49218E+03  4012   0.691E+01
DAV:   3    -0.782534063521E+03   -0.38252E+02   -0.35020E+02  4408   0.146E+01
DAV:   4    -0.783805716172E+03   -0.12717E+01   -0.12544E+01  4032   0.292E+00
DAV:   5    -0.783836048242E+03   -0.30332E-01   -0.30285E-01  4168   0.470E-01    0.104E+01
DAV:   6    -0.787549609876E+03   -0.37136E+01   -0.13555E+01  4328   0.683E+00    0.106E+01
DAV:   7    -0.769411641172E+03    0.18138E+02   -0.12864E+01  4304   0.562E+00    0.429E+00
DAV:   8    -0.768155061325E+03    0.12566E+01   -0.76875E+00  3944   0.238E+00    0.230E+00
DAV:   9    -0.767947344732E+03    0.20772E+00   -0.25213E+00  3904   0.146E+00    0.144E+00
DAV:  10    -0.767897049094E+03    0.50296E-01   -0.52271E-01  4016   0.855E-01    0.112E+00
DAV:  11    -0.767782867758E+03    0.11418E+00   -0.17074E-01  3976   0.477E-01    0.518E-01
DAV:  12    -0.767784570815E+03   -0.17031E-02   -0.67374E-02  4056   0.256E-01    0.330E-01
DAV:  13    -0.767777129817E+03    0.74410E-02   -0.26679E-02  4024   0.190E-01    0.185E-01
DAV:  14    -0.767775329812E+03    0.18000E-02   -0.54468E-03  3968   0.840E-02    0.944E-02
DAV:  15    -0.767774959446E+03    0.37037E-03   -0.19402E-03  3832   0.444E-02    0.491E-02
DAV:  16    -0.767774986573E+03   -0.27128E-04   -0.49812E-04  4056   0.289E-02    0.371E-02
DAV:  17    -0.767774810095E+03    0.17648E-03   -0.25234E-04  4000   0.203E-02    0.146E-02
DAV:  18    -0.767774799389E+03    0.10706E-04   -0.87982E-05  3792   0.874E-03    0.794E-03
DAV:  19    -0.767774794446E+03    0.49431E-05   -0.16684E-05  2504   0.494E-03
   1 F= -.76777479E+03 E0= -.76773421E+03  d E =-.811687E-01
