Li                                      
           1
    20.227200    0.000000    0.000000
     0.000000   20.227200    0.000000
     0.000000    0.000000   20.227200
   Li
   432
Direct configuration=     1
   0.99957922  0.98815231  0.00312645
   0.91508321  0.08871655  0.09229069
   0.83991730  0.18913746  0.20799974
   0.77318056  0.25602326  0.25431699
   0.67897605  0.33221576  0.33763460
   0.57029150  0.40884538  0.41117885
   0.48027659  0.48012097  0.49985865
   0.40132076  0.56730479  0.56872902
   0.34093031  0.65688407  0.64523324
   0.26759883  0.75844263  0.77789157
   0.17493848  0.84712618  0.85330016
   0.09928670  0.93814820  0.91531408
   0.07123076  0.91893344  0.09937372
   0.99818319  0.00512847  0.18584563
   0.92774649  0.07663831  0.26878483
   0.83629355  0.14530538  0.32663538
   0.74339504  0.23088207  0.38933324
   0.65788773  0.34001977  0.47115897
   0.59098760  0.41211200  0.59347199
   0.49981574  0.47974816  0.66285337
   0.43398414  0.58219231  0.74157176
   0.36014273  0.64975073  0.84019934
   0.26207548  0.73717169  0.94763000
   0.16672705  0.83674792  0.99749908
   0.17178955  0.80345860  0.16775828
   0.09293013  0.93414729  0.25487507
   0.98907878  0.97790428  0.35703955
   0.91170283  0.08037669  0.42572444
   0.84647786  0.17193473  0.50330958
   0.74331741  0.25893238  0.55502492
   0.64837023  0.32325236  0.68001654
   0.59102782  0.39766898  0.75435984
   0.51244055  0.49489306  0.83223122
   0.44986950  0.59330971  0.93240973
   0.33940194  0.66829932  0.00042398
   0.27358677  0.74122200  0.07560083
   0.26037702  0.76848011  0.24651976
   0.15161119  0.83843918  0.30370620
   0.07862288  0.89329367  0.43311839
   0.99456563  0.01625790  0.49307908
   0.89998103  0.06474689  0.57637182
   0.84555430  0.17729985  0.66432439
   0.75945860  0.24319609  0.74565583
   0.69941041  0.31771525  0.83568560
   0.60843449  0.41005313  0.92327727
   0.53357939  0.49402142  0.01831779
   0.40706037  0.57380237  0.05707315
   0.33669687  0.66927738  0.16345738
   0.32017963  0.64962555  0.31628578
   0.24106748  0.75119120  0.38553276
   0.18567310  0.81299674  0.51540921
   0.10669782  0.88409559  0.56564321
   0.01051867  0.01447415  0.67864275
   0.92197764  0.08261473  0.75427804
   0.83105136  0.15816835  0.84894711
   0.76045214  0.23378976  0.89747979
   0.70339349  0.33001399  0.00731416
   0.60246116  0.38702529  0.09232977
   0.50999202  0.49589352  0.16935626
   0.41287544  0.60261807  0.25021980
   0.41742834  0.58922539  0.41145606
   0.33004083  0.68314400  0.47594661
   0.25221110  0.72984335  0.57425087
   0.19022093  0.82803678  0.64744015
   0.12873651  0.91914914  0.73677015
   0.00717658  0.00655525  0.83745415
   0.92748898  0.06432992  0.91503252
   0.83349431  0.15103315  0.00442407
   0.76145577  0.23184920  0.08442045
   0.68567698  0.30066271  0.14452380
   0.59881452  0.40362254  0.21866381
   0.49146979  0.50230173  0.34252319
   0.06776921  0.07119211  0.93557180
   0.96826578  0.16447220  0.00740207
   0.91000742  0.24768885  0.09812973
   0.83095819  0.36276019  0.16693753
   0.73599268  0.43453380  0.26352058
   0.64474880  0.49445563  0.32954438
   0.56106879  0.60307145  0.44712452
   0.47200815  0.67610113  0.47845145
   0.40818160  0.76182475  0.58335905
   0.33911231  0.82910479  0.63636310
   0.24921092  0.90158144  0.76511793
   0.18755626  0.01160031  0.84217596
   0.16880739  0.00557893  0.01074108
   0.07615119  0.09494431  0.10756321
   0.99636027  0.17421086  0.17203701
   0.92990927  0.27258934  0.25622971
   0.82051011  0.34046822  0.35411840
   0.76736349  0.44348415  0.41735525
   0.66158078  0.53346460  0.50580044
   0.57184877  0.59852453  0.59373000
   0.47922822  0.67774948  0.64282181
   0.39709953  0.71861072  0.74439965
   0.33975966  0.83766577  0.84663378
   0.25203966  0.90674706  0.93447027
   0.20872157  0.91801051  0.07278874
   0.16497756  0.01458005  0.15081089
   0.07234766  0.08568998  0.27977232
   0.98594931  0.17249867  0.34335690
   0.90353145  0.25076707  0.42973983
   0.82875619  0.33660299  0.48837344
   0.73709204  0.40739760  0.55802759
   0.68499109  0.50958663  0.66866522
   0.56486138  0.58315560  0.74246578
   0.48273265  0.69475226  0.82874840
   0.42229205  0.74343173  0.90210435
   0.32951442  0.85045167  0.01350982
   0.32896970  0.85135516  0.13833781
   0.23240597  0.90517757  0.24307904
   0.18164998  0.98532700  0.34208194
   0.09102402  0.08447556  0.44042191
   0.99817674  0.17879548  0.50214090
   0.92311512  0.27281010  0.59452240
   0.82522178  0.35039940  0.64678161
   0.76672845  0.42849092  0.75202993
   0.65825989  0.50811659  0.80807852
   0.56972118  0.57920762  0.91174018
   0.50024548  0.67376820  0.02264435
   0.41547225  0.76041830  0.08188639
   0.36623697  0.75984055  0.26579011
   0.33210261  0.85302783  0.33666367
   0.23413254  0.93607060  0.42598746
   0.18255474  0.00972598  0.50092210
   0.08193750  0.09127996  0.58677551
   0.97732059  0.16283453  0.66600654
   0.88333603  0.26430925  0.74665948
   0.83389068  0.36377827  0.83354779
   0.77105042  0.43527827  0.89590621
   0.65807728  0.49916814  0.99452715
   0.59149246  0.61828794  0.11059330
   0.46427112  0.67660727  0.18103382
   0.49477269  0.68630983  0.32063184
   0.41190739  0.78635178  0.41466139
   0.33454555  0.86230649  0.48916400
   0.24614611  0.93546772  0.58624918
   0.18647872  0.02858128  0.68480543
   0.07255249  0.09346929  0.76264217
   0.98723067  0.17417747  0.82928083
   0.89157598  0.26125279  0.92076477
   0.82537414  0.33700973  0.01438211
   0.74839407  0.47079936  0.06634825
   0.67518815  0.52233033  0.14994837
   0.55744187  0.58774978  0.25546518
   0.15247590  0.16278524  0.85292691
   0.07255427  0.23944231  0.93642723
   0.99738525  0.32452406  0.01119287
   0.92427210  0.45732356  0.06574078
   0.81609353  0.54693985  0.15097921
   0.73870134  0.61328934  0.24711179
   0.62282379  0.66509977  0.34003627
   0.56509636  0.77121571  0.42803440
   0.47148366  0.86709087  0.49871174
   0.38638252  0.95277748  0.60842027
   0.32961508  0.99948164  0.69409860
   0.25311365  0.09207513  0.76238464
   0.24485041  0.08228643  0.92474551
   0.15262785  0.16646878  0.99099751
   0.07599697  0.24068326  0.09175656
   0.00662866  0.35215120  0.15747284
   0.90097852  0.39847610  0.25651705
   0.83204930  0.52428559  0.32181888
   0.73520342  0.58690905  0.40438494
   0.66193995  0.68837798  0.50295739
   0.56305544  0.77634841  0.59199848
   0.47143887  0.83425795  0.67858226
   0.40120319  0.93304523  0.76620648
   0.33293959  0.00583406  0.83387626
   0.33572994  0.99982432  0.00877103
   0.24963248  0.08692992  0.06622437
   0.13721703  0.14386167  0.15488174
   0.06194973  0.25965257  0.26926796
   0.99390566  0.34983011  0.35103462
   0.92122688  0.41779459  0.44792562
   0.84248863  0.50651367  0.51002954
   0.73722938  0.58409254  0.57531653
   0.65790805  0.67918746  0.66417394
   0.55931389  0.73857081  0.71642895
   0.48401982  0.81453374  0.83941389
   0.42583976  0.92609931  0.92884593
   0.42346933  0.91457078  0.07676068
   0.31900752  0.96732235  0.14651398
   0.22553643  0.07644830  0.25564642
   0.16931572  0.16709064  0.34440875
   0.09756586  0.24875458  0.40833488
   0.01621830  0.32743558  0.48935787
   0.92722255  0.42228969  0.60206135
   0.85108984  0.51840995  0.65007689
   0.74634279  0.59194583  0.74795389
   0.63145791  0.65974745  0.80189258
   0.56054455  0.73855001  0.90839149
   0.47238814  0.80413964  0.98499670
   0.46761133  0.85288068  0.18454435
   0.41480022  0.93238404  0.23674220
   0.32320785  0.00068955  0.32762799
   0.24680056  0.09794453  0.40309456
   0.17785131  0.17003722  0.49075785
   0.10755236  0.26467446  0.57230486
   0.01518339  0.32901965  0.66667069
   0.93106840  0.40895985  0.74427459
   0.84261525  0.53143441  0.81247880
   0.73634676  0.59229065  0.89893067
   0.64899006  0.68567079  0.01006137
   0.55352367  0.78434418  0.07841474
   0.54824424  0.77170893  0.23552223
   0.48503780  0.84559741  0.32638773
   0.42635062  0.93377513  0.41070642
   0.34140322  0.01808198  0.49722890
   0.24161947  0.09611956  0.56768138
   0.17718868  0.16451582  0.66897237
   0.09725701  0.24551052  0.73451802
   0.99546873  0.34316113  0.85206568
   0.89674829  0.43818472  0.92653240
   0.81179478  0.54970662  0.99090437
   0.75215343  0.61063497  0.09970839
   0.66176572  0.70480496  0.16056699
   0.23599959  0.24979144  0.76168308
   0.18969054  0.31573060  0.86130413
   0.07844885  0.42804912  0.93524113
   0.01520212  0.52976108  0.99173701
   0.90801420  0.58152399  0.09833565
   0.82798376  0.66884941  0.13633502
   0.74251324  0.74823509  0.26952720
   0.65898194  0.82810938  0.33453482
   0.57744537  0.89070917  0.42468539
   0.48910944  0.99476220  0.49599969
   0.40086140  0.10852331  0.59425586
   0.33002231  0.15685729  0.68021431
   0.30530471  0.17777430  0.85777409
   0.25565635  0.22841422  0.94146570
   0.15705723  0.34657430  0.00465365
   0.07732497  0.40510594  0.06507056
   0.00443487  0.51220426  0.18259834
   0.91199564  0.58533139  0.24820130
   0.81981954  0.67050016  0.38236842
   0.71627354  0.75396201  0.43409303
   0.66693724  0.83118433  0.55574720
   0.55745906  0.91128626  0.59763416
   0.48667743  0.98910096  0.69102794
   0.40030022  0.08900841  0.75597100
   0.40138738  0.05291370  0.90590247
   0.34429706  0.16174056  0.99921460
   0.24905700  0.24997634  0.06538969
   0.16576616  0.33451471  0.15579891
   0.06799917  0.43814153  0.26378448
   0.99778578  0.45671566  0.35097038
   0.92288764  0.58492968  0.40091098
   0.83108676  0.65887685  0.50257016
   0.75598117  0.72406436  0.59645788
   0.66876146  0.82861278  0.67684076
   0.56542026  0.91756500  0.73404298
   0.48866104  0.01843872  0.81656329
   0.49972247  0.00082495  0.99973491
   0.39838734  0.07332204  0.09389985
   0.31332313  0.16856720  0.15831588
   0.21846878  0.22424031  0.23008864
   0.15998884  0.33974413  0.32830169
   0.10896507  0.42185712  0.42506004
   0.01021195  0.50366548  0.50532481
   0.94160312  0.59422908  0.60593679
   0.84453875  0.65071919  0.68288925
   0.76780352  0.73744248  0.74288299
   0.63465364  0.83421886  0.79817923
   0.57015065  0.92803385  0.91670868
   0.58199180  0.89080663  0.08160374
   0.51834607  0.00392149  0.17259581
   0.41308147  0.08044110  0.22914168
   0.31419491  0.16116000  0.30076200
   0.25432598  0.24577072  0.41759553
   0.17935370  0.33076006  0.50778657
   0.08469362  0.37791985  0.61227367
   0.04060138  0.48741455  0.69696752
   0.93829203  0.57245094  0.74065040
   0.85135891  0.63534021  0.85009743
   0.74548654  0.73871407  0.87779138
   0.67095893  0.84194393  0.97338594
   0.68364844  0.83721904  0.18413243
   0.58999416  0.92272905  0.25198597
   0.51013555  0.00753699  0.33569430
   0.40657477  0.09143389  0.42048583
   0.31697975  0.16060041  0.50344746
   0.26800426  0.26149593  0.59113167
   0.20894290  0.33200265  0.69608147
   0.11189944  0.39325211  0.75653803
   0.02428647  0.48864228  0.82653754
   0.94923141  0.57367451  0.89944980
   0.83808725  0.65432754  0.97682621
   0.75568738  0.75133453  0.07079875
   0.34193279  0.35267783  0.69015084
   0.26730972  0.44346024  0.78377490
   0.15263087  0.50099860  0.83741967
   0.10690828  0.62734546  0.89173518
   0.99864319  0.67672911  0.97291014
   0.89938589  0.75343811  0.07177292
   0.82172239  0.82409554  0.17632958
   0.77116513  0.89444042  0.26249489
   0.69390543  0.99499469  0.34188236
   0.57585054  0.08272463  0.41261889
   0.50194140  0.16462093  0.51225342
   0.41150763  0.24971772  0.59934324
   0.40827660  0.25347173  0.76125074
   0.32709015  0.32317225  0.86214153
   0.24490584  0.43899391  0.93297049
   0.16350106  0.51658978  0.01334371
   0.07331111  0.57959684  0.08396805
   0.01617486  0.64488782  0.16163597
   0.91816823  0.72969382  0.26772274
   0.82590161  0.81648443  0.35590393
   0.73557629  0.88470240  0.42085640
   0.65170852  0.99152200  0.49163008
   0.53004432  0.08296336  0.59095485
   0.48651998  0.17603608  0.71020580
   0.48787454  0.14462735  0.81775904
   0.42910142  0.27406441  0.92383322
   0.34504360  0.33853007  0.98101849
   0.26349611  0.41134275  0.07053230
   0.17618995  0.49345567  0.15669489
   0.11159228  0.57325486  0.25137032
   0.01202278  0.66253562  0.33442067
   0.91788178  0.73208431  0.40484549
   0.84698619  0.81132120  0.52048351
   0.72254394  0.92238051  0.59057459
   0.65612540  0.98297670  0.65568552
   0.60306442  0.08330439  0.74382955
   0.59451906  0.07129360  0.91688738
   0.49791428  0.14200131  0.97398110
   0.41328394  0.23116407  0.06056938
   0.33401420  0.32768009  0.16586466
   0.24652543  0.41365217  0.23153593
   0.19890460  0.49892198  0.31708756
   0.11468528  0.58214822  0.39048367
   0.99652692  0.64779743  0.47953015
   0.93632814  0.72444153  0.59882927
   0.84469834  0.83750109  0.64864210
   0.75209976  0.92887901  0.73797097
   0.65546600  0.97695872  0.82861083
   0.67022416  0.97782953  0.01094044
   0.59415552  0.08204918  0.08029383
   0.49154603  0.16009065  0.15985719
   0.39880880  0.24961834  0.25207713
   0.33341524  0.32832776  0.30858076
   0.25432134  0.41753572  0.38515190
   0.16399619  0.48114148  0.50832888
   0.08233837  0.56747691  0.57807579
   0.03579375  0.64661962  0.67865162
   0.90461280  0.76919227  0.75445045
   0.84235826  0.84147307  0.84051505
   0.76014711  0.91104555  0.89441309
   0.76084687  0.91786311  0.08682394
   0.64599401  0.99946141  0.14906018
   0.60730365  0.09519025  0.26129993
   0.48794946  0.15921106  0.31204150
   0.41353308  0.25201944  0.40638700
   0.35130201  0.33627166  0.50033075
   0.26684955  0.42387225  0.58433800
   0.17479577  0.48398571  0.67303443
   0.11382690  0.59517361  0.76381723
   0.99818464  0.68105547  0.83378736
   0.91382361  0.76847151  0.90408743
   0.82786619  0.84544534  0.99561761
   0.40717255  0.40164162  0.57882049
   0.35419469  0.48923754  0.65382909
   0.26593862  0.57602320  0.76586579
   0.19592708  0.70794093  0.84236491
   0.10200102  0.74353314  0.92751191
   0.97072936  0.86123628  0.99782047
   0.91095320  0.90830691  0.08396344
   0.83292257  0.00483457  0.15622141
   0.74088735  0.06641704  0.23196382
   0.65781227  0.15441134  0.31632032
   0.56649863  0.21766149  0.39970479
   0.49285590  0.31848434  0.50667216
   0.50230977  0.33590214  0.68730637
   0.41206149  0.40355090  0.76043064
   0.35728714  0.50740885  0.84451760
   0.25932132  0.57732678  0.93155176
   0.16523011  0.65638330  0.01948790
   0.06194033  0.77727879  0.08074973
   0.97497544  0.84314949  0.18664128
   0.90252207  0.88223742  0.23202867
   0.83945164  0.99367539  0.36056865
   0.75399495  0.08314760  0.41337903
   0.65479563  0.13943243  0.52498131
   0.57425409  0.27093705  0.58686237
   0.58784297  0.23101887  0.75380358
   0.51614148  0.32707481  0.82617972
   0.42283551  0.43519528  0.92862375
   0.36693151  0.49238733  0.99373245
   0.26343832  0.56790183  0.08433616
   0.15275974  0.65768102  0.14106066
   0.08054469  0.73858597  0.21560643
   0.01618799  0.83635784  0.33152627
   0.91761596  0.87813477  0.43673351
   0.82720106  0.96108617  0.50200585
   0.75491421  0.06009439  0.59083985
   0.65493497  0.15856984  0.64421295
   0.67729771  0.15993195  0.83820451
   0.59149374  0.23182502  0.90888006
   0.50917195  0.32685429  0.98928260
   0.41479366  0.40590423  0.09974801
   0.35198117  0.48669324  0.17016559
   0.25424934  0.58809484  0.22926591
   0.18107325  0.66911589  0.32414619
   0.09111186  0.78669869  0.41225246
   0.00451538  0.82893277  0.50740580
   0.93097472  0.90288217  0.59127710
   0.87122955  0.96861884  0.67959650
   0.73633891  0.06487012  0.72875075
   0.74031194  0.06134614  0.90678490
   0.68151862  0.15079160  0.96347789
   0.58533062  0.20890381  0.05101052
   0.51767144  0.29958216  0.13137702
   0.45201502  0.38158950  0.24096875
   0.33542237  0.49711865  0.31941898
   0.24515612  0.58306560  0.39826620
   0.16084321  0.64648948  0.47216206
   0.08369505  0.72253117  0.57504395
   0.03195305  0.81875886  0.67073138
   0.94406254  0.90254869  0.75079586
   0.83625330  0.00507956  0.82660373
   0.83142385  0.00489709  0.98943789
   0.76312040  0.08838356  0.09643042
   0.67612492  0.15778789  0.15468774
   0.58787467  0.25208476  0.25927742
   0.52298877  0.34355203  0.33447419
   0.42646788  0.40612636  0.39274529
   0.31943280  0.47753021  0.48426842
   0.26550395  0.58331640  0.56314300
   0.18975163  0.68949399  0.66623426
   0.11840699  0.74173825  0.75743547
   0.02805527  0.83153923  0.84149487
   0.91128722  0.93879241  0.91008147
