 432 432   0   0
  0.1857636E+02  0.2002080E-08  0.2002080E-08  0.2002080E-08  0.5000000E-15
  1.000000000000000E-004
  CAR 
 Li                                      
      4.02866342     -3.32447304  301      0.64191245      1.00000000
     -3.324  0.0000E+00  0.0000E+00
     -3.300  0.0000E+00  0.0000E+00
     -3.275  0.0000E+00  0.0000E+00
     -3.251  0.0000E+00  0.0000E+00
     -3.226  0.0000E+00  0.0000E+00
     -3.202  0.0000E+00  0.0000E+00
     -3.177  0.0000E+00  0.0000E+00
     -3.153  0.6976E-12  0.1710E-13
     -3.128  0.2959E-08  0.7254E-10
     -3.104  0.3395E-05  0.8328E-07
     -3.079  0.1064E-02  0.2617E-04
     -3.055  0.9260E-01  0.2296E-02
     -3.030  0.2284E+01  0.5828E-01
     -3.006  0.1641E+02  0.4604E+00
     -2.981  0.3521E+02  0.1324E+01
     -2.957  0.2288E+02  0.1884E+01
     -2.932  0.4542E+01  0.1996E+01
     -2.908  0.2736E+01  0.2063E+01
     -2.883  0.2451E+02  0.2663E+01
     -2.859  0.7983E+02  0.4620E+01
     -2.834  0.9211E+02  0.6878E+01
     -2.810  0.3936E+02  0.7843E+01
     -2.785  0.6603E+01  0.8004E+01
     -2.761  0.9120E+01  0.8228E+01
     -2.736  0.4961E+02  0.9444E+01
     -2.712  0.9626E+02  0.1180E+02
     -2.687  0.6907E+02  0.1350E+02
     -2.663  0.1879E+02  0.1396E+02
     -2.638  0.4896E+01  0.1408E+02
     -2.614  0.2967E+02  0.1480E+02
     -2.589  0.9877E+02  0.1723E+02
     -2.565  0.1238E+03  0.2026E+02
     -2.540  0.5980E+02  0.2173E+02
     -2.516  0.1220E+02  0.2202E+02
     -2.491  0.2024E+02  0.2252E+02
     -2.467  0.8902E+02  0.2470E+02
     -2.442  0.1692E+03  0.2885E+02
     -2.418  0.1458E+03  0.3242E+02
     -2.393  0.5560E+02  0.3379E+02
     -2.369  0.1016E+02  0.3403E+02
     -2.344  0.1939E+02  0.3451E+02
     -2.320  0.7002E+02  0.3623E+02
     -2.295  0.9607E+02  0.3858E+02
     -2.271  0.4873E+02  0.3978E+02
     -2.246  0.9696E+01  0.4001E+02
     -2.222  0.1606E+02  0.4041E+02
     -2.197  0.8155E+02  0.4241E+02
     -2.172  0.1680E+03  0.4652E+02
     -2.148  0.1521E+03  0.5025E+02
     -2.123  0.6154E+02  0.5176E+02
     -2.099  0.1926E+02  0.5223E+02
     -2.074  0.6242E+02  0.5376E+02
     -2.050  0.1722E+03  0.5798E+02
     -2.025  0.2377E+03  0.6381E+02
     -2.001  0.1773E+03  0.6815E+02
     -1.976  0.6534E+02  0.6975E+02
     -1.952  0.1425E+02  0.7010E+02
     -1.927  0.3279E+02  0.7091E+02
     -1.903  0.8284E+02  0.7294E+02
     -1.878  0.8368E+02  0.7499E+02
     -1.854  0.3543E+02  0.7586E+02
     -1.829  0.1105E+02  0.7613E+02
     -1.805  0.4523E+02  0.7723E+02
     -1.780  0.1425E+03  0.8073E+02
     -1.756  0.1957E+03  0.8552E+02
     -1.731  0.1335E+03  0.8880E+02
     -1.707  0.4503E+02  0.8990E+02
     -1.682  0.2657E+02  0.9055E+02
     -1.658  0.9810E+02  0.9296E+02
     -1.633  0.2019E+03  0.9790E+02
     -1.609  0.2228E+03  0.1034E+03
     -1.584  0.1404E+03  0.1068E+03
     -1.560  0.4488E+02  0.1079E+03
     -1.535  0.2490E+02  0.1085E+03
     -1.511  0.8669E+02  0.1106E+03
     -1.486  0.1605E+03  0.1146E+03
     -1.462  0.1429E+03  0.1181E+03
     -1.437  0.6549E+02  0.1197E+03
     -1.413  0.3279E+02  0.1205E+03
     -1.388  0.1005E+03  0.1229E+03
     -1.364  0.2172E+03  0.1283E+03
     -1.339  0.2320E+03  0.1340E+03
     -1.315  0.1281E+03  0.1371E+03
     -1.290  0.3909E+02  0.1381E+03
     -1.266  0.4988E+02  0.1393E+03
     -1.241  0.1528E+03  0.1430E+03
     -1.217  0.2355E+03  0.1488E+03
     -1.192  0.1936E+03  0.1535E+03
     -1.168  0.8398E+02  0.1556E+03
     -1.143  0.2516E+02  0.1562E+03
     -1.119  0.5745E+02  0.1576E+03
     -1.094  0.1352E+03  0.1609E+03
     -1.070  0.1550E+03  0.1647E+03
     -1.045  0.9756E+02  0.1671E+03
     -1.020  0.3281E+02  0.1679E+03
     -0.996  0.2228E+02  0.1685E+03
     -0.971  0.8022E+02  0.1704E+03
     -0.947  0.1495E+03  0.1741E+03
     -0.922  0.1426E+03  0.1776E+03
     -0.898  0.8514E+02  0.1797E+03
     -0.873  0.8963E+02  0.1819E+03
     -0.849  0.1952E+03  0.1867E+03
     -0.824  0.2857E+03  0.1937E+03
     -0.800  0.2928E+03  0.2008E+03
     -0.775  0.2247E+03  0.2064E+03
     -0.751  0.1235E+03  0.2094E+03
     -0.726  0.8993E+02  0.2116E+03
     -0.702  0.1650E+03  0.2156E+03
     -0.677  0.2143E+03  0.2209E+03
     -0.653  0.1719E+03  0.2251E+03
     -0.628  0.9122E+02  0.2273E+03
     -0.604  0.3584E+02  0.2282E+03
     -0.579  0.6138E+02  0.2297E+03
     -0.555  0.1467E+03  0.2333E+03
     -0.530  0.1894E+03  0.2380E+03
     -0.506  0.1259E+03  0.2410E+03
     -0.481  0.5837E+02  0.2425E+03
     -0.457  0.1075E+03  0.2451E+03
     -0.432  0.2128E+03  0.2503E+03
     -0.408  0.2605E+03  0.2567E+03
     -0.383  0.2288E+03  0.2623E+03
     -0.359  0.1443E+03  0.2659E+03
     -0.334  0.1040E+03  0.2684E+03
     -0.310  0.9443E+02  0.2707E+03
     -0.285  0.4497E+02  0.2718E+03
     -0.261  0.1698E+02  0.2722E+03
     -0.236  0.5922E+02  0.2737E+03
     -0.212  0.1584E+03  0.2776E+03
     -0.187  0.2334E+03  0.2833E+03
     -0.163  0.2424E+03  0.2892E+03
     -0.138  0.1984E+03  0.2941E+03
     -0.114  0.1460E+03  0.2977E+03
     -0.089  0.1502E+03  0.3014E+03
     -0.065  0.1743E+03  0.3056E+03
     -0.040  0.2004E+03  0.3105E+03
     -0.016  0.2312E+03  0.3162E+03
      0.009  0.2381E+03  0.3220E+03
      0.033  0.2113E+03  0.3272E+03
      0.058  0.1508E+03  0.3309E+03
      0.082  0.1007E+03  0.3334E+03
      0.107  0.1108E+03  0.3361E+03
      0.132  0.1313E+03  0.3393E+03
      0.156  0.1449E+03  0.3429E+03
      0.181  0.1593E+03  0.3468E+03
      0.205  0.2002E+03  0.3517E+03
      0.230  0.2399E+03  0.3576E+03
      0.254  0.2541E+03  0.3638E+03
      0.279  0.2527E+03  0.3700E+03
      0.303  0.2230E+03  0.3754E+03
      0.328  0.1575E+03  0.3793E+03
      0.352  0.1304E+03  0.3825E+03
      0.377  0.1647E+03  0.3865E+03
      0.401  0.2036E+03  0.3915E+03
      0.426  0.2111E+03  0.3967E+03
      0.450  0.1753E+03  0.4010E+03
      0.475  0.1272E+03  0.4041E+03
      0.499  0.1120E+03  0.4069E+03
      0.524  0.1268E+03  0.4100E+03
      0.548  0.1605E+03  0.4139E+03
      0.573  0.1957E+03  0.4187E+03
      0.597  0.1990E+03  0.4236E+03
      0.622  0.1863E+03  0.4281E+03
      0.646  0.1918E+03  0.4328E+03
      0.671  0.2033E+03  0.4378E+03
      0.695  0.2046E+03  0.4428E+03
      0.720  0.1996E+03  0.4477E+03
      0.744  0.2064E+03  0.4528E+03
      0.769  0.1969E+03  0.4576E+03
      0.793  0.1708E+03  0.4618E+03
      0.818  0.1509E+03  0.4655E+03
      0.842  0.1566E+03  0.4693E+03
      0.867  0.1922E+03  0.4741E+03
      0.891  0.2080E+03  0.4792E+03
      0.916  0.2094E+03  0.4843E+03
      0.940  0.2193E+03  0.4897E+03
      0.965  0.2305E+03  0.4953E+03
      0.989  0.2391E+03  0.5012E+03
      1.014  0.2383E+03  0.5070E+03
      1.038  0.2347E+03  0.5128E+03
      1.063  0.2378E+03  0.5186E+03
      1.087  0.2431E+03  0.5246E+03
      1.112  0.2434E+03  0.5305E+03
      1.136  0.2348E+03  0.5363E+03
      1.161  0.2282E+03  0.5419E+03
      1.185  0.2215E+03  0.5473E+03
      1.210  0.2076E+03  0.5524E+03
      1.234  0.1911E+03  0.5571E+03
      1.259  0.1918E+03  0.5618E+03
      1.283  0.2126E+03  0.5670E+03
      1.308  0.2205E+03  0.5724E+03
      1.333  0.2215E+03  0.5778E+03
      1.357  0.2287E+03  0.5834E+03
      1.382  0.2370E+03  0.5892E+03
      1.406  0.2204E+03  0.5946E+03
      1.431  0.1965E+03  0.5995E+03
      1.455  0.1903E+03  0.6041E+03
      1.480  0.2005E+03  0.6090E+03
      1.504  0.1948E+03  0.6138E+03
      1.529  0.1757E+03  0.6181E+03
      1.553  0.1671E+03  0.6222E+03
      1.578  0.1757E+03  0.6265E+03
      1.602  0.1936E+03  0.6313E+03
      1.627  0.1933E+03  0.6360E+03
      1.651  0.1824E+03  0.6405E+03
      1.676  0.1730E+03  0.6447E+03
      1.700  0.1518E+03  0.6484E+03
      1.725  0.1162E+03  0.6513E+03
      1.749  0.8933E+02  0.6535E+03
      1.774  0.1028E+03  0.6560E+03
      1.798  0.1390E+03  0.6594E+03
      1.823  0.1507E+03  0.6631E+03
      1.847  0.1436E+03  0.6666E+03
      1.872  0.1438E+03  0.6701E+03
      1.896  0.1552E+03  0.6739E+03
      1.921  0.1734E+03  0.6782E+03
      1.945  0.1775E+03  0.6825E+03
      1.970  0.1586E+03  0.6864E+03
      1.994  0.1533E+03  0.6902E+03
      2.019  0.1501E+03  0.6939E+03
      2.043  0.1378E+03  0.6972E+03
      2.068  0.1451E+03  0.7008E+03
      2.092  0.1617E+03  0.7048E+03
      2.117  0.1765E+03  0.7091E+03
      2.141  0.1894E+03  0.7137E+03
      2.166  0.1796E+03  0.7181E+03
      2.190  0.1617E+03  0.7221E+03
      2.215  0.1698E+03  0.7263E+03
      2.239  0.1722E+03  0.7305E+03
      2.264  0.1697E+03  0.7346E+03
      2.288  0.1754E+03  0.7389E+03
      2.313  0.1694E+03  0.7431E+03
      2.337  0.1570E+03  0.7469E+03
      2.362  0.1515E+03  0.7507E+03
      2.386  0.1449E+03  0.7542E+03
      2.411  0.1372E+03  0.7576E+03
      2.435  0.1332E+03  0.7608E+03
      2.460  0.1410E+03  0.7643E+03
      2.485  0.1474E+03  0.7679E+03
      2.509  0.1232E+03  0.7709E+03
      2.534  0.1072E+03  0.7735E+03
      2.558  0.1178E+03  0.7764E+03
      2.583  0.1184E+03  0.7793E+03
      2.607  0.1086E+03  0.7820E+03
      2.632  0.9000E+02  0.7842E+03
      2.656  0.9727E+02  0.7866E+03
      2.681  0.1071E+03  0.7892E+03
      2.705  0.9472E+02  0.7915E+03
      2.730  0.8880E+02  0.7937E+03
      2.754  0.6460E+02  0.7953E+03
      2.779  0.2464E+02  0.7959E+03
      2.803  0.7166E+01  0.7961E+03
      2.828  0.2330E+02  0.7966E+03
      2.852  0.6445E+02  0.7982E+03
      2.877  0.8167E+02  0.8002E+03
      2.901  0.5367E+02  0.8015E+03
      2.926  0.1712E+02  0.8020E+03
      2.950  0.7239E+01  0.8021E+03
      2.975  0.2113E+02  0.8027E+03
      2.999  0.3922E+02  0.8036E+03
      3.024  0.6185E+02  0.8051E+03
      3.048  0.8345E+02  0.8072E+03
      3.073  0.8832E+02  0.8093E+03
      3.097  0.9366E+02  0.8116E+03
      3.122  0.1005E+03  0.8141E+03
      3.146  0.1011E+03  0.8166E+03
      3.171  0.1024E+03  0.8191E+03
      3.195  0.1057E+03  0.8217E+03
      3.220  0.1126E+03  0.8244E+03
      3.244  0.1287E+03  0.8276E+03
      3.269  0.1257E+03  0.8307E+03
      3.293  0.1240E+03  0.8337E+03
      3.318  0.1201E+03  0.8367E+03
      3.342  0.1196E+03  0.8396E+03
      3.367  0.1129E+03  0.8424E+03
      3.391  0.9268E+02  0.8446E+03
      3.416  0.7943E+02  0.8466E+03
      3.440  0.5251E+02  0.8479E+03
      3.465  0.3521E+02  0.8487E+03
      3.489  0.4927E+02  0.8499E+03
      3.514  0.5459E+02  0.8513E+03
      3.538  0.5019E+02  0.8525E+03
      3.563  0.6599E+02  0.8541E+03
      3.587  0.8617E+02  0.8562E+03
      3.612  0.9856E+02  0.8586E+03
      3.636  0.1040E+03  0.8612E+03
      3.661  0.9846E+02  0.8636E+03
      3.686  0.6430E+02  0.8652E+03
      3.710  0.2645E+02  0.8658E+03
      3.735  0.6249E+01  0.8660E+03
      3.759  0.6617E+00  0.8660E+03
      3.784  0.2445E-01  0.8660E+03
      3.808  0.2734E-03  0.8660E+03
      3.833  0.8661E-06  0.8660E+03
      3.857  0.7550E-09  0.8660E+03
      3.882  0.1789E-12  0.8660E+03
      3.906  0.0000E+00  0.8660E+03
      3.931  0.0000E+00  0.8660E+03
      3.955  0.0000E+00  0.8660E+03
      3.980  0.0000E+00  0.8660E+03
      4.004  0.0000E+00  0.8660E+03
      4.029  0.0000E+00  0.8660E+03
