 running on   64 total cores
 distrk:  each k-point on   32 cores,    2 groups
 distr:  one band on   32 cores,    1 groups
 vasp.6.2.1 16May21 (build Nov 23 2021 15:40:41) complex                        
  
 POSCAR found type information on POSCAR Li
 POSCAR found :  1 types and     432 ions
 scaLAPACK will be used
 -----------------------------------------------------------------------------
|                                                                             |
|           W    W    AA    RRRRR   N    N  II  N    N   GGGG   !!!           |
|           W    W   A  A   R    R  NN   N  II  NN   N  G    G  !!!           |
|           W    W  A    A  R    R  N N  N  II  N N  N  G       !!!           |
|           W WW W  AAAAAA  RRRRR   N  N N  II  N  N N  G  GGG   !            |
|           WW  WW  A    A  R   R   N   NN  II  N   NN  G    G                |
|           W    W  A    A  R    R  N    N  II  N    N   GGGG   !!!           |
|                                                                             |
|     For optimal performance we recommend to set                             |
|       NCORE = 2 up to number-of-cores-per-socket                            |
|     NCORE specifies how many cores store one orbital (NPAR=cpu/NCORE).      |
|     This setting can greatly improve the performance of VASP for DFT.       |
|     The default, NCORE=1 might be grossly inefficient on modern             |
|     multi-core architectures or massively parallel machines. Do your        |
|     own testing! More info at https://www.vasp.at/wiki/index.php/NCORE      |
|     Unfortunately you need to use the default for GW and RPA                |
|     calculations (for HF NCORE is supported but not extensively tested      |
|     yet).                                                                   |
|                                                                             |
 -----------------------------------------------------------------------------

 -----------------------------------------------------------------------------
|                                                                             |
|               ----> ADVICE to this user running VASP <----                  |
|                                                                             |
|     You have a (more or less) 'large supercell' and for larger cells it     |
|     might be more efficient to use real-space projection operators.         |
|     Therefore, try LREAL= Auto in the INCAR file.                           |
|     Mind: If you want to do very accurate calculations, keep the            |
|     reciprocal projection scheme (i.e. LREAL=.FALSE.).                      |
|                                                                             |
 -----------------------------------------------------------------------------

 LDA part: xc-table for Pade appr. of Perdew
 POSCAR found type information on POSCAR Li
 POSCAR found :  1 types and     432 ions
 POSCAR, INCAR and KPOINTS ok, starting setup
 FFT: planning ...
 WAVECAR not read
 entering main loop
       N       E                     dE             d eps       ncg     rms          rms(c)
DAV:   1    -0.213931242325E+03   -0.21393E+03   -0.10730E+05  3464   0.663E+02
DAV:   2    -0.755045793153E+03   -0.54111E+03   -0.49455E+03  3988   0.699E+01
DAV:   3    -0.792352581548E+03   -0.37307E+02   -0.34020E+02  4344   0.146E+01
DAV:   4    -0.793557762786E+03   -0.12052E+01   -0.11885E+01  3960   0.287E+00
DAV:   5    -0.793585105926E+03   -0.27343E-01   -0.27307E-01  4104   0.456E-01    0.875E+00
DAV:   6    -0.788367868685E+03    0.52172E+01   -0.90556E+00  3944   0.425E+00    0.635E+00
DAV:   7    -0.784513620616E+03    0.38542E+01   -0.65646E+00  4008   0.392E+00    0.422E+00
DAV:   8    -0.782546578092E+03    0.19670E+01   -0.33619E+00  3936   0.212E+00    0.219E+00
DAV:   9    -0.782248831511E+03    0.29775E+00   -0.19538E+00  3768   0.114E+00    0.115E+00
DAV:  10    -0.782262456667E+03   -0.13625E-01   -0.36012E-01  3984   0.646E-01    0.909E-01
DAV:  11    -0.782187937414E+03    0.74519E-01   -0.12947E-01  3912   0.441E-01    0.514E-01
DAV:  12    -0.782175768643E+03    0.12169E-01   -0.36129E-02  3728   0.175E-01    0.208E-01
DAV:  13    -0.782176603223E+03   -0.83458E-03   -0.84715E-03  4024   0.109E-01    0.145E-01
DAV:  14    -0.782174914232E+03    0.16890E-02   -0.32542E-03  3952   0.784E-02    0.797E-02
DAV:  15    -0.782174486421E+03    0.42781E-03   -0.10095E-03  3944   0.377E-02    0.389E-02
DAV:  16    -0.782174400455E+03    0.85966E-04   -0.47352E-04  3776   0.206E-02    0.180E-02
DAV:  17    -0.782174379900E+03    0.20555E-04   -0.98656E-05  3944   0.121E-02    0.130E-02
DAV:  18    -0.782174351386E+03    0.28513E-04   -0.30033E-05  3160   0.627E-03    0.530E-03
DAV:  19    -0.782174345208E+03    0.61784E-05   -0.10706E-05  1944   0.354E-03
   1 F= -.78217435E+03 E0= -.78213027E+03  d E =-.881471E-01
