Li                                      
           1
    20.020800    0.000000    0.000000
     0.000000   20.020800    0.000000
     0.000000    0.000000   20.020800
   Li
   432
Direct configuration=     1
   0.00006041  0.99671577  0.00503577
   0.91919112  0.07026770  0.08083715
   0.85613086  0.13410793  0.16009261
   0.77410759  0.24532867  0.24546695
   0.69126442  0.35756605  0.32562362
   0.59535009  0.41034026  0.44054482
   0.50960376  0.49533220  0.50422756
   0.43125718  0.57833945  0.56019101
   0.33882454  0.64987224  0.64431194
   0.27852740  0.76467377  0.73101963
   0.18350739  0.81275557  0.83114634
   0.08688744  0.91089860  0.90344240
   0.08483492  0.92368034  0.08961549
   0.98985628  0.01065613  0.18621736
   0.91650253  0.07978420  0.25559645
   0.85294926  0.16503184  0.35474073
   0.75471149  0.26974351  0.39891570
   0.67573313  0.33867859  0.50135728
   0.60328816  0.42189241  0.59299284
   0.50116045  0.48967566  0.66431798
   0.40258202  0.57952345  0.75155314
   0.34347646  0.67649960  0.84717923
   0.25754112  0.75909776  0.92369942
   0.15810363  0.86007480  0.00971260
   0.16231154  0.83358981  0.16563352
   0.09283076  0.91185996  0.23708775
   0.01821898  0.01048535  0.34416638
   0.91940817  0.05424543  0.43941591
   0.84293390  0.15345565  0.50826039
   0.75152073  0.25064965  0.56737792
   0.66876308  0.33667531  0.67621912
   0.60042770  0.43052039  0.73751813
   0.49057108  0.49380998  0.85068677
   0.43892801  0.57807400  0.93817070
   0.33935338  0.67318638  0.99757965
   0.26428065  0.76163129  0.09580309
   0.25620087  0.75347996  0.25109158
   0.18166870  0.84409754  0.33297561
   0.09292327  0.93886707  0.40917025
   0.01228979  0.98996012  0.52760159
   0.91746984  0.07032175  0.58270411
   0.83259284  0.17262509  0.66881584
   0.74256750  0.24961618  0.76237945
   0.65446482  0.32187731  0.83183576
   0.58890134  0.41093342  0.93199176
   0.49286559  0.48238745  0.02615793
   0.39200174  0.57571844  0.09452366
   0.31082895  0.65190038  0.16951969
   0.32622735  0.65396459  0.32747341
   0.25206272  0.76003434  0.40986984
   0.17440159  0.82257959  0.48251531
   0.09360859  0.91322571  0.58541406
   0.98916855  0.96821246  0.65603577
   0.93691619  0.08331757  0.73872296
   0.83287751  0.14631180  0.85342948
   0.75020307  0.24118497  0.91539771
   0.69315368  0.32402119  0.01113248
   0.60744232  0.40119384  0.08005548
   0.50862748  0.49108050  0.17760997
   0.40142404  0.56437541  0.26235921
   0.42156552  0.55165102  0.40959030
   0.33110589  0.65017983  0.47672500
   0.25897515  0.73010535  0.57759123
   0.16708762  0.81075794  0.66504650
   0.09227707  0.89450817  0.74157036
   0.00372106  0.98336178  0.82498712
   0.92899458  0.07428794  0.89640285
   0.83614048  0.14752780  0.00107385
   0.77287584  0.25681836  0.09782935
   0.68084452  0.31835726  0.16832877
   0.59061919  0.41303763  0.25208232
   0.51966569  0.47727853  0.33708537
   0.09246818  0.06369452  0.89746428
   0.00016202  0.14939334  0.97938199
   0.91129981  0.23832944  0.04919252
   0.86438136  0.32965698  0.17500733
   0.76739244  0.41808957  0.24424834
   0.66697902  0.48558715  0.33810441
   0.59324563  0.59128681  0.42825841
   0.49663040  0.66853521  0.48494095
   0.40740206  0.73398062  0.56510930
   0.35335191  0.82778303  0.64432179
   0.27175904  0.89694040  0.73606853
   0.19693928  0.99697971  0.80506516
   0.15671334  0.00918919  0.96781264
   0.06988807  0.08252078  0.08185141
   0.99605689  0.15953168  0.16620700
   0.92347235  0.24916249  0.26287731
   0.84177374  0.33181327  0.33435591
   0.75799024  0.40439755  0.41426663
   0.69081942  0.49239275  0.49857401
   0.55862289  0.59371356  0.58099690
   0.49842691  0.68407655  0.64622946
   0.41697894  0.74527462  0.74514119
   0.35746389  0.83971344  0.83942557
   0.24551421  0.92944823  0.90026743
   0.24880402  0.92582931  0.07073664
   0.18089385  0.01543104  0.15014187
   0.09468413  0.07703251  0.26641120
   0.00055242  0.15200693  0.34760469
   0.92591812  0.25605214  0.44372218
   0.81628842  0.33332300  0.51869821
   0.76377391  0.43967901  0.61443126
   0.66826900  0.54183135  0.66428191
   0.54349541  0.59245387  0.75474587
   0.47839323  0.67147824  0.84320960
   0.42289376  0.76342159  0.92833845
   0.33897625  0.85190190  0.00585249
   0.34753244  0.83272167  0.15640380
   0.24276558  0.92267830  0.22111313
   0.17786481  0.99708573  0.33636997
   0.10356248  0.08455592  0.44732154
   0.01418486  0.14325263  0.52762276
   0.91966810  0.26080975  0.57520446
   0.82746795  0.32063954  0.66520695
   0.75927090  0.42024003  0.74833300
   0.66666286  0.49992775  0.82201432
   0.58291635  0.58760102  0.94002623
   0.48182734  0.68419155  0.01176840
   0.40938223  0.75143153  0.08996302
   0.37010412  0.74102689  0.25409957
   0.30487237  0.83721786  0.34134878
   0.23878776  0.93392146  0.42107480
   0.18823079  0.00397185  0.49726550
   0.08836566  0.07234399  0.61299914
   0.98609659  0.16451969  0.65123039
   0.90577518  0.23640640  0.76865053
   0.83315065  0.35592197  0.85223531
   0.73265504  0.41716499  0.90440604
   0.69173715  0.50251991  0.99407903
   0.57370300  0.59490853  0.08741299
   0.48742425  0.65819248  0.19004269
   0.47968223  0.63589264  0.32605943
   0.39572314  0.75139420  0.41749935
   0.33522879  0.83623967  0.50571682
   0.23661570  0.90720226  0.57015716
   0.16689351  0.99607876  0.66938372
   0.07505967  0.06931887  0.73250531
   0.01751886  0.15368646  0.82604974
   0.90997449  0.23912771  0.92193348
   0.82311856  0.34972492  0.99429386
   0.76026945  0.39972240  0.09716062
   0.67741836  0.51424185  0.17536854
   0.57376928  0.57937904  0.26283762
   0.17051207  0.15344993  0.83528060
   0.06063542  0.24368885  0.91345018
   0.98457736  0.33346053  0.99095440
   0.89596719  0.44496029  0.07197209
   0.85204178  0.51611255  0.15267516
   0.76715104  0.58241109  0.26224436
   0.67154756  0.68857161  0.30979578
   0.58574938  0.73798639  0.42364952
   0.48191677  0.82356035  0.49936335
   0.44197823  0.92645870  0.57703294
   0.32324204  0.98194459  0.63092995
   0.26956558  0.08992535  0.74987024
   0.24981800  0.07847236  0.89508604
   0.16268140  0.14753225  0.98076730
   0.07643982  0.22324612  0.07204113
   0.98686527  0.33983810  0.15048365
   0.92294543  0.44013778  0.25371417
   0.83364372  0.48152432  0.34719394
   0.77815935  0.56848419  0.40810773
   0.67859610  0.65997127  0.51036635
   0.59620476  0.75324112  0.57277798
   0.50297751  0.80926730  0.64435879
   0.43530845  0.91121881  0.75422020
   0.33134078  0.99838267  0.82146086
   0.31932912  0.01849021  0.97194521
   0.26858407  0.08064043  0.08311910
   0.16977724  0.15739422  0.15963825
   0.06229941  0.24906828  0.23686822
   0.99450091  0.34715181  0.31527509
   0.90359181  0.40682915  0.43885501
   0.84674698  0.49608069  0.51750405
   0.77506675  0.58415394  0.57512975
   0.66279189  0.65610134  0.65404792
   0.58003893  0.75595931  0.75034517
   0.49931252  0.83460086  0.83164584
   0.43791465  0.91847838  0.92367693
   0.42933857  0.93793364  0.07411690
   0.35043178  0.00760112  0.17010220
   0.26971478  0.08306334  0.24561153
   0.16154517  0.17023121  0.34870065
   0.05812454  0.25537167  0.45813722
   0.99848716  0.34462270  0.52797638
   0.92409937  0.41846604  0.60647888
   0.85165972  0.50551050  0.66057570
   0.76927476  0.56824204  0.76623152
   0.66805734  0.64349279  0.82620936
   0.58857026  0.74181129  0.90711339
   0.52379003  0.83040567  0.01586490
   0.46813838  0.82987675  0.16369487
   0.39619302  0.92151609  0.27047943
   0.30618287  0.00216034  0.32893361
   0.25219613  0.09877086  0.40096398
   0.17354720  0.17292249  0.51470612
   0.09273578  0.25238065  0.58249253
   0.98487271  0.33940952  0.68225895
   0.91627340  0.43794307  0.75358513
   0.85314050  0.50252966  0.86267252
   0.73948801  0.57790681  0.91404863
   0.64652495  0.65827315  0.00795467
   0.58508922  0.74551743  0.10176692
   0.56509905  0.75892288  0.24672056
   0.49710526  0.82179030  0.33325592
   0.40294612  0.91710545  0.42225972
   0.33974700  0.01097369  0.50833364
   0.25817595  0.09138930  0.58776956
   0.18049734  0.15861534  0.66940931
   0.07983321  0.25819902  0.73872220
   0.96934171  0.31746337  0.83499312
   0.92716489  0.43937209  0.94177945
   0.80167137  0.50855728  0.99795516
   0.73648189  0.58917457  0.09815882
   0.68468121  0.66139538  0.19490578
   0.24084624  0.26653789  0.75316028
   0.15493868  0.31907530  0.81926498
   0.09208376  0.39860625  0.91856795
   0.01442401  0.51929315  0.00122654
   0.93532267  0.60557643  0.08385882
   0.84658929  0.67238108  0.17333300
   0.77246315  0.77114741  0.26790701
   0.66772374  0.83106031  0.35050865
   0.56608751  0.92289599  0.44021563
   0.48773091  0.01040197  0.47324578
   0.42130221  0.09120890  0.58136308
   0.33745678  0.17737307  0.68013989
   0.33111185  0.17979692  0.83882699
   0.25583067  0.25468926  0.92819134
   0.14976810  0.30896092  0.99536452
   0.08917373  0.41535065  0.09994303
   0.00976457  0.50233520  0.15650428
   0.93839390  0.57662988  0.24060253
   0.86037690  0.68540516  0.32697908
   0.75591397  0.74310673  0.40159514
   0.67316122  0.84778740  0.48494710
   0.56830127  0.91489758  0.58825853
   0.49238156  0.99776961  0.67550542
   0.40596940  0.10196980  0.74473110
   0.42284568  0.08248358  0.88956461
   0.33647438  0.16249359  0.98009191
   0.24167643  0.22077482  0.06444886
   0.15895369  0.31035040  0.15675777
   0.07791834  0.41696988  0.23674378
   0.00448976  0.47669887  0.35659539
   0.91538519  0.58732185  0.41396352
   0.84166447  0.65532615  0.48364153
   0.74568046  0.72757461  0.56877900
   0.66857322  0.81789846  0.67252003
   0.58176112  0.90548714  0.74486468
   0.49973460  0.99964620  0.81925145
   0.49704257  0.00771203  0.99671380
   0.40849146  0.07428377  0.07451934
   0.33800884  0.18297827  0.16525431
   0.22439582  0.24536432  0.23993893
   0.14173362  0.29763497  0.35028570
   0.08678861  0.40836238  0.43688894
   0.99964669  0.49701533  0.49159054
   0.93085048  0.61355351  0.58779399
   0.80329943  0.67086920  0.66654661
   0.74627478  0.75233307  0.75116020
   0.66816097  0.82704340  0.83701900
   0.58519466  0.90911923  0.90837191
   0.57885033  0.93035141  0.08718640
   0.49785898  0.99166601  0.17678119
   0.40852305  0.08740598  0.25571115
   0.33492663  0.19112437  0.31740611
   0.26211946  0.25194420  0.43161666
   0.16551625  0.34917544  0.52648941
   0.07204872  0.43893759  0.59474983
   0.98576546  0.51459450  0.67434841
   0.91836296  0.60116492  0.77482831
   0.82988947  0.69448041  0.84109194
   0.72982998  0.74863682  0.92974751
   0.64981584  0.83588766  0.98902818
   0.64851910  0.82768080  0.17157056
   0.56650334  0.91521982  0.24563051
   0.49090889  0.99905266  0.33859964
   0.39038048  0.07486720  0.37501201
   0.34279408  0.16130219  0.51587447
   0.24754293  0.25720751  0.57936756
   0.16349170  0.34812976  0.65623661
   0.06946288  0.41304657  0.75709790
   0.98550412  0.51430802  0.85293803
   0.90720352  0.61492926  0.92696085
   0.80757475  0.65303743  0.01128562
   0.74752144  0.74441730  0.08099695
   0.33407681  0.34392794  0.65131090
   0.25789642  0.41955888  0.73763219
   0.16975501  0.50818732  0.81837056
   0.08664455  0.58917529  0.92395767
   0.00588518  0.67166109  0.01151665
   0.90730673  0.75290207  0.08101641
   0.83320128  0.84698734  0.15545825
   0.74501911  0.90250480  0.25265423
   0.68167613  0.99227023  0.34689513
   0.57903408  0.10487229  0.40370129
   0.49629835  0.17121523  0.48993927
   0.39803973  0.24605901  0.58557649
   0.43040935  0.27958617  0.74588169
   0.34354617  0.33227342  0.79816000
   0.21708617  0.37982514  0.91387576
   0.15499657  0.49029624  0.00611315
   0.08595384  0.59319870  0.09501362
   0.01071966  0.69596031  0.18106831
   0.90312925  0.78661313  0.23378952
   0.83961910  0.87122445  0.35930928
   0.75398387  0.92734667  0.42002794
   0.66615605  0.01150133  0.51304960
   0.57485875  0.08211980  0.57400024
   0.50653711  0.17915236  0.66066921
   0.48361879  0.18380034  0.83722029
   0.41819898  0.25166144  0.90990446
   0.33442502  0.33230580  0.99859481
   0.24011659  0.40229154  0.05660503
   0.18305073  0.48948315  0.16246729
   0.07783479  0.59289764  0.26672712
   0.98407892  0.68388141  0.31803840
   0.93689440  0.75256416  0.42743353
   0.82780972  0.82836059  0.50020131
   0.74839797  0.91339322  0.58609774
   0.66680528  0.02078956  0.67057024
   0.58179150  0.09072653  0.73663443
   0.57184662  0.07341633  0.91143042
   0.48640085  0.17291136  0.00088142
   0.41084765  0.25064924  0.06815634
   0.32869795  0.32855851  0.15198036
   0.24059592  0.40310237  0.25620335
   0.14408848  0.48465478  0.33692483
   0.06565272  0.59986119  0.40773629
   0.03121161  0.68455036  0.49222219
   0.91271536  0.73088389  0.58412733
   0.83962543  0.80615092  0.67116514
   0.74918476  0.92008622  0.74258407
   0.66909474  0.98849084  0.83591487
   0.67373755  0.99810171  0.00280379
   0.58837157  0.07300041  0.08641750
   0.48880154  0.16771252  0.14705319
   0.42030578  0.25611711  0.23426064
   0.31221988  0.30889108  0.31829051
   0.24908769  0.41461362  0.42019915
   0.13381010  0.51286628  0.49741032
   0.08229299  0.59015341  0.59597069
   0.00048211  0.67327446  0.68372560
   0.89904700  0.74957238  0.75363169
   0.81229825  0.84089383  0.84131230
   0.73343906  0.92226335  0.92282353
   0.73369908  0.92016425  0.07307671
   0.66292391  0.00746419  0.18846210
   0.59502949  0.06386655  0.25804646
   0.49004173  0.16834079  0.32871997
   0.42520312  0.25694405  0.40144514
   0.32807588  0.32841269  0.48679020
   0.25354849  0.42726774  0.54664376
   0.16341012  0.50870244  0.66192829
   0.07671820  0.59199423  0.75811081
   0.00337200  0.68406642  0.85005107
   0.91768005  0.76017905  0.94071393
   0.81586141  0.84789642  0.99067775
   0.40902513  0.43145411  0.54540421
   0.35285712  0.51401455  0.64999056
   0.25945603  0.58252470  0.76073578
   0.16969253  0.67809230  0.83464668
   0.09926974  0.77482655  0.92289995
   0.01845318  0.84951234  0.01307869
   0.91337656  0.91938614  0.09744661
   0.81864346  0.00022038  0.18508211
   0.74928881  0.09914749  0.25037759
   0.66944978  0.17547294  0.32181748
   0.60435511  0.26009416  0.40745601
   0.50192531  0.31452995  0.49574970
   0.49882445  0.34619264  0.64176160
   0.43672092  0.42654567  0.74292487
   0.31718313  0.48275817  0.83649646
   0.25516133  0.58323310  0.91498661
   0.16859514  0.68173710  0.00615051
   0.07197745  0.75005428  0.07982729
   0.00460184  0.84874176  0.16158380
   0.92939017  0.91871314  0.25502652
   0.82508651  0.00377783  0.32946651
   0.77033373  0.09052991  0.42597574
   0.67538224  0.16501673  0.48731241
   0.58715585  0.25821011  0.58662231
   0.58564840  0.27787053  0.73236437
   0.53034141  0.35575731  0.83442107
   0.39877326  0.40564869  0.93476021
   0.31180912  0.49926188  0.99201788
   0.23386634  0.58677696  0.06315331
   0.17866526  0.67156583  0.16964540
   0.08035397  0.74950221  0.24749136
   0.00988422  0.82591283  0.32914846
   0.91333246  0.91333048  0.41884292
   0.82897142  0.98269507  0.50413394
   0.76479296  0.06348038  0.60829783
   0.67560496  0.16615415  0.65825538
   0.64261741  0.17244056  0.82183373
   0.60242355  0.24516303  0.93438084
   0.49981190  0.34575202  0.01311723
   0.38798858  0.41755847  0.09165865
   0.30665905  0.48943898  0.16212615
   0.23905135  0.57792787  0.26876598
   0.15652106  0.67515115  0.35390284
   0.06808767  0.76128598  0.40506694
   0.01141906  0.83973198  0.50850571
   0.91197216  0.90607972  0.58005797
   0.83534954  0.98704769  0.68282738
   0.75131756  0.07582338  0.76348568
   0.75205263  0.07310511  0.92544368
   0.67767608  0.15134919  0.98874243
   0.58277934  0.23490363  0.05863305
   0.47853432  0.31934960  0.14529602
   0.41481755  0.40910807  0.23648176
   0.33522632  0.47838399  0.34323940
   0.23372853  0.57754874  0.42189124
   0.15265958  0.67536088  0.49618846
   0.09382204  0.73719423  0.60086661
   0.98547833  0.85165965  0.66653709
   0.89910305  0.90044162  0.76763908
   0.83852651  0.99336672  0.83425198
   0.83643855  0.99721842  0.99487191
   0.74734451  0.07731072  0.09656128
   0.65515570  0.16599105  0.15478425
   0.58069154  0.25262843  0.23926552
   0.49824928  0.35266146  0.33032729
   0.41262161  0.40269327  0.39351384
   0.32358600  0.50235233  0.46781069
   0.23137605  0.59265257  0.56819252
   0.17629534  0.65508830  0.67124468
   0.09760465  0.75539413  0.74383613
   0.01268705  0.79817061  0.83841403
   0.91097484  0.89837215  0.91726921
