 432 432   0   0
  0.1857636E+02  0.2002080E-08  0.2002080E-08  0.2002080E-08  0.5000000E-15
  1.000000000000000E-004
  CAR 
 Li                                      
      4.03073031     -3.32599970  301      0.64666250      1.00000000
     -3.326  0.0000E+00  0.0000E+00
     -3.301  0.0000E+00  0.0000E+00
     -3.277  0.0000E+00  0.0000E+00
     -3.252  0.0000E+00  0.0000E+00
     -3.228  0.0000E+00  0.0000E+00
     -3.203  0.0000E+00  0.0000E+00
     -3.179  0.0000E+00  0.0000E+00
     -3.154  0.6836E-12  0.1676E-13
     -3.130  0.2918E-08  0.7156E-10
     -3.105  0.3365E-05  0.8260E-07
     -3.081  0.1060E-02  0.2607E-04
     -3.056  0.9246E-01  0.2293E-02
     -3.032  0.2284E+01  0.5831E-01
     -3.007  0.1642E+02  0.4609E+00
     -2.983  0.3522E+02  0.1325E+01
     -2.958  0.2284E+02  0.1885E+01
     -2.934  0.4537E+01  0.1996E+01
     -2.909  0.2873E+01  0.2066E+01
     -2.885  0.2430E+02  0.2662E+01
     -2.860  0.7882E+02  0.4595E+01
     -2.836  0.9327E+02  0.6883E+01
     -2.811  0.3962E+02  0.7854E+01
     -2.787  0.6195E+01  0.8006E+01
     -2.762  0.8732E+01  0.8220E+01
     -2.737  0.4821E+02  0.9402E+01
     -2.713  0.9753E+02  0.1179E+02
     -2.688  0.7079E+02  0.1353E+02
     -2.664  0.1789E+02  0.1397E+02
     -2.639  0.5557E+01  0.1410E+02
     -2.615  0.3199E+02  0.1489E+02
     -2.590  0.9622E+02  0.1725E+02
     -2.566  0.1208E+03  0.2021E+02
     -2.541  0.6100E+02  0.2171E+02
     -2.517  0.1286E+02  0.2202E+02
     -2.492  0.1971E+02  0.2251E+02
     -2.468  0.8653E+02  0.2463E+02
     -2.443  0.1674E+03  0.2873E+02
     -2.419  0.1476E+03  0.3235E+02
     -2.394  0.5787E+02  0.3377E+02
     -2.370  0.1044E+02  0.3403E+02
     -2.345  0.1785E+02  0.3447E+02
     -2.321  0.6835E+02  0.3614E+02
     -2.296  0.9781E+02  0.3854E+02
     -2.272  0.5027E+02  0.3977E+02
     -2.247  0.1007E+02  0.4002E+02
     -2.222  0.1745E+02  0.4045E+02
     -2.198  0.8121E+02  0.4244E+02
     -2.173  0.1619E+03  0.4641E+02
     -2.149  0.1511E+03  0.5011E+02
     -2.124  0.6536E+02  0.5172E+02
     -2.100  0.2136E+02  0.5224E+02
     -2.075  0.6618E+02  0.5386E+02
     -2.051  0.1724E+03  0.5809E+02
     -2.026  0.2250E+03  0.6361E+02
     -2.002  0.1746E+03  0.6789E+02
     -1.977  0.7276E+02  0.6967E+02
     -1.953  0.1558E+02  0.7005E+02
     -1.928  0.2668E+02  0.7071E+02
     -1.904  0.8060E+02  0.7269E+02
     -1.879  0.9189E+02  0.7494E+02
     -1.855  0.3794E+02  0.7587E+02
     -1.830  0.1031E+02  0.7612E+02
     -1.806  0.4567E+02  0.7724E+02
     -1.781  0.1485E+03  0.8088E+02
     -1.757  0.2017E+03  0.8583E+02
     -1.732  0.1283E+03  0.8898E+02
     -1.708  0.3864E+02  0.8992E+02
     -1.683  0.2174E+02  0.9046E+02
     -1.658  0.8930E+02  0.9265E+02
     -1.634  0.1992E+03  0.9753E+02
     -1.609  0.2302E+03  0.1032E+03
     -1.585  0.1471E+03  0.1068E+03
     -1.560  0.4519E+02  0.1079E+03
     -1.536  0.1897E+02  0.1084E+03
     -1.511  0.7659E+02  0.1102E+03
     -1.487  0.1618E+03  0.1142E+03
     -1.462  0.1529E+03  0.1180E+03
     -1.438  0.7170E+02  0.1197E+03
     -1.413  0.4052E+02  0.1207E+03
     -1.389  0.1114E+03  0.1234E+03
     -1.364  0.2046E+03  0.1285E+03
     -1.340  0.2130E+03  0.1337E+03
     -1.315  0.1321E+03  0.1369E+03
     -1.291  0.4684E+02  0.1381E+03
     -1.266  0.5158E+02  0.1393E+03
     -1.242  0.1476E+03  0.1429E+03
     -1.217  0.2328E+03  0.1487E+03
     -1.193  0.1962E+03  0.1535E+03
     -1.168  0.8595E+02  0.1556E+03
     -1.144  0.2265E+02  0.1561E+03
     -1.119  0.4736E+02  0.1573E+03
     -1.094  0.1336E+03  0.1606E+03
     -1.070  0.1709E+03  0.1648E+03
     -1.045  0.1027E+03  0.1673E+03
     -1.021  0.2920E+02  0.1680E+03
     -0.996  0.2665E+02  0.1686E+03
     -0.972  0.8575E+02  0.1708E+03
     -0.947  0.1349E+03  0.1741E+03
     -0.923  0.1339E+03  0.1773E+03
     -0.898  0.9266E+02  0.1796E+03
     -0.874  0.9040E+02  0.1818E+03
     -0.849  0.1916E+03  0.1865E+03
     -0.825  0.2767E+03  0.1933E+03
     -0.800  0.2884E+03  0.2004E+03
     -0.776  0.2373E+03  0.2062E+03
     -0.751  0.1283E+03  0.2094E+03
     -0.727  0.7731E+02  0.2113E+03
     -0.702  0.1588E+03  0.2151E+03
     -0.678  0.2229E+03  0.2206E+03
     -0.653  0.1795E+03  0.2250E+03
     -0.629  0.9415E+02  0.2273E+03
     -0.604  0.3370E+02  0.2281E+03
     -0.579  0.6053E+02  0.2296E+03
     -0.555  0.1583E+03  0.2335E+03
     -0.530  0.1953E+03  0.2383E+03
     -0.506  0.1178E+03  0.2412E+03
     -0.481  0.5058E+02  0.2424E+03
     -0.457  0.1006E+03  0.2449E+03
     -0.432  0.2124E+03  0.2501E+03
     -0.408  0.2633E+03  0.2566E+03
     -0.383  0.2297E+03  0.2622E+03
     -0.359  0.1473E+03  0.2658E+03
     -0.334  0.1095E+03  0.2685E+03
     -0.310  0.9527E+02  0.2708E+03
     -0.285  0.4160E+02  0.2719E+03
     -0.261  0.1775E+02  0.2723E+03
     -0.236  0.6464E+02  0.2739E+03
     -0.212  0.1602E+03  0.2778E+03
     -0.187  0.2282E+03  0.2834E+03
     -0.163  0.2310E+03  0.2891E+03
     -0.138  0.1895E+03  0.2937E+03
     -0.114  0.1366E+03  0.2971E+03
     -0.089  0.1511E+03  0.3008E+03
     -0.065  0.1867E+03  0.3053E+03
     -0.040  0.1985E+03  0.3102E+03
     -0.015  0.2111E+03  0.3154E+03
      0.009  0.2248E+03  0.3209E+03
      0.034  0.2259E+03  0.3264E+03
      0.058  0.1739E+03  0.3307E+03
      0.083  0.1104E+03  0.3334E+03
      0.107  0.1149E+03  0.3362E+03
      0.132  0.1341E+03  0.3395E+03
      0.156  0.1411E+03  0.3430E+03
      0.181  0.1432E+03  0.3465E+03
      0.205  0.1919E+03  0.3512E+03
      0.230  0.2478E+03  0.3573E+03
      0.254  0.2678E+03  0.3638E+03
      0.279  0.2648E+03  0.3703E+03
      0.303  0.2238E+03  0.3758E+03
      0.328  0.1414E+03  0.3793E+03
      0.352  0.1139E+03  0.3821E+03
      0.377  0.1706E+03  0.3863E+03
      0.401  0.2111E+03  0.3914E+03
      0.426  0.2046E+03  0.3965E+03
      0.450  0.1710E+03  0.4007E+03
      0.475  0.1221E+03  0.4036E+03
      0.499  0.1080E+03  0.4063E+03
      0.524  0.1411E+03  0.4098E+03
      0.549  0.1757E+03  0.4141E+03
      0.573  0.2043E+03  0.4191E+03
      0.598  0.1934E+03  0.4238E+03
      0.622  0.1677E+03  0.4279E+03
      0.647  0.1659E+03  0.4320E+03
      0.671  0.1946E+03  0.4368E+03
      0.696  0.2225E+03  0.4422E+03
      0.720  0.2240E+03  0.4477E+03
      0.745  0.2057E+03  0.4528E+03
      0.769  0.1909E+03  0.4574E+03
      0.794  0.1767E+03  0.4618E+03
      0.818  0.1497E+03  0.4654E+03
      0.843  0.1455E+03  0.4690E+03
      0.867  0.1726E+03  0.4732E+03
      0.892  0.1950E+03  0.4780E+03
      0.916  0.1986E+03  0.4829E+03
      0.941  0.2038E+03  0.4879E+03
      0.965  0.2355E+03  0.4937E+03
      0.990  0.2537E+03  0.4999E+03
      1.014  0.2530E+03  0.5061E+03
      1.039  0.2491E+03  0.5122E+03
      1.064  0.2522E+03  0.5184E+03
      1.088  0.2401E+03  0.5243E+03
      1.113  0.2331E+03  0.5300E+03
      1.137  0.2409E+03  0.5359E+03
      1.162  0.2391E+03  0.5418E+03
      1.186  0.2243E+03  0.5473E+03
      1.211  0.2120E+03  0.5525E+03
      1.235  0.2176E+03  0.5578E+03
      1.260  0.2162E+03  0.5631E+03
      1.284  0.2190E+03  0.5685E+03
      1.309  0.2273E+03  0.5740E+03
      1.333  0.2181E+03  0.5794E+03
      1.358  0.2203E+03  0.5848E+03
      1.382  0.2299E+03  0.5904E+03
      1.407  0.2206E+03  0.5958E+03
      1.431  0.2035E+03  0.6008E+03
      1.456  0.1998E+03  0.6057E+03
      1.480  0.1983E+03  0.6106E+03
      1.505  0.1846E+03  0.6151E+03
      1.529  0.1807E+03  0.6196E+03
      1.554  0.1761E+03  0.6239E+03
      1.578  0.1706E+03  0.6281E+03
      1.603  0.1824E+03  0.6325E+03
      1.628  0.1839E+03  0.6370E+03
      1.652  0.1812E+03  0.6415E+03
      1.677  0.1744E+03  0.6458E+03
      1.701  0.1440E+03  0.6493E+03
      1.726  0.1076E+03  0.6519E+03
      1.750  0.1030E+03  0.6545E+03
      1.775  0.1255E+03  0.6575E+03
      1.799  0.1323E+03  0.6608E+03
      1.824  0.1248E+03  0.6638E+03
      1.848  0.1333E+03  0.6671E+03
      1.873  0.1451E+03  0.6707E+03
      1.897  0.1535E+03  0.6744E+03
      1.922  0.1682E+03  0.6786E+03
      1.946  0.1720E+03  0.6828E+03
      1.971  0.1727E+03  0.6870E+03
      1.995  0.1644E+03  0.6910E+03
      2.020  0.1390E+03  0.6944E+03
      2.044  0.1332E+03  0.6977E+03
      2.069  0.1532E+03  0.7015E+03
      2.093  0.1651E+03  0.7055E+03
      2.118  0.1705E+03  0.7097E+03
      2.143  0.1758E+03  0.7140E+03
      2.167  0.1791E+03  0.7184E+03
      2.192  0.1836E+03  0.7229E+03
      2.216  0.1765E+03  0.7272E+03
      2.241  0.1715E+03  0.7314E+03
      2.265  0.1695E+03  0.7356E+03
      2.290  0.1691E+03  0.7397E+03
      2.314  0.1641E+03  0.7438E+03
      2.339  0.1570E+03  0.7476E+03
      2.363  0.1584E+03  0.7515E+03
      2.388  0.1556E+03  0.7553E+03
      2.412  0.1425E+03  0.7588E+03
      2.437  0.1324E+03  0.7621E+03
      2.461  0.1355E+03  0.7654E+03
      2.486  0.1340E+03  0.7687E+03
      2.510  0.1323E+03  0.7719E+03
      2.535  0.1321E+03  0.7752E+03
      2.559  0.1261E+03  0.7782E+03
      2.584  0.1103E+03  0.7810E+03
      2.608  0.8978E+02  0.7832E+03
      2.633  0.8912E+02  0.7853E+03
      2.657  0.1089E+03  0.7880E+03
      2.682  0.1134E+03  0.7908E+03
      2.707  0.1025E+03  0.7933E+03
      2.731  0.7507E+02  0.7951E+03
      2.756  0.2978E+02  0.7959E+03
      2.780  0.5340E+01  0.7960E+03
      2.805  0.8148E+01  0.7962E+03
      2.829  0.3732E+02  0.7971E+03
      2.854  0.7493E+02  0.7990E+03
      2.878  0.7318E+02  0.8008E+03
      2.903  0.3938E+02  0.8017E+03
      2.927  0.1280E+02  0.8020E+03
      2.952  0.1310E+02  0.8024E+03
      2.976  0.1981E+02  0.8028E+03
      3.001  0.2444E+02  0.8034E+03
      3.025  0.5045E+02  0.8047E+03
      3.050  0.7334E+02  0.8065E+03
      3.074  0.7859E+02  0.8084E+03
      3.099  0.9001E+02  0.8106E+03
      3.123  0.9955E+02  0.8131E+03
      3.148  0.1001E+03  0.8155E+03
      3.172  0.9924E+02  0.8179E+03
      3.197  0.1085E+03  0.8206E+03
      3.221  0.1284E+03  0.8238E+03
      3.246  0.1281E+03  0.8269E+03
      3.271  0.1184E+03  0.8298E+03
      3.295  0.1170E+03  0.8327E+03
      3.320  0.1216E+03  0.8356E+03
      3.344  0.1225E+03  0.8387E+03
      3.369  0.1050E+03  0.8412E+03
      3.393  0.8728E+02  0.8434E+03
      3.418  0.7997E+02  0.8453E+03
      3.442  0.6943E+02  0.8470E+03
      3.467  0.5107E+02  0.8483E+03
      3.491  0.4561E+02  0.8494E+03
      3.516  0.5364E+02  0.8507E+03
      3.540  0.5481E+02  0.8521E+03
      3.565  0.5192E+02  0.8533E+03
      3.589  0.7747E+02  0.8552E+03
      3.614  0.1054E+03  0.8578E+03
      3.638  0.1070E+03  0.8604E+03
      3.663  0.9482E+02  0.8628E+03
      3.687  0.7514E+02  0.8646E+03
      3.712  0.4285E+02  0.8657E+03
      3.736  0.1244E+02  0.8660E+03
      3.761  0.1374E+01  0.8660E+03
      3.786  0.4921E-01  0.8660E+03
      3.810  0.5252E-03  0.8660E+03
      3.835  0.1593E-05  0.8660E+03
      3.859  0.1337E-08  0.8660E+03
      3.884  0.3056E-12  0.8660E+03
      3.908  0.0000E+00  0.8660E+03
      3.933  0.0000E+00  0.8660E+03
      3.957  0.0000E+00  0.8660E+03
      3.982  0.0000E+00  0.8660E+03
      4.006  0.0000E+00  0.8660E+03
      4.031  0.0000E+00  0.8660E+03
