       N       E                     dE             d eps       ncg     rms          rms(c)
DAV:   1    -0.217274598698E+03   -0.21727E+03   -0.10730E+05  3464   0.664E+02
DAV:   2    -0.757283063822E+03   -0.54001E+03   -0.49339E+03  4004   0.698E+01
DAV:   3    -0.794336808292E+03   -0.37054E+02   -0.33825E+02  4360   0.145E+01
DAV:   4    -0.795523583731E+03   -0.11868E+01   -0.11710E+01  3960   0.286E+00
DAV:   5    -0.795550318863E+03   -0.26735E-01   -0.26704E-01  4096   0.453E-01    0.851E+00
DAV:   6    -0.790065399114E+03    0.54849E+01   -0.86144E+00  3880   0.403E+00    0.595E+00
DAV:   7    -0.786924147360E+03    0.31413E+01   -0.65759E+00  3992   0.383E+00    0.408E+00
DAV:   8    -0.784996518725E+03    0.19276E+01   -0.30958E+00  3960   0.201E+00    0.200E+00
DAV:   9    -0.784781288137E+03    0.21523E+00   -0.16109E+00  3776   0.107E+00    0.115E+00
DAV:  10    -0.784787819182E+03   -0.65310E-02   -0.32117E-01  3976   0.624E-01    0.882E-01
DAV:  11    -0.784715549433E+03    0.72270E-01   -0.11890E-01  3896   0.428E-01    0.488E-01
DAV:  12    -0.784706062501E+03    0.94869E-02   -0.33581E-02  3768   0.174E-01    0.213E-01
DAV:  13    -0.784706077246E+03   -0.14744E-04   -0.89856E-03  3976   0.115E-01    0.144E-01
DAV:  14    -0.784704551937E+03    0.15253E-02   -0.30214E-03  3936   0.781E-02    0.819E-02
DAV:  15    -0.784704047497E+03    0.50444E-03   -0.10920E-03  3928   0.385E-02    0.369E-02
DAV:  16    -0.784703970326E+03    0.77171E-04   -0.48602E-04  3744   0.195E-02    0.160E-02
DAV:  17    -0.784703962429E+03    0.78975E-05   -0.73738E-05  4096   0.110E-02
   1 F= -.78470396E+03 E0= -.78466419E+03  d E =-.795497E-01
