Li                                      
           1
    20.020800    0.000000    0.000000
     0.000000   20.020800    0.000000
     0.000000    0.000000   20.020800
   Li
   432
Direct configuration=     1
   0.99865912  0.01008943  0.00547626
   0.91655614  0.08704720  0.08008663
   0.83917907  0.15201692  0.17207281
   0.73949830  0.24482234  0.24918261
   0.64632516  0.34509664  0.30303085
   0.60284270  0.43162195  0.40439332
   0.51582611  0.49771494  0.52767090
   0.40289852  0.57265458  0.58180059
   0.32575389  0.66241358  0.66839994
   0.24789059  0.76105154  0.76112098
   0.17372912  0.82843326  0.81679670
   0.10213341  0.92296187  0.91762386
   0.07907547  0.93644922  0.10727899
   0.98835188  0.00483084  0.18087773
   0.92564541  0.08238217  0.24918050
   0.83295379  0.16995144  0.33614112
   0.74922706  0.26345175  0.43189500
   0.65356612  0.35783521  0.50725067
   0.59711691  0.41739570  0.60516083
   0.51693520  0.49431775  0.67303302
   0.40569520  0.59100063  0.72866470
   0.34624532  0.66762366  0.82533305
   0.27107682  0.76156846  0.91030374
   0.17189609  0.83185741  0.00737680
   0.17010525  0.82915089  0.16292424
   0.09422706  0.92284777  0.25942216
   0.98896958  0.99339131  0.32553341
   0.91380078  0.08038437  0.39636420
   0.86137280  0.16217414  0.51265682
   0.74865075  0.24091983  0.58134997
   0.66398017  0.33082090  0.65866205
   0.59775391  0.40675921  0.75614772
   0.51296515  0.52592255  0.84266552
   0.41271803  0.58503877  0.90109806
   0.33023220  0.65611387  0.00867631
   0.25370985  0.73532194  0.09604069
   0.24592126  0.71829500  0.23477916
   0.16524585  0.81655776  0.32627684
   0.11056670  0.91797123  0.40669804
   0.00018612  0.01088922  0.46342882
   0.91628494  0.04259362  0.57550074
   0.84233876  0.15145288  0.64909769
   0.74328868  0.23345773  0.74570698
   0.68587926  0.32077180  0.83253112
   0.58508364  0.41719803  0.89020397
   0.51861550  0.50658592  0.97109105
   0.41870813  0.57138907  0.06982138
   0.33556037  0.64551479  0.16464835
   0.33369817  0.63499865  0.33949472
   0.24513442  0.72764078  0.40982014
   0.17950371  0.80839686  0.48404719
   0.08678670  0.92499117  0.55939588
   0.01472856  0.99272697  0.66868419
   0.91501742  0.08687347  0.75437316
   0.82776397  0.15462763  0.84644347
   0.75413411  0.23242112  0.92187229
   0.66763078  0.32203099  0.99309646
   0.58415371  0.40500382  0.04996194
   0.50242391  0.48448983  0.15598961
   0.44057922  0.56837242  0.25369698
   0.43437942  0.56805411  0.40522530
   0.34547257  0.65468017  0.48666748
   0.23873182  0.72790140  0.59200683
   0.16148286  0.84542777  0.66419225
   0.09928197  0.92887392  0.76001303
   0.00108108  0.98882254  0.84461070
   0.90657372  0.08348997  0.92645702
   0.82203484  0.15055337  0.99896730
   0.76169372  0.22577377  0.09783836
   0.67087789  0.33288125  0.15072291
   0.58557726  0.42946414  0.23483009
   0.50465266  0.48590133  0.34090939
   0.07588810  0.09305534  0.92138395
   0.99080306  0.16445634  0.01041039
   0.91556327  0.25536342  0.07833057
   0.83597318  0.32511602  0.16846318
   0.75154477  0.42128253  0.25456513
   0.67710782  0.50124036  0.33774011
   0.58593680  0.55956155  0.42587836
   0.49570628  0.68727879  0.48844441
   0.42103468  0.73805291  0.58592850
   0.32242603  0.82053037  0.67830838
   0.25793675  0.92844487  0.75614454
   0.16873515  0.01497529  0.83809572
   0.19021016  0.99506706  0.00356276
   0.08533642  0.08205240  0.08065547
   0.00628009  0.16071689  0.16574896
   0.92030488  0.25455999  0.24111147
   0.84043000  0.33152017  0.34009858
   0.74251247  0.40584950  0.42641946
   0.67839417  0.49786217  0.52041364
   0.57389103  0.59423070  0.57744562
   0.51238276  0.66740270  0.65835456
   0.42531894  0.72948340  0.73613681
   0.36807477  0.83238132  0.82450825
   0.26439779  0.91049257  0.91816292
   0.26062553  0.91203177  0.08749543
   0.15039976  0.00676739  0.17355534
   0.09681373  0.10836915  0.26884532
   0.01234100  0.18481971  0.33052452
   0.90061217  0.22830295  0.42364358
   0.81772607  0.32332384  0.50109666
   0.76108086  0.40545916  0.60387885
   0.68191292  0.51512428  0.66566403
   0.58625516  0.59889839  0.74333384
   0.48643645  0.66849925  0.81780462
   0.41575777  0.73727164  0.92624985
   0.35830507  0.82062421  0.02664822
   0.34253906  0.81418671  0.18086776
   0.23254242  0.92287649  0.22831780
   0.17635388  0.03053851  0.32816472
   0.09070755  0.07123468  0.42825458
   0.98734831  0.16452343  0.51455388
   0.90055175  0.26287814  0.58398571
   0.83168129  0.32835184  0.67721131
   0.74017924  0.42102242  0.76556269
   0.67659688  0.52054032  0.83564297
   0.57585488  0.59535058  0.90509601
   0.50750349  0.66268503  0.98023922
   0.43120057  0.72489644  0.09848799
   0.41844979  0.71517751  0.24797913
   0.30602485  0.79111269  0.31568455
   0.25497354  0.90466554  0.39232684
   0.20808072  0.00560970  0.47646916
   0.08813699  0.08018092  0.56196543
   0.99471257  0.15534985  0.66492170
   0.88695068  0.23072845  0.73279685
   0.83755073  0.31287458  0.82609375
   0.75873985  0.39927776  0.91531237
   0.67713158  0.50549977  0.98002732
   0.58130241  0.57039596  0.06380004
   0.51618262  0.63730163  0.14048579
   0.51053249  0.67041064  0.33895354
   0.41381884  0.73748584  0.39714828
   0.31298928  0.80723731  0.48852097
   0.24351367  0.88934509  0.56742999
   0.18006672  0.99531406  0.64643114
   0.08709844  0.06723849  0.76122770
   0.98326282  0.16574542  0.83390968
   0.91391089  0.24350315  0.92382613
   0.82205559  0.33833853  0.01171045
   0.77458638  0.42748745  0.07879938
   0.66233754  0.51481745  0.14476447
   0.57353894  0.57530234  0.25394660
   0.15979551  0.16002511  0.84434093
   0.09212248  0.23705359  0.93092644
   0.99691503  0.33853634  0.01380516
   0.90816095  0.42805040  0.09383974
   0.83605203  0.50681180  0.18307691
   0.76147528  0.58247556  0.26998197
   0.65247730  0.66111787  0.35260454
   0.58956472  0.76974593  0.41934789
   0.48941514  0.84411309  0.47852439
   0.41357635  0.89917777  0.57354342
   0.32951392  0.98923505  0.65274003
   0.24342389  0.08771031  0.73048884
   0.23816344  0.08687286  0.90994468
   0.17606669  0.15887632  0.01136575
   0.08977359  0.25736258  0.08949349
   0.01574235  0.33533399  0.16272254
   0.93055030  0.42222813  0.24845231
   0.83932397  0.50718382  0.35635777
   0.77104356  0.58348335  0.42985939
   0.65064946  0.65587192  0.49053911
   0.60272992  0.76765343  0.56470617
   0.51096382  0.84689835  0.66386960
   0.41403316  0.92674686  0.76520889
   0.33003867  0.01392990  0.83217498
   0.31816655  0.98674825  0.99752602
   0.24140693  0.08354605  0.07902168
   0.15360493  0.17714593  0.15670170
   0.10165989  0.26861850  0.22763052
   0.00000854  0.32871030  0.35357692
   0.91241726  0.41283146  0.44315250
   0.84051655  0.49505475  0.50301877
   0.74405677  0.60051574  0.59882740
   0.67569130  0.68950408  0.67438739
   0.59037985  0.76373511  0.75415480
   0.50584417  0.82210899  0.83159759
   0.41252641  0.91678206  0.92805915
   0.42212434  0.91893169  0.09873227
   0.32418682  0.00077551  0.17285818
   0.26374184  0.11399213  0.22545177
   0.17686081  0.17147915  0.33377559
   0.09901308  0.24423968  0.42309299
   0.00272617  0.33290738  0.49265940
   0.92513035  0.40534382  0.58166046
   0.82104223  0.50006790  0.67617498
   0.74784223  0.59366828  0.77287118
   0.65182305  0.68102947  0.84109481
   0.56569680  0.73896107  0.91460909
   0.48614989  0.82713476  0.01580259
   0.48622487  0.81751058  0.16469127
   0.41273434  0.91383695  0.26379763
   0.32538727  0.01549055  0.33138319
   0.26116704  0.11304973  0.41769152
   0.17691875  0.16456209  0.48430369
   0.07394985  0.25111136  0.57494631
   0.00923658  0.32049458  0.65554460
   0.93134424  0.39176368  0.75668858
   0.85523364  0.50945232  0.83251481
   0.76601881  0.59229547  0.91702570
   0.65781427  0.66987469  0.00445990
   0.58634793  0.73984446  0.09720112
   0.55368100  0.75421130  0.25176917
   0.48066789  0.83172485  0.34638138
   0.37940749  0.90798182  0.40378504
   0.32148432  0.99911284  0.52187984
   0.26086670  0.07951308  0.57848041
   0.15365843  0.15159647  0.65151802
   0.08504380  0.22453612  0.73962980
   0.00772769  0.32100732  0.83204878
   0.90231684  0.41408316  0.93034570
   0.82291071  0.51829631  0.01404357
   0.74465786  0.59016842  0.08659792
   0.65673289  0.65670547  0.17026620
   0.23708565  0.23006843  0.72943125
   0.17739546  0.33138021  0.84718308
   0.08035109  0.40130964  0.90772817
   0.00065867  0.50793639  0.00445283
   0.90787165  0.56991098  0.09904249
   0.83562355  0.65421443  0.18076878
   0.73861819  0.73842958  0.24295337
   0.66409058  0.84253176  0.33709883
   0.57315614  0.90367942  0.42853650
   0.49283881  0.00093385  0.49259825
   0.41253748  0.07055752  0.59226533
   0.34049118  0.17234088  0.66613236
   0.31499708  0.15095247  0.82327184
   0.26362731  0.21504581  0.93917162
   0.18446140  0.33720730  0.99144391
   0.08846202  0.42416894  0.06899976
   0.99765677  0.50402372  0.18074443
   0.92581372  0.58120085  0.26545211
   0.82416269  0.69840012  0.33756834
   0.73381988  0.76794858  0.43524511
   0.66996215  0.85023761  0.49434085
   0.57466475  0.93127562  0.59301804
   0.51392035  0.00117229  0.65454822
   0.40663418  0.07858697  0.72853822
   0.40762787  0.06789836  0.92000515
   0.33243785  0.16226521  0.00512128
   0.26197092  0.26806715  0.08257716
   0.17441802  0.36862607  0.14974343
   0.07560654  0.39894384  0.25610780
   0.98974667  0.50531325  0.36314564
   0.89780315  0.60050140  0.44452490
   0.84506467  0.68945643  0.50874846
   0.74318746  0.75490383  0.59936999
   0.66570149  0.83363173  0.66493018
   0.57082476  0.93505550  0.74068416
   0.48307383  0.99790326  0.83585497
   0.48296944  0.00564387  0.01322893
   0.40983771  0.08813459  0.09436743
   0.33774074  0.18795351  0.16191720
   0.26038106  0.26430947  0.23405133
   0.16570821  0.33486552  0.32555238
   0.07790711  0.40943484  0.41224336
   0.98511879  0.51886930  0.49477541
   0.91153542  0.58517203  0.59868796
   0.84457352  0.68566018  0.69786748
   0.75419603  0.75340287  0.75848926
   0.65770111  0.82721854  0.85914195
   0.57068784  0.92676972  0.92637734
   0.56817060  0.90248842  0.08106014
   0.49856014  0.00361291  0.19432613
   0.41537944  0.08282653  0.26148856
   0.33892716  0.17288042  0.32863358
   0.26622699  0.26427819  0.41127103
   0.17213288  0.34871585  0.50101737
   0.08291927  0.40816076  0.58470504
   0.00487102  0.49102244  0.65485477
   0.93566513  0.57913468  0.75442239
   0.85562352  0.67792744  0.83378466
   0.74994980  0.77381251  0.89627709
   0.65780736  0.83300914  0.00584173
   0.66927779  0.82482966  0.17130048
   0.57514361  0.89454225  0.26075286
   0.48786762  0.99928746  0.36744296
   0.41888363  0.10081053  0.42374055
   0.35109959  0.18255071  0.51363354
   0.25919580  0.24518099  0.59199357
   0.17050279  0.31385202  0.65726043
   0.09321676  0.38787195  0.74242611
   0.01253515  0.48641764  0.84582198
   0.93002884  0.57627965  0.91905966
   0.83816309  0.67832683  0.00360434
   0.75128702  0.74035906  0.08805973
   0.33345063  0.34909768  0.67193407
   0.25229625  0.41822591  0.73795038
   0.15270253  0.48946090  0.82955480
   0.07837927  0.58186293  0.92589820
   0.99994715  0.65552475  0.01018235
   0.93811127  0.74793775  0.07913534
   0.83435154  0.81836271  0.15512624
   0.74386780  0.91294524  0.23363331
   0.66246038  0.99307390  0.33637762
   0.57179221  0.08849016  0.41277395
   0.50772521  0.18170164  0.50315596
   0.41361881  0.25425035  0.57212647
   0.41116072  0.24008365  0.75854584
   0.32473213  0.33006315  0.82302906
   0.24528534  0.41869797  0.89782201
   0.17333699  0.50040597  0.98900035
   0.06580708  0.56909098  0.09060387
   0.01252881  0.66984926  0.19766616
   0.91712849  0.77886170  0.24944282
   0.80793661  0.83000728  0.33670490
   0.74861719  0.94370216  0.40114341
   0.65253288  0.00653892  0.49400053
   0.58277713  0.09704988  0.56875742
   0.50121953  0.18657065  0.66580847
   0.50660569  0.15390437  0.84016246
   0.41743664  0.22115641  0.92597470
   0.32905701  0.33203455  0.97370412
   0.27192419  0.42647634  0.07399704
   0.13420275  0.48125669  0.15129765
   0.07294496  0.56897929  0.26312844
   0.98453077  0.67072548  0.33487980
   0.92335212  0.78643049  0.40050288
   0.83402696  0.84934206  0.50304163
   0.75187501  0.92369343  0.58376101
   0.67313588  0.00990407  0.64937222
   0.58779639  0.08924079  0.73651960
   0.57672002  0.08645682  0.90458085
   0.50383786  0.14888329  0.99915053
   0.42973512  0.25701841  0.07194976
   0.35175683  0.34553938  0.14962528
   0.24919842  0.41247159  0.24019485
   0.16718459  0.48905885  0.33283306
   0.07637803  0.58647371  0.39805662
   0.99361674  0.67998623  0.51480446
   0.91906540  0.76168782  0.60816158
   0.83996703  0.85300774  0.67865597
   0.72771353  0.91876905  0.75413466
   0.65379106  0.00787531  0.83009884
   0.64624823  0.01062752  0.01334066
   0.57677465  0.07900171  0.09532084
   0.48347447  0.17265750  0.18423517
   0.41793616  0.25584899  0.24858251
   0.33665875  0.32243050  0.33728761
   0.25007566  0.41608050  0.40343366
   0.14162303  0.50519961  0.51399759
   0.06149701  0.61233700  0.58872129
   0.00270266  0.67819216  0.66975236
   0.92647623  0.78691608  0.78125007
   0.81097125  0.85602546  0.83702966
   0.76298138  0.94110873  0.92100569
   0.73807696  0.92351420  0.08654581
   0.64788495  0.98892017  0.17418906
   0.56716025  0.08741561  0.26673047
   0.48508837  0.17180091  0.32868463
   0.44155695  0.25140475  0.41082922
   0.34873582  0.35503892  0.49604486
   0.24583723  0.41419018  0.57174733
   0.15367146  0.50236399  0.65953379
   0.07376276  0.58425061  0.76342944
   0.99516045  0.67512622  0.84563822
   0.92287957  0.77428672  0.93247389
   0.82030851  0.84398804  0.00198901
   0.42346338  0.42116174  0.61009089
   0.31512794  0.49463952  0.64916111
   0.24663033  0.56238405  0.75092612
   0.16320974  0.66442527  0.82864739
   0.10687833  0.74558904  0.92605300
   0.01731404  0.86408032  0.99278989
   0.92669830  0.91159833  0.06682511
   0.81915731  0.02002822  0.15639182
   0.72860007  0.07065077  0.25571707
   0.64865744  0.16798880  0.34203267
   0.57727379  0.24512335  0.42008853
   0.50609226  0.35063049  0.49941823
   0.50708567  0.32429613  0.67893376
   0.42323179  0.44350832  0.74922808
   0.33589723  0.50320425  0.81743162
   0.23799267  0.59781587  0.92046757
   0.18276360  0.64919672  0.00721020
   0.07788676  0.73403621  0.10024968
   0.00518825  0.85776028  0.18452964
   0.88630134  0.92299370  0.23413668
   0.81365897  0.02462931  0.32102742
   0.74792864  0.10067239  0.43500512
   0.66208242  0.16744533  0.50212283
   0.58469211  0.26911788  0.57207541
   0.59250954  0.23367660  0.75824999
   0.49850418  0.32804935  0.81159328
   0.41419521  0.41489925  0.89999853
   0.35105470  0.50097376  0.98507785
   0.26594442  0.54292762  0.08833570
   0.16205076  0.63756575  0.13932166
   0.08300832  0.73691546  0.23708901
   0.01261914  0.86725160  0.31173931
   0.90101116  0.91403475  0.41173551
   0.83534879  0.00064567  0.48796836
   0.76134350  0.08406509  0.56618547
   0.66589169  0.16942244  0.64933205
   0.66174228  0.16573550  0.84692452
   0.57550412  0.24729805  0.90895726
   0.51163950  0.31346618  0.97068615
   0.43985555  0.40576080  0.06309932
   0.35254921  0.47220627  0.17181860
   0.23887726  0.56649448  0.22716743
   0.15344340  0.64564961  0.31579001
   0.07677313  0.75823313  0.39886561
   0.99490787  0.85121028  0.48582052
   0.91581025  0.91198306  0.58574626
   0.80820378  0.99665749  0.68021440
   0.74199176  0.08637234  0.76110243
   0.76562285  0.07928067  0.92813813
   0.64951776  0.15343805  0.00693268
   0.58384364  0.25351604  0.08262030
   0.52681663  0.34455834  0.16096124
   0.42302471  0.40787740  0.24625764
   0.33204354  0.50074801  0.33746236
   0.24511168  0.56318272  0.44225260
   0.16703869  0.68582759  0.49416532
   0.08772803  0.77462553  0.56458076
   0.01365522  0.84935239  0.68271821
   0.91676339  0.92529708  0.76138766
   0.82195296  0.00104417  0.81815179
   0.83309215  0.00165000  0.00369184
   0.73287667  0.08396620  0.08835386
   0.65338064  0.14368059  0.18758252
   0.56018279  0.24805480  0.24872119
   0.49945671  0.35255349  0.31495487
   0.42507226  0.44550554  0.40488170
   0.35590596  0.48796552  0.49272859
   0.22504415  0.59650591  0.58120111
   0.14678040  0.67629185  0.66928603
   0.08571839  0.75405711  0.75022293
   0.03101162  0.83848062  0.85494211
   0.90862831  0.92641229  0.91473731
