 500 500   0   0
  0.2029568E+02  0.2165000E-08  0.2165000E-08  0.2165000E-08  0.5000000E-15
  1.000000000000000E-004
  CAR 
 Li                                      
      3.43409203     -3.43544298  301      0.38871235      1.00000000
     -3.435  0.0000E+00  0.0000E+00
     -3.413  0.0000E+00  0.0000E+00
     -3.390  0.0000E+00  0.0000E+00
     -3.367  0.0000E+00  0.0000E+00
     -3.344  0.0000E+00  0.0000E+00
     -3.321  0.0000E+00  0.0000E+00
     -3.298  0.6061E-14  0.1388E-15
     -3.275  0.3328E-10  0.7621E-12
     -3.252  0.4978E-07  0.1141E-08
     -3.229  0.2385E-04  0.5474E-06
     -3.206  0.3694E-02  0.8513E-04
     -3.184  0.1872E+00  0.4371E-02
     -3.161  0.3155E+01  0.7663E-01
     -3.138  0.1803E+02  0.4895E+00
     -3.115  0.3549E+02  0.1302E+01
     -3.092  0.2429E+02  0.1858E+01
     -3.069  0.6481E+01  0.2007E+01
     -3.046  0.9681E+01  0.2228E+01
     -3.023  0.4469E+02  0.3252E+01
     -3.000  0.9166E+02  0.5351E+01
     -2.977  0.8141E+02  0.7215E+01
     -2.955  0.3025E+02  0.7907E+01
     -2.932  0.1026E+02  0.8142E+01
     -2.909  0.3650E+02  0.8978E+01
     -2.886  0.8774E+02  0.1099E+02
     -2.863  0.8848E+02  0.1301E+02
     -2.840  0.3720E+02  0.1387E+02
     -2.817  0.1249E+02  0.1415E+02
     -2.794  0.3857E+02  0.1503E+02
     -2.771  0.9975E+02  0.1732E+02
     -2.748  0.1213E+03  0.2010E+02
     -2.726  0.6702E+02  0.2163E+02
     -2.703  0.2252E+02  0.2215E+02
     -2.680  0.4496E+02  0.2318E+02
     -2.657  0.1203E+03  0.2593E+02
     -2.634  0.1699E+03  0.2982E+02
     -2.611  0.1268E+03  0.3272E+02
     -2.588  0.4816E+02  0.3383E+02
     -2.565  0.1897E+02  0.3426E+02
     -2.542  0.5250E+02  0.3546E+02
     -2.520  0.9739E+02  0.3769E+02
     -2.497  0.7481E+02  0.3941E+02
     -2.474  0.2575E+02  0.4000E+02
     -2.451  0.2661E+02  0.4061E+02
     -2.428  0.9065E+02  0.4268E+02
     -2.405  0.1626E+03  0.4640E+02
     -2.382  0.1526E+03  0.4990E+02
     -2.359  0.7804E+02  0.5168E+02
     -2.336  0.4780E+02  0.5278E+02
     -2.313  0.1059E+03  0.5521E+02
     -2.291  0.1927E+03  0.5962E+02
     -2.268  0.2206E+03  0.6467E+02
     -2.245  0.1584E+03  0.6830E+02
     -2.222  0.6559E+02  0.6980E+02
     -2.199  0.3319E+02  0.7056E+02
     -2.176  0.6520E+02  0.7205E+02
     -2.153  0.9083E+02  0.7413E+02
     -2.130  0.6213E+02  0.7555E+02
     -2.107  0.2737E+02  0.7618E+02
     -2.084  0.5648E+02  0.7747E+02
     -2.062  0.1417E+03  0.8072E+02
     -2.039  0.1909E+03  0.8509E+02
     -2.016  0.1446E+03  0.8840E+02
     -1.993  0.6694E+02  0.8993E+02
     -1.970  0.6275E+02  0.9137E+02
     -1.947  0.1420E+03  0.9462E+02
     -1.924  0.2112E+03  0.9946E+02
     -1.901  0.2014E+03  0.1041E+03
     -1.878  0.1249E+03  0.1069E+03
     -1.855  0.5431E+02  0.1082E+03
     -1.833  0.6781E+02  0.1097E+03
     -1.810  0.1389E+03  0.1129E+03
     -1.787  0.1656E+03  0.1167E+03
     -1.764  0.1112E+03  0.1192E+03
     -1.741  0.6834E+02  0.1208E+03
     -1.718  0.1167E+03  0.1235E+03
     -1.695  0.2000E+03  0.1281E+03
     -1.672  0.2212E+03  0.1331E+03
     -1.649  0.1497E+03  0.1366E+03
     -1.626  0.6836E+02  0.1381E+03
     -1.604  0.7960E+02  0.1399E+03
     -1.581  0.1670E+03  0.1438E+03
     -1.558  0.2257E+03  0.1489E+03
     -1.535  0.1898E+03  0.1533E+03
     -1.512  0.9769E+02  0.1555E+03
     -1.489  0.5473E+02  0.1568E+03
     -1.466  0.1013E+03  0.1591E+03
     -1.443  0.1567E+03  0.1627E+03
     -1.420  0.1416E+03  0.1659E+03
     -1.397  0.8232E+02  0.1678E+03
     -1.375  0.6839E+02  0.1694E+03
     -1.352  0.1126E+03  0.1720E+03
     -1.329  0.1454E+03  0.1753E+03
     -1.306  0.1303E+03  0.1783E+03
     -1.283  0.8418E+02  0.1802E+03
     -1.260  0.1072E+03  0.1827E+03
     -1.237  0.2114E+03  0.1875E+03
     -1.214  0.2915E+03  0.1942E+03
     -1.191  0.2946E+03  0.2009E+03
     -1.168  0.2338E+03  0.2063E+03
     -1.146  0.1442E+03  0.2096E+03
     -1.123  0.1262E+03  0.2125E+03
     -1.100  0.1930E+03  0.2169E+03
     -1.077  0.2254E+03  0.2220E+03
     -1.054  0.1719E+03  0.2260E+03
     -1.031  0.9585E+02  0.2282E+03
     -1.008  0.7649E+02  0.2299E+03
     -0.985  0.1204E+03  0.2327E+03
     -0.962  0.1785E+03  0.2368E+03
     -0.940  0.1658E+03  0.2406E+03
     -0.917  0.1275E+03  0.2435E+03
     -0.894  0.1685E+03  0.2473E+03
     -0.871  0.2344E+03  0.2527E+03
     -0.848  0.2489E+03  0.2584E+03
     -0.825  0.1986E+03  0.2630E+03
     -0.802  0.1046E+03  0.2654E+03
     -0.779  0.4351E+02  0.2663E+03
     -0.756  0.6062E+02  0.2677E+03
     -0.733  0.9264E+02  0.2699E+03
     -0.711  0.7831E+02  0.2716E+03
     -0.688  0.8222E+02  0.2735E+03
     -0.665  0.1661E+03  0.2773E+03
     -0.642  0.2508E+03  0.2831E+03
     -0.619  0.2772E+03  0.2894E+03
     -0.596  0.2721E+03  0.2957E+03
     -0.573  0.2526E+03  0.3014E+03
     -0.550  0.2254E+03  0.3066E+03
     -0.527  0.2154E+03  0.3115E+03
     -0.504  0.2503E+03  0.3173E+03
     -0.482  0.2794E+03  0.3237E+03
     -0.459  0.2494E+03  0.3294E+03
     -0.436  0.1866E+03  0.3336E+03
     -0.413  0.1358E+03  0.3368E+03
     -0.390  0.1164E+03  0.3394E+03
     -0.367  0.1280E+03  0.3424E+03
     -0.344  0.1395E+03  0.3455E+03
     -0.321  0.1709E+03  0.3495E+03
     -0.298  0.1971E+03  0.3540E+03
     -0.275  0.1894E+03  0.3583E+03
     -0.253  0.1733E+03  0.3623E+03
     -0.230  0.1612E+03  0.3660E+03
     -0.207  0.1622E+03  0.3697E+03
     -0.184  0.2025E+03  0.3743E+03
     -0.161  0.2508E+03  0.3801E+03
     -0.138  0.2669E+03  0.3862E+03
     -0.115  0.2578E+03  0.3921E+03
     -0.092  0.2286E+03  0.3973E+03
     -0.069  0.2070E+03  0.4021E+03
     -0.046  0.2125E+03  0.4069E+03
     -0.024  0.1979E+03  0.4115E+03
     -0.001  0.1468E+03  0.4148E+03
      0.022  0.1195E+03  0.4175E+03
      0.045  0.1649E+03  0.4213E+03
      0.068  0.2299E+03  0.4266E+03
      0.091  0.2589E+03  0.4325E+03
      0.114  0.2562E+03  0.4384E+03
      0.137  0.2363E+03  0.4438E+03
      0.160  0.2104E+03  0.4486E+03
      0.183  0.2059E+03  0.4533E+03
      0.205  0.2116E+03  0.4582E+03
      0.228  0.2005E+03  0.4628E+03
      0.251  0.1897E+03  0.4671E+03
      0.274  0.2104E+03  0.4719E+03
      0.297  0.2441E+03  0.4775E+03
      0.320  0.2575E+03  0.4834E+03
      0.343  0.2516E+03  0.4892E+03
      0.366  0.2407E+03  0.4947E+03
      0.389  0.2310E+03  0.5000E+03
      0.411  0.2352E+03  0.5054E+03
      0.434  0.2385E+03  0.5108E+03
      0.457  0.2352E+03  0.5162E+03
      0.480  0.2338E+03  0.5216E+03
      0.503  0.2469E+03  0.5272E+03
      0.526  0.2714E+03  0.5334E+03
      0.549  0.2939E+03  0.5402E+03
      0.572  0.3088E+03  0.5472E+03
      0.595  0.3160E+03  0.5545E+03
      0.618  0.3090E+03  0.5615E+03
      0.640  0.2894E+03  0.5682E+03
      0.663  0.2753E+03  0.5745E+03
      0.686  0.2737E+03  0.5807E+03
      0.709  0.2637E+03  0.5868E+03
      0.732  0.2470E+03  0.5924E+03
      0.755  0.2323E+03  0.5978E+03
      0.778  0.2211E+03  0.6028E+03
      0.801  0.2135E+03  0.6077E+03
      0.824  0.1929E+03  0.6121E+03
      0.847  0.1682E+03  0.6160E+03
      0.869  0.1638E+03  0.6197E+03
      0.892  0.1665E+03  0.6235E+03
      0.915  0.1644E+03  0.6273E+03
      0.938  0.1646E+03  0.6311E+03
      0.961  0.1720E+03  0.6350E+03
      0.984  0.1834E+03  0.6392E+03
      1.007  0.1991E+03  0.6438E+03
      1.030  0.2160E+03  0.6487E+03
      1.053  0.2341E+03  0.6541E+03
      1.076  0.2476E+03  0.6597E+03
      1.098  0.2529E+03  0.6655E+03
      1.121  0.2532E+03  0.6713E+03
      1.144  0.2605E+03  0.6773E+03
      1.167  0.2672E+03  0.6834E+03
      1.190  0.2614E+03  0.6894E+03
      1.213  0.2449E+03  0.6950E+03
      1.236  0.2263E+03  0.7002E+03
      1.259  0.2148E+03  0.7051E+03
      1.282  0.1986E+03  0.7097E+03
      1.305  0.1886E+03  0.7140E+03
      1.327  0.1934E+03  0.7184E+03
      1.350  0.2024E+03  0.7230E+03
      1.373  0.2192E+03  0.7281E+03
      1.396  0.2352E+03  0.7335E+03
      1.419  0.2259E+03  0.7386E+03
      1.442  0.2112E+03  0.7435E+03
      1.465  0.2015E+03  0.7481E+03
      1.488  0.1882E+03  0.7524E+03
      1.511  0.1757E+03  0.7564E+03
      1.534  0.1772E+03  0.7605E+03
      1.556  0.1793E+03  0.7646E+03
      1.579  0.1754E+03  0.7686E+03
      1.602  0.1669E+03  0.7724E+03
      1.625  0.1598E+03  0.7761E+03
      1.648  0.1556E+03  0.7796E+03
      1.671  0.1516E+03  0.7831E+03
      1.694  0.1546E+03  0.7866E+03
      1.717  0.1552E+03  0.7902E+03
      1.740  0.1477E+03  0.7936E+03
      1.763  0.1475E+03  0.7970E+03
      1.785  0.1614E+03  0.8007E+03
      1.808  0.1827E+03  0.8048E+03
      1.831  0.2006E+03  0.8094E+03
      1.854  0.2116E+03  0.8143E+03
      1.877  0.2275E+03  0.8195E+03
      1.900  0.2387E+03  0.8249E+03
      1.923  0.2323E+03  0.8303E+03
      1.946  0.2169E+03  0.8352E+03
      1.969  0.2013E+03  0.8398E+03
      1.991  0.1979E+03  0.8444E+03
      2.014  0.2050E+03  0.8491E+03
      2.037  0.1948E+03  0.8535E+03
      2.060  0.1778E+03  0.8576E+03
      2.083  0.1718E+03  0.8615E+03
      2.106  0.1662E+03  0.8653E+03
      2.129  0.1482E+03  0.8687E+03
      2.152  0.1389E+03  0.8719E+03
      2.175  0.1393E+03  0.8751E+03
      2.198  0.1394E+03  0.8783E+03
      2.220  0.1452E+03  0.8816E+03
      2.243  0.1536E+03  0.8851E+03
      2.266  0.1656E+03  0.8889E+03
      2.289  0.1759E+03  0.8930E+03
      2.312  0.1761E+03  0.8970E+03
      2.335  0.1660E+03  0.9008E+03
      2.358  0.1510E+03  0.9043E+03
      2.381  0.1377E+03  0.9074E+03
      2.404  0.1374E+03  0.9106E+03
      2.427  0.1408E+03  0.9138E+03
      2.449  0.1448E+03  0.9171E+03
      2.472  0.1473E+03  0.9205E+03
      2.495  0.1370E+03  0.9236E+03
      2.518  0.1385E+03  0.9268E+03
      2.541  0.1522E+03  0.9303E+03
      2.564  0.1595E+03  0.9339E+03
      2.587  0.1493E+03  0.9373E+03
      2.610  0.1323E+03  0.9404E+03
      2.633  0.1284E+03  0.9433E+03
      2.656  0.1344E+03  0.9464E+03
      2.678  0.1353E+03  0.9495E+03
      2.701  0.1345E+03  0.9526E+03
      2.724  0.1318E+03  0.9556E+03
      2.747  0.1363E+03  0.9587E+03
      2.770  0.1450E+03  0.9620E+03
      2.793  0.1466E+03  0.9654E+03
      2.816  0.1493E+03  0.9688E+03
      2.839  0.1530E+03  0.9723E+03
      2.862  0.1508E+03  0.9757E+03
      2.885  0.1520E+03  0.9792E+03
      2.907  0.1446E+03  0.9825E+03
      2.930  0.1196E+03  0.9853E+03
      2.953  0.8028E+02  0.9871E+03
      2.976  0.4495E+02  0.9881E+03
      2.999  0.4902E+02  0.9893E+03
      3.022  0.7474E+02  0.9910E+03
      3.045  0.9416E+02  0.9931E+03
      3.068  0.1112E+03  0.9957E+03
      3.091  0.1168E+03  0.9984E+03
      3.114  0.9416E+02  0.1001E+04
      3.136  0.4970E+02  0.1002E+04
      3.159  0.1372E+02  0.1002E+04
      3.182  0.1649E+01  0.1002E+04
      3.205  0.7696E-01  0.1002E+04
      3.228  0.1298E-02  0.1002E+04
      3.251  0.7564E-05  0.1002E+04
      3.274  0.1475E-07  0.1002E+04
      3.297  0.9438E-11  0.1002E+04
      3.320  0.2424E-14  0.1002E+04
      3.342  0.0000E+00  0.1002E+04
      3.365  0.0000E+00  0.1002E+04
      3.388  0.0000E+00  0.1002E+04
      3.411  0.0000E+00  0.1002E+04
      3.434  0.0000E+00  0.1002E+04
