       N       E                     dE             d eps       ncg     rms          rms(c)
DAV:   1    -0.279327922229E+03   -0.27933E+03   -0.12131E+05  4008   0.656E+02
DAV:   2    -0.878284019772E+03   -0.59896E+03   -0.54818E+03  4620   0.674E+01
DAV:   3    -0.921255835617E+03   -0.42972E+02   -0.39218E+02  5216   0.142E+01
DAV:   4    -0.922721099785E+03   -0.14653E+01   -0.14430E+01  4704   0.287E+00
DAV:   5    -0.922755805677E+03   -0.34706E-01   -0.34645E-01  4856   0.465E-01    0.970E+00
DAV:   6    -0.922092015834E+03    0.66379E+00   -0.12193E+01  4712   0.530E+00    0.884E+00
DAV:   7    -0.911459697636E+03    0.10632E+02   -0.11533E+01  4920   0.487E+00    0.501E+00
DAV:   8    -0.908810204497E+03    0.26495E+01   -0.54929E+00  4696   0.249E+00    0.279E+00
DAV:   9    -0.908219646938E+03    0.59056E+00   -0.30711E+00  4496   0.145E+00    0.142E+00
DAV:  10    -0.908356704811E+03   -0.13706E+00   -0.72146E-01  4768   0.907E-01    0.145E+00
DAV:  11    -0.908118062832E+03    0.23864E+00   -0.34822E-01  4624   0.623E-01    0.612E-01
DAV:  12    -0.908116569314E+03    0.14935E-02   -0.90105E-02  4600   0.270E-01    0.392E-01
DAV:  13    -0.908113072326E+03    0.34970E-02   -0.37539E-02  4640   0.214E-01    0.294E-01
DAV:  14    -0.908105593638E+03    0.74787E-02   -0.11909E-02  4584   0.127E-01    0.142E-01
DAV:  15    -0.908104654148E+03    0.93949E-03   -0.36353E-03  4480   0.605E-02    0.689E-02
DAV:  16    -0.908104953010E+03   -0.29886E-03   -0.13170E-03  4960   0.437E-02    0.669E-02
DAV:  17    -0.908104375451E+03    0.57756E-03   -0.70347E-04  4720   0.304E-02    0.224E-02
DAV:  18    -0.908104364158E+03    0.11293E-04   -0.24442E-04  4480   0.137E-02    0.141E-02
DAV:  19    -0.908104355843E+03    0.83147E-05   -0.64783E-05  4720   0.867E-03
   1 F= -.90810436E+03 E0= -.90805233E+03  d E =-.104059E+00
