Li                                      
           1
    21.650000    0.000000    0.000000
     0.000000   21.650000    0.000000
    -0.000000   -0.000000   21.650000
   Li
   500
Direct configuration=     1
   0.00311510  0.99878132  0.00311003
   0.00116846  0.09562459  0.11026775
   0.99568000  0.21125076  0.20477930
   0.99250455  0.30543623  0.31039416
   0.98152602  0.40559308  0.43201857
   0.97426828  0.50285423  0.49966076
   0.98933059  0.59004835  0.59120460
   0.97967949  0.70228260  0.71293681
   0.00685119  0.79236625  0.80669877
   0.01335391  0.89829278  0.89209853
   0.10035353  0.97903488  0.10687881
   0.09889014  0.11869644  0.20106756
   0.06871695  0.19504634  0.32660715
   0.09343639  0.32572926  0.40550327
   0.09559356  0.40996643  0.51125086
   0.09911464  0.49739792  0.61150265
   0.09378768  0.60799110  0.68208389
   0.11000793  0.70445040  0.78466888
   0.10749227  0.81735393  0.88456899
   0.09924216  0.92849474  0.99716017
   0.18810129  0.01865198  0.18919406
   0.19209212  0.10621039  0.33327130
   0.18192953  0.17784001  0.38221967
   0.20032448  0.30456700  0.50654845
   0.21579169  0.38839570  0.60948248
   0.20155277  0.49362295  0.68648874
   0.19885444  0.58793848  0.77941158
   0.19897530  0.69880490  0.89781881
   0.20615110  0.80832378  0.97201433
   0.20944724  0.91108525  0.08769880
   0.28279616  0.00790572  0.30419098
   0.30429800  0.10563783  0.38552482
   0.28814115  0.19379783  0.50497996
   0.31707873  0.29589341  0.59861745
   0.29137260  0.37980697  0.70001822
   0.30796485  0.50907317  0.80986780
   0.29497776  0.59469621  0.88780364
   0.32821129  0.68437235  0.99878747
   0.30495699  0.78564672  0.08704165
   0.27898753  0.90271964  0.19946786
   0.41550584  0.99312518  0.37468496
   0.40904546  0.09159435  0.49785492
   0.39893965  0.18750874  0.59288599
   0.40076528  0.29018862  0.68317750
   0.40467042  0.39018490  0.78356451
   0.39739049  0.48438477  0.89884402
   0.42898418  0.61033843  0.99827456
   0.41505379  0.69103586  0.13115465
   0.39684861  0.79571622  0.19619119
   0.39161933  0.90964826  0.28562773
   0.50268379  0.00652665  0.49895871
   0.49320312  0.08805220  0.60985318
   0.48744453  0.19251717  0.70720063
   0.50670878  0.29534249  0.78917474
   0.49268781  0.39916045  0.90820298
   0.50896405  0.48975006  0.00859749
   0.48217694  0.59332332  0.12015876
   0.50227548  0.69766224  0.20257356
   0.49102909  0.80348977  0.29211912
   0.50851526  0.88806100  0.37542108
   0.60035125  0.00048926  0.58716006
   0.59371078  0.08827681  0.71799124
   0.59410974  0.19748490  0.79127448
   0.60928889  0.31064696  0.89641019
   0.59486194  0.39966558  0.01926284
   0.59424883  0.50030206  0.11816028
   0.58208146  0.58679563  0.21191699
   0.59596924  0.71523118  0.28396786
   0.60330805  0.79332664  0.39326418
   0.60167011  0.91559312  0.49543074
   0.70385926  0.99562503  0.71167369
   0.70725171  0.09821647  0.81226919
   0.69864765  0.19783790  0.90782640
   0.70138215  0.29181152  0.99278518
   0.70166209  0.39249357  0.07376357
   0.69617658  0.49839751  0.20761157
   0.69200864  0.60070173  0.31581462
   0.70354206  0.70908189  0.41343879
   0.67289650  0.82101663  0.50488198
   0.69995041  0.91659361  0.60143959
   0.80718563  0.00950628  0.80945156
   0.80286701  0.11441920  0.90502811
   0.80173928  0.21884420  0.00689720
   0.81530251  0.29571730  0.09896265
   0.80005498  0.39740035  0.19393703
   0.79019121  0.50238133  0.29767025
   0.78397613  0.61445480  0.40977822
   0.79512032  0.72236963  0.49502820
   0.78490150  0.78226382  0.60002465
   0.79539474  0.88677079  0.68712491
   0.90449008  0.99433961  0.91803166
   0.92234809  0.09913921  0.01870014
   0.90870516  0.20687856  0.11829881
   0.92302188  0.29975542  0.21428322
   0.91549575  0.41777036  0.29964367
   0.88456344  0.53363435  0.39725140
   0.88480322  0.60516631  0.49502807
   0.89028477  0.67408404  0.59579980
   0.87816371  0.79789399  0.70308314
   0.90805502  0.90424563  0.78197003
   0.08644027  0.10077502  0.00569767
   0.10479492  0.20182210  0.10659541
   0.07286258  0.27549272  0.22097810
   0.10380233  0.40084395  0.29686595
   0.10864335  0.49917028  0.42021470
   0.12416148  0.61329932  0.51782833
   0.08716906  0.70359607  0.59104354
   0.09278177  0.78869682  0.68752505
   0.09718680  0.91101156  0.77875319
   0.11098559  0.99729260  0.89960556
   0.19437235  0.10622126  0.08878326
   0.19336078  0.18948280  0.22354932
   0.18781250  0.28707604  0.30636174
   0.20367653  0.39779748  0.41486225
   0.23254168  0.49093308  0.52021797
   0.21551311  0.58525496  0.61698638
   0.22049851  0.70770333  0.66954004
   0.21694321  0.79772586  0.78005733
   0.20979453  0.89016382  0.87680252
   0.17754810  0.00529082  0.98625228
   0.27456114  0.12024401  0.21774624
   0.30952432  0.18450895  0.30468736
   0.26573342  0.27716517  0.39118100
   0.31904753  0.41281126  0.49311142
   0.31879747  0.49502177  0.61946624
   0.31470875  0.59954692  0.71237834
   0.30678516  0.69932738  0.77954295
   0.31861776  0.79742811  0.90166773
   0.30079256  0.90428782  0.99784890
   0.28564468  0.02471271  0.09654267
   0.42743972  0.09864196  0.29356433
   0.41337502  0.19063405  0.40495137
   0.37883070  0.28567162  0.48431340
   0.40384479  0.39381632  0.61379469
   0.41274309  0.48211713  0.70616858
   0.40606558  0.58617639  0.78752994
   0.40719890  0.69136781  0.89735091
   0.39399811  0.80920222  0.00423994
   0.39378121  0.90368273  0.12273749
   0.39608092  0.00613197  0.21231122
   0.51538654  0.08233661  0.36243106
   0.51229188  0.18461890  0.48726706
   0.48096944  0.29552968  0.57191264
   0.50019846  0.39774124  0.70624756
   0.51375188  0.49662559  0.82555642
   0.50152722  0.58601577  0.87561437
   0.50206954  0.70993432  0.99687053
   0.49741818  0.79059795  0.10860239
   0.50756522  0.88630467  0.16738273
   0.51969939  0.97003412  0.27411313
   0.59144417  0.09935024  0.49631701
   0.59321327  0.18689841  0.60691050
   0.58413973  0.32453078  0.69299490
   0.60841489  0.39711322  0.82021381
   0.61690499  0.50221856  0.91034922
   0.58643218  0.59662784  0.99629683
   0.60240600  0.68927664  0.10651892
   0.60305377  0.81651264  0.16930050
   0.62302167  0.87170611  0.29403431
   0.62312195  0.98836646  0.39916335
   0.68554374  0.09932855  0.60133996
   0.65840635  0.19780078  0.70382228
   0.69880749  0.29575706  0.80145790
   0.72940407  0.41134611  0.91499026
   0.69847615  0.50923293  0.00457115
   0.70271579  0.59057297  0.12190567
   0.70968490  0.71086475  0.20103785
   0.71148393  0.81417637  0.30179459
   0.71676770  0.89721624  0.38979890
   0.70898142  0.00828970  0.48084270
   0.78834308  0.10704329  0.69000105
   0.81063506  0.22056302  0.78927471
   0.79746675  0.30048612  0.91258563
   0.82202959  0.39723657  0.99336936
   0.81703878  0.50559128  0.08798624
   0.80814932  0.61414046  0.22866523
   0.79397245  0.72170352  0.31527858
   0.81068169  0.81676107  0.39891214
   0.80470136  0.91778097  0.51414949
   0.78160045  0.01165438  0.60282421
   0.88116554  0.09253820  0.80505799
   0.89929914  0.18849001  0.89898012
   0.91060270  0.28676638  0.98780835
   0.92227326  0.40963808  0.08789915
   0.91170920  0.49678836  0.20849162
   0.88051477  0.60313606  0.33916948
   0.89880280  0.70932906  0.40812494
   0.89860684  0.80398351  0.48754709
   0.88469013  0.89158788  0.59560826
   0.87984095  0.00923774  0.67432562
   0.99443754  0.11513904  0.90366880
   0.99626158  0.20146238  0.00542280
   0.00918117  0.30013894  0.08996980
   0.01473615  0.40483473  0.19349381
   0.02522751  0.49986766  0.31307653
   0.02394428  0.58181974  0.38853657
   0.99772627  0.69739867  0.47350595
   0.99649637  0.79074497  0.58666825
   0.99182344  0.88560766  0.68815857
   0.00381173  0.00841469  0.77387664
   0.18369535  0.21157423  0.99518148
   0.19200432  0.29837270  0.12680309
   0.18752409  0.39834264  0.21751643
   0.17997816  0.50431096  0.29829325
   0.20065100  0.61486966  0.39293269
   0.22224646  0.70600129  0.50903345
   0.20852367  0.81966618  0.60302107
   0.19241487  0.91340146  0.67713441
   0.20595404  0.99533303  0.78527674
   0.19767281  0.09856687  0.88883259
   0.29884906  0.20867632  0.10191979
   0.29225483  0.29428563  0.21459186
   0.27894123  0.39435069  0.32403585
   0.30612931  0.50388420  0.39388887
   0.31180958  0.57993817  0.51972687
   0.31470064  0.70534289  0.58805077
   0.32444740  0.81232998  0.66854541
   0.30045981  0.89136965  0.79578437
   0.31776435  0.00483600  0.88769078
   0.28634305  0.10605980  0.00325191
   0.40463380  0.19786079  0.19276866
   0.39807238  0.30053915  0.31724608
   0.39994770  0.36753556  0.40561272
   0.39472803  0.49365379  0.50763578
   0.40194299  0.58764934  0.61846096
   0.42572710  0.69637594  0.68533948
   0.40114179  0.79273025  0.80750048
   0.39649522  0.89604671  0.89933199
   0.40627566  0.00371322  0.99127768
   0.39086711  0.09502417  0.10524001
   0.51104770  0.21243381  0.29737087
   0.50902982  0.29142294  0.41479259
   0.49136748  0.39010628  0.49690949
   0.50943232  0.47257157  0.59877393
   0.51392281  0.58327490  0.69767294
   0.49673934  0.68785563  0.80997796
   0.49433241  0.80880970  0.90416602
   0.50077519  0.90667606  0.01985941
   0.50678455  0.02894275  0.12662630
   0.51556921  0.11336827  0.21179016
   0.61682320  0.19756064  0.39191647
   0.62400627  0.29265524  0.50350811
   0.59520745  0.39135567  0.59740921
   0.59482382  0.48039567  0.69101786
   0.59883276  0.59113094  0.81203960
   0.59721066  0.70423372  0.91520393
   0.59321125  0.78549527  0.00538135
   0.60709320  0.91266918  0.06640569
   0.59898678  0.99560348  0.18752787
   0.60740078  0.07874959  0.29035118
   0.71535045  0.19053960  0.49815023
   0.69525099  0.27607275  0.60069107
   0.70591551  0.38861801  0.69781683
   0.70662311  0.49689993  0.82966346
   0.70012660  0.60763068  0.91440891
   0.69341775  0.69744659  0.00637950
   0.72346900  0.81011745  0.07826075
   0.71058747  0.91191836  0.16118083
   0.70821148  0.98256032  0.29462451
   0.70885120  0.09435001  0.39008732
   0.78319770  0.19600852  0.61026186
   0.79816963  0.28205197  0.68861615
   0.78681556  0.39584780  0.80545892
   0.81777565  0.51260632  0.91512608
   0.79734810  0.60271381  0.99365246
   0.78630593  0.68073243  0.11322635
   0.81380163  0.80266852  0.19641401
   0.79608975  0.90697782  0.26882153
   0.81227828  0.00461565  0.39736038
   0.80021644  0.09677856  0.50796533
   0.90690581  0.21681793  0.70034053
   0.91896913  0.30442156  0.81755526
   0.90502292  0.41386766  0.92943902
   0.92264795  0.53485965  0.00837570
   0.89540021  0.61538270  0.10555519
   0.87142330  0.70913674  0.20224952
   0.89539439  0.84662727  0.29637515
   0.88983351  0.90807310  0.40020940
   0.87364991  0.00117520  0.50787158
   0.88379344  0.11277660  0.58660373
   0.00562412  0.19705017  0.78189804
   0.00780775  0.31282097  0.91446501
   0.01469114  0.42220308  0.99307135
   0.01705298  0.52504399  0.09843688
   0.98819741  0.59838458  0.22461320
   0.97579738  0.71936956  0.32654555
   0.99096230  0.81337080  0.40949425
   0.98102373  0.88408589  0.51527419
   0.99245631  0.01549764  0.59147279
   0.97609966  0.09630669  0.67468470
   0.09784342  0.19302308  0.89437639
   0.10520756  0.29114013  0.99837262
   0.09918227  0.39223275  0.10170000
   0.11049711  0.51570074  0.19502620
   0.09497151  0.61650110  0.29699476
   0.10132468  0.69829310  0.39497816
   0.11380414  0.81662730  0.50879223
   0.09305599  0.91369200  0.59889845
   0.09307645  0.00272114  0.68510589
   0.11111302  0.09638978  0.78441253
   0.28921041  0.30404505  0.02328722
   0.29571361  0.40252832  0.12239127
   0.30094612  0.50054084  0.23000070
   0.30025779  0.60958458  0.30943535
   0.31324081  0.69857991  0.41669682
   0.28851898  0.81206267  0.51146575
   0.31453426  0.93192245  0.58109228
   0.29796994  0.98946941  0.69908312
   0.29685813  0.12296374  0.80964802
   0.29525883  0.21657232  0.90836634
   0.38014927  0.29079498  0.12017266
   0.40594424  0.39188723  0.22470557
   0.40628722  0.49939507  0.30296795
   0.39590592  0.59609584  0.40437084
   0.39884073  0.69404366  0.49608375
   0.40474085  0.79610297  0.58777949
   0.39862611  0.88961705  0.68016461
   0.39821590  0.98869099  0.79846168
   0.38686313  0.12070482  0.90995372
   0.39662583  0.20938399  0.00714202
   0.50244663  0.30502424  0.19599852
   0.49744055  0.37590472  0.32302492
   0.49199537  0.49420267  0.40377903
   0.49669795  0.59946149  0.50252145
   0.50243349  0.71216229  0.60675672
   0.48246777  0.80775551  0.69896249
   0.48303092  0.89847516  0.80068488
   0.48968398  0.00161530  0.90416021
   0.50010057  0.11389643  0.01959003
   0.49573513  0.20141625  0.09979812
   0.59991466  0.30632673  0.29617530
   0.59779695  0.36656119  0.39835800
   0.61100179  0.48052721  0.50281713
   0.58556513  0.57594139  0.62110279
   0.57259764  0.69337294  0.69853245
   0.58761047  0.79254310  0.79912737
   0.58644610  0.89917588  0.88492627
   0.58502424  0.02039679  0.97446742
   0.60231083  0.11958421  0.11379556
   0.58563782  0.20431310  0.20170207
   0.72637443  0.28710123  0.40623670
   0.69954057  0.37845265  0.48216438
   0.69682231  0.49759756  0.58599265
   0.68623603  0.59621048  0.70518259
   0.67098863  0.71070544  0.79084475
   0.67718383  0.78911226  0.90615141
   0.69628966  0.92133788  0.97357754
   0.70826963  0.01549523  0.07176064
   0.68795074  0.10671576  0.19513619
   0.71537292  0.19648881  0.30185938
   0.80047843  0.29236921  0.49067282
   0.80879446  0.40366552  0.60437109
   0.78226000  0.51411153  0.69541667
   0.77630672  0.59949494  0.79931777
   0.79361481  0.68973735  0.88271398
   0.79377986  0.78159578  0.99882833
   0.79046658  0.90680933  0.08401787
   0.79275061  0.01244915  0.18743121
   0.80638982  0.08499514  0.30070514
   0.82118821  0.21045668  0.39558769
   0.89218144  0.30128665  0.58749317
   0.88189688  0.40869645  0.70684636
   0.89116678  0.50000151  0.82771931
   0.90726274  0.60586974  0.89055313
   0.90586419  0.71237035  0.98331938
   0.89944748  0.78267157  0.08102101
   0.89551047  0.90718089  0.16454104
   0.91074392  0.97877757  0.29054402
   0.89532576  0.08402436  0.40445964
   0.86402299  0.20586660  0.50977232
   0.99046539  0.33465435  0.70641377
   0.98895349  0.40509253  0.81478689
   0.00881210  0.49932840  0.89796510
   0.99937752  0.59725610  0.00512710
   0.99447291  0.69687328  0.08942355
   0.99757607  0.79399981  0.20241581
   0.99541681  0.89922344  0.28218589
   0.99685346  0.98975953  0.40284432
   0.97907587  0.10465310  0.50097139
   0.01891221  0.19856180  0.59338779
   0.08829637  0.31017837  0.80307308
   0.11488046  0.40827637  0.91565704
   0.11746107  0.50100622  0.00665531
   0.09283568  0.61022464  0.09045522
   0.09022419  0.69190748  0.20856240
   0.09346481  0.80492026  0.29639342
   0.11468624  0.91660509  0.38690161
   0.09007627  0.01184255  0.49971315
   0.11105377  0.09706462  0.59086047
   0.07549447  0.19767919  0.70367633
   0.18408399  0.29988197  0.89031889
   0.21536370  0.40170037  0.00629455
   0.21867285  0.51538409  0.11633838
   0.20140170  0.60605308  0.21690724
   0.18922590  0.71177472  0.29892227
   0.20383091  0.80339956  0.41452928
   0.19536830  0.92999403  0.50538651
   0.18958787  0.01046829  0.59029687
   0.20726730  0.10203527  0.68485079
   0.19569305  0.21093356  0.79025902
   0.39871814  0.37230045  0.00877439
   0.40015699  0.49365039  0.10781357
   0.41882088  0.58640228  0.20237619
   0.41374605  0.69294268  0.30919758
   0.40868333  0.79619102  0.39205377
   0.40968595  0.87941649  0.50210474
   0.39776278  0.00393575  0.61003173
   0.39160195  0.09371805  0.71017465
   0.39973081  0.20539744  0.79275748
   0.39921916  0.30043000  0.89153037
   0.49958216  0.39592192  0.09470351
   0.49364125  0.47552462  0.20189106
   0.49842527  0.59684888  0.30674532
   0.50783429  0.72109290  0.40349951
   0.51324310  0.79995149  0.48490846
   0.51386592  0.91271685  0.59400581
   0.50962384  0.98835137  0.70300304
   0.48532735  0.08875377  0.80018864
   0.50099018  0.19357015  0.90337942
   0.49654775  0.27590526  0.00752683
   0.61063889  0.40852158  0.19630773
   0.59252327  0.49825220  0.32290339
   0.59896541  0.60003507  0.39678407
   0.59684772  0.69292677  0.52573129
   0.58596658  0.82444965  0.60453492
   0.60543985  0.91290536  0.73553587
   0.60998234  0.00341933  0.81214505
   0.58229198  0.13940864  0.88610313
   0.60560516  0.20498676  0.02330084
   0.61203050  0.28420871  0.13278203
   0.70566093  0.37795430  0.29346637
   0.70000031  0.49695277  0.39633428
   0.68689282  0.59098361  0.50722857
   0.67416079  0.69356349  0.60038619
   0.69527103  0.80147164  0.68734652
   0.73115046  0.88581666  0.82201111
   0.67416658  0.02065204  0.91001031
   0.70369459  0.11130082  0.00874492
   0.70024561  0.19000023  0.10813399
   0.72712526  0.28620577  0.21448710
   0.79723401  0.40664106  0.40735143
   0.78039325  0.49009082  0.49675140
   0.77464286  0.60769571  0.60371812
   0.79074185  0.69326336  0.71671091
   0.80625406  0.79270617  0.79388666
   0.81489847  0.88777352  0.92145685
   0.82372086  0.99474256  0.99068512
   0.80813594  0.11144864  0.08460158
   0.81182772  0.19726003  0.20768341
   0.81600481  0.30067680  0.30565118
   0.88989572  0.41534211  0.50198295
   0.86521883  0.50910795  0.59252402
   0.88007674  0.58960246  0.70996552
   0.90593616  0.71118828  0.80413483
   0.90229348  0.80481443  0.89621890
   0.90235846  0.87627061  0.01624269
   0.91107292  0.99398509  0.09121827
   0.89019652  0.08319288  0.19543176
   0.91027090  0.19161895  0.31517799
   0.89937895  0.31537969  0.40683949
   0.98182403  0.40833242  0.58626539
   0.98387586  0.49383115  0.70962261
   0.01028654  0.59939812  0.80005080
   0.01132366  0.70085377  0.89828902
   0.01565650  0.80436988  0.98987940
   0.00338413  0.88757478  0.08898664
   0.02165805  0.98374991  0.18389766
   0.98788443  0.09352674  0.28258650
   0.98948007  0.20869191  0.41325220
   0.00658085  0.29273593  0.50165665
   0.11632040  0.39527709  0.69949147
   0.10316388  0.48365797  0.78212058
   0.10541959  0.58369446  0.89172986
   0.09049705  0.71296475  0.99412679
   0.11848085  0.80193098  0.08876185
   0.09886761  0.89882732  0.19235661
   0.09642366  0.00914064  0.28990213
   0.08348997  0.07835383  0.38989242
   0.10242523  0.18798845  0.47824712
   0.09101238  0.29444514  0.56638081
   0.20524112  0.39974880  0.79766543
   0.19705522  0.48804774  0.90028739
   0.21065741  0.59366583  0.98798355
   0.21466691  0.68957787  0.09618521
   0.19788938  0.78250891  0.19570387
   0.19934048  0.89835127  0.28733292
   0.19526318  0.00860574  0.39477954
   0.20208181  0.08786877  0.47551662
   0.19283465  0.20012691  0.58900103
   0.19818781  0.28029215  0.69769710
   0.31053493  0.39863739  0.90675598
   0.32311491  0.52474763  0.98574121
   0.31254584  0.58938530  0.10007275
   0.29688938  0.68161546  0.20997227
   0.30673587  0.80438853  0.31098340
   0.29607852  0.91416296  0.40332778
   0.31185567  0.00807366  0.48221704
   0.30548769  0.08700141  0.59464190
   0.31029091  0.19623340  0.68545909
   0.28553399  0.30818234  0.79114306
