 500 500   0   0
  0.2153794E+02  0.2208300E-08  0.2208300E-08  0.2208300E-08  0.5000000E-15
  1.000000000000000E-004
  CAR 
 Li                                      
      3.08539409     -3.49678967  301      0.23174693      1.00000000
     -3.497  0.0000E+00  0.0000E+00
     -3.475  0.0000E+00  0.0000E+00
     -3.453  0.0000E+00  0.0000E+00
     -3.431  0.0000E+00  0.0000E+00
     -3.409  0.0000E+00  0.0000E+00
     -3.387  0.0000E+00  0.0000E+00
     -3.365  0.8982E-13  0.1971E-14
     -3.343  0.2241E-09  0.4918E-11
     -3.321  0.1941E-06  0.4263E-08
     -3.299  0.5917E-04  0.1302E-05
     -3.277  0.6401E-02  0.1417E-03
     -3.255  0.2484E+00  0.5591E-02
     -3.234  0.3504E+01  0.8246E-01
     -3.212  0.1823E+02  0.4825E+00
     -3.190  0.3544E+02  0.1260E+01
     -3.168  0.2593E+02  0.1829E+01
     -3.146  0.8036E+01  0.2005E+01
     -3.124  0.1038E+02  0.2233E+01
     -3.102  0.4163E+02  0.3146E+01
     -3.080  0.8334E+02  0.4975E+01
     -3.058  0.8412E+02  0.6821E+01
     -3.036  0.4304E+02  0.7765E+01
     -3.014  0.1470E+02  0.8087E+01
     -2.992  0.2795E+02  0.8701E+01
     -2.970  0.7098E+02  0.1026E+02
     -2.948  0.9218E+02  0.1228E+02
     -2.926  0.5927E+02  0.1358E+02
     -2.904  0.2107E+02  0.1404E+02
     -2.882  0.2778E+02  0.1465E+02
     -2.861  0.7782E+02  0.1636E+02
     -2.839  0.1184E+03  0.1896E+02
     -2.817  0.9453E+02  0.2103E+02
     -2.795  0.4182E+02  0.2195E+02
     -2.773  0.3547E+02  0.2273E+02
     -2.751  0.8772E+02  0.2465E+02
     -2.729  0.1448E+03  0.2783E+02
     -2.707  0.1488E+03  0.3109E+02
     -2.685  0.9451E+02  0.3316E+02
     -2.663  0.3637E+02  0.3396E+02
     -2.641  0.3079E+02  0.3464E+02
     -2.619  0.7128E+02  0.3620E+02
     -2.597  0.9088E+02  0.3820E+02
     -2.575  0.6137E+02  0.3954E+02
     -2.553  0.3594E+02  0.4033E+02
     -2.531  0.6073E+02  0.4166E+02
     -2.509  0.1158E+03  0.4420E+02
     -2.488  0.1518E+03  0.4753E+02
     -2.466  0.1294E+03  0.5037E+02
     -2.444  0.7182E+02  0.5195E+02
     -2.422  0.6987E+02  0.5348E+02
     -2.400  0.1367E+03  0.5648E+02
     -2.378  0.1918E+03  0.6069E+02
     -2.356  0.1924E+03  0.6491E+02
     -2.334  0.1448E+03  0.6809E+02
     -2.312  0.7405E+02  0.6971E+02
     -2.290  0.4462E+02  0.7069E+02
     -2.268  0.7069E+02  0.7224E+02
     -2.246  0.8819E+02  0.7418E+02
     -2.224  0.6246E+02  0.7555E+02
     -2.202  0.4015E+02  0.7643E+02
     -2.180  0.7568E+02  0.7809E+02
     -2.158  0.1394E+03  0.8115E+02
     -2.136  0.1707E+03  0.8489E+02
     -2.115  0.1430E+03  0.8803E+02
     -2.093  0.8542E+02  0.8991E+02
     -2.071  0.8271E+02  0.9172E+02
     -2.049  0.1460E+03  0.9492E+02
     -2.027  0.1936E+03  0.9917E+02
     -2.005  0.1867E+03  0.1033E+03
     -1.983  0.1389E+03  0.1063E+03
     -1.961  0.8272E+02  0.1081E+03
     -1.939  0.8562E+02  0.1100E+03
     -1.917  0.1365E+03  0.1130E+03
     -1.895  0.1540E+03  0.1164E+03
     -1.873  0.1151E+03  0.1189E+03
     -1.851  0.7780E+02  0.1206E+03
     -1.829  0.1086E+03  0.1230E+03
     -1.807  0.1753E+03  0.1268E+03
     -1.785  0.2025E+03  0.1313E+03
     -1.763  0.1703E+03  0.1350E+03
     -1.742  0.1113E+03  0.1375E+03
     -1.720  0.9242E+02  0.1395E+03
     -1.698  0.1419E+03  0.1426E+03
     -1.676  0.1978E+03  0.1469E+03
     -1.654  0.1960E+03  0.1512E+03
     -1.632  0.1389E+03  0.1543E+03
     -1.610  0.8234E+02  0.1561E+03
     -1.588  0.8847E+02  0.1580E+03
     -1.566  0.1338E+03  0.1610E+03
     -1.544  0.1448E+03  0.1642E+03
     -1.522  0.1138E+03  0.1667E+03
     -1.500  0.8519E+02  0.1685E+03
     -1.478  0.1055E+03  0.1708E+03
     -1.456  0.1467E+03  0.1741E+03
     -1.434  0.1498E+03  0.1773E+03
     -1.412  0.1141E+03  0.1798E+03
     -1.390  0.1121E+03  0.1823E+03
     -1.369  0.1737E+03  0.1861E+03
     -1.347  0.2356E+03  0.1913E+03
     -1.325  0.2595E+03  0.1970E+03
     -1.303  0.2516E+03  0.2025E+03
     -1.281  0.2073E+03  0.2070E+03
     -1.259  0.1487E+03  0.2103E+03
     -1.237  0.1492E+03  0.2136E+03
     -1.215  0.1923E+03  0.2178E+03
     -1.193  0.2002E+03  0.2222E+03
     -1.171  0.1594E+03  0.2257E+03
     -1.149  0.1142E+03  0.2282E+03
     -1.127  0.1142E+03  0.2307E+03
     -1.105  0.1527E+03  0.2341E+03
     -1.083  0.1759E+03  0.2379E+03
     -1.061  0.1560E+03  0.2413E+03
     -1.039  0.1430E+03  0.2445E+03
     -1.018  0.1733E+03  0.2483E+03
     -0.996  0.2061E+03  0.2528E+03
     -0.974  0.2191E+03  0.2576E+03
     -0.952  0.1981E+03  0.2620E+03
     -0.930  0.1332E+03  0.2649E+03
     -0.908  0.7826E+02  0.2666E+03
     -0.886  0.8290E+02  0.2684E+03
     -0.864  0.8855E+02  0.2704E+03
     -0.842  0.8449E+02  0.2722E+03
     -0.820  0.1235E+03  0.2749E+03
     -0.798  0.1938E+03  0.2792E+03
     -0.776  0.2422E+03  0.2845E+03
     -0.754  0.2687E+03  0.2904E+03
     -0.732  0.2696E+03  0.2963E+03
     -0.710  0.2396E+03  0.3016E+03
     -0.688  0.2192E+03  0.3064E+03
     -0.666  0.2300E+03  0.3114E+03
     -0.645  0.2527E+03  0.3170E+03
     -0.623  0.2558E+03  0.3226E+03
     -0.601  0.2275E+03  0.3276E+03
     -0.579  0.1901E+03  0.3317E+03
     -0.557  0.1576E+03  0.3352E+03
     -0.535  0.1429E+03  0.3383E+03
     -0.513  0.1462E+03  0.3415E+03
     -0.491  0.1476E+03  0.3448E+03
     -0.469  0.1689E+03  0.3485E+03
     -0.447  0.2058E+03  0.3530E+03
     -0.425  0.2160E+03  0.3577E+03
     -0.403  0.2017E+03  0.3622E+03
     -0.381  0.1807E+03  0.3661E+03
     -0.359  0.1736E+03  0.3699E+03
     -0.337  0.1992E+03  0.3743E+03
     -0.315  0.2317E+03  0.3794E+03
     -0.293  0.2512E+03  0.3849E+03
     -0.272  0.2455E+03  0.3903E+03
     -0.250  0.2212E+03  0.3951E+03
     -0.228  0.2066E+03  0.3997E+03
     -0.206  0.2043E+03  0.4041E+03
     -0.184  0.1973E+03  0.4085E+03
     -0.162  0.1832E+03  0.4125E+03
     -0.140  0.1763E+03  0.4164E+03
     -0.118  0.1860E+03  0.4204E+03
     -0.096  0.2112E+03  0.4251E+03
     -0.074  0.2285E+03  0.4301E+03
     -0.052  0.2252E+03  0.4350E+03
     -0.030  0.2237E+03  0.4399E+03
     -0.008  0.2256E+03  0.4449E+03
      0.014  0.2272E+03  0.4499E+03
      0.036  0.2284E+03  0.4549E+03
      0.058  0.2233E+03  0.4598E+03
      0.080  0.2068E+03  0.4643E+03
      0.101  0.1931E+03  0.4686E+03
      0.123  0.2075E+03  0.4731E+03
      0.145  0.2416E+03  0.4784E+03
      0.167  0.2568E+03  0.4840E+03
      0.189  0.2501E+03  0.4895E+03
      0.211  0.2449E+03  0.4949E+03
      0.233  0.2476E+03  0.5003E+03
      0.255  0.2431E+03  0.5057E+03
      0.277  0.2383E+03  0.5109E+03
      0.299  0.2452E+03  0.5163E+03
      0.321  0.2512E+03  0.5218E+03
      0.343  0.2533E+03  0.5273E+03
      0.365  0.2576E+03  0.5330E+03
      0.387  0.2676E+03  0.5389E+03
      0.409  0.2857E+03  0.5451E+03
      0.431  0.2960E+03  0.5516E+03
      0.453  0.2913E+03  0.5580E+03
      0.474  0.2881E+03  0.5644E+03
      0.496  0.2879E+03  0.5707E+03
      0.518  0.2725E+03  0.5766E+03
      0.540  0.2431E+03  0.5820E+03
      0.562  0.2238E+03  0.5869E+03
      0.584  0.2198E+03  0.5917E+03
      0.606  0.2181E+03  0.5965E+03
      0.628  0.2094E+03  0.6011E+03
      0.650  0.2103E+03  0.6057E+03
      0.672  0.2175E+03  0.6105E+03
      0.694  0.2159E+03  0.6152E+03
      0.716  0.2166E+03  0.6200E+03
      0.738  0.2125E+03  0.6246E+03
      0.760  0.2018E+03  0.6291E+03
      0.782  0.2007E+03  0.6335E+03
      0.804  0.2025E+03  0.6379E+03
      0.826  0.2036E+03  0.6424E+03
      0.847  0.2151E+03  0.6471E+03
      0.869  0.2238E+03  0.6520E+03
      0.891  0.2336E+03  0.6571E+03
      0.913  0.2525E+03  0.6627E+03
      0.935  0.2539E+03  0.6682E+03
      0.957  0.2463E+03  0.6736E+03
      0.979  0.2436E+03  0.6790E+03
      1.001  0.2425E+03  0.6843E+03
      1.023  0.2416E+03  0.6896E+03
      1.045  0.2417E+03  0.6949E+03
      1.067  0.2420E+03  0.7002E+03
      1.089  0.2453E+03  0.7056E+03
      1.111  0.2398E+03  0.7109E+03
      1.133  0.2296E+03  0.7159E+03
      1.155  0.2261E+03  0.7209E+03
      1.177  0.2299E+03  0.7259E+03
      1.199  0.2341E+03  0.7310E+03
      1.220  0.2273E+03  0.7360E+03
      1.242  0.2148E+03  0.7407E+03
      1.264  0.2071E+03  0.7453E+03
      1.286  0.2096E+03  0.7499E+03
      1.308  0.2090E+03  0.7545E+03
      1.330  0.1995E+03  0.7588E+03
      1.352  0.1881E+03  0.7630E+03
      1.374  0.1808E+03  0.7669E+03
      1.396  0.1766E+03  0.7708E+03
      1.418  0.1681E+03  0.7745E+03
      1.440  0.1598E+03  0.7780E+03
      1.462  0.1571E+03  0.7815E+03
      1.484  0.1488E+03  0.7847E+03
      1.506  0.1409E+03  0.7878E+03
      1.528  0.1565E+03  0.7912E+03
      1.550  0.1756E+03  0.7951E+03
      1.571  0.1895E+03  0.7993E+03
      1.593  0.1970E+03  0.8036E+03
      1.615  0.1967E+03  0.8079E+03
      1.637  0.1943E+03  0.8122E+03
      1.659  0.2007E+03  0.8166E+03
      1.681  0.2120E+03  0.8212E+03
      1.703  0.2062E+03  0.8257E+03
      1.725  0.1955E+03  0.8300E+03
      1.747  0.1959E+03  0.8343E+03
      1.769  0.1951E+03  0.8386E+03
      1.791  0.1874E+03  0.8427E+03
      1.813  0.1910E+03  0.8469E+03
      1.835  0.1976E+03  0.8512E+03
      1.857  0.1912E+03  0.8554E+03
      1.879  0.1737E+03  0.8593E+03
      1.901  0.1545E+03  0.8626E+03
      1.923  0.1471E+03  0.8659E+03
      1.944  0.1431E+03  0.8690E+03
      1.966  0.1334E+03  0.8719E+03
      1.988  0.1415E+03  0.8750E+03
      2.010  0.1600E+03  0.8785E+03
      2.032  0.1612E+03  0.8821E+03
      2.054  0.1590E+03  0.8856E+03
      2.076  0.1665E+03  0.8892E+03
      2.098  0.1702E+03  0.8930E+03
      2.120  0.1619E+03  0.8965E+03
      2.142  0.1479E+03  0.8998E+03
      2.164  0.1438E+03  0.9029E+03
      2.186  0.1497E+03  0.9062E+03
      2.208  0.1491E+03  0.9095E+03
      2.230  0.1481E+03  0.9127E+03
      2.252  0.1544E+03  0.9161E+03
      2.274  0.1661E+03  0.9198E+03
      2.296  0.1714E+03  0.9235E+03
      2.317  0.1597E+03  0.9270E+03
      2.339  0.1589E+03  0.9305E+03
      2.361  0.1651E+03  0.9341E+03
      2.383  0.1582E+03  0.9376E+03
      2.405  0.1518E+03  0.9409E+03
      2.427  0.1505E+03  0.9442E+03
      2.449  0.1532E+03  0.9476E+03
      2.471  0.1637E+03  0.9512E+03
      2.493  0.1705E+03  0.9549E+03
      2.515  0.1658E+03  0.9586E+03
      2.537  0.1657E+03  0.9622E+03
      2.559  0.1754E+03  0.9660E+03
      2.581  0.1732E+03  0.9698E+03
      2.603  0.1636E+03  0.9734E+03
      2.625  0.1645E+03  0.9770E+03
      2.647  0.1735E+03  0.9809E+03
      2.669  0.1716E+03  0.9846E+03
      2.690  0.1558E+03  0.9880E+03
      2.712  0.1452E+03  0.9912E+03
      2.734  0.1441E+03  0.9944E+03
      2.756  0.1437E+03  0.9975E+03
      2.778  0.1195E+03  0.1000E+04
      2.800  0.6380E+02  0.1002E+04
      2.822  0.1780E+02  0.1002E+04
      2.844  0.2265E+01  0.1002E+04
      2.866  0.1210E+00  0.1002E+04
      2.888  0.2569E-02  0.1002E+04
      2.910  0.2081E-04  0.1002E+04
      2.932  0.6246E-07  0.1002E+04
      2.954  0.6796E-10  0.1002E+04
      2.976  0.2783E-13  0.1002E+04
      2.998  0.0000E+00  0.1002E+04
      3.020  0.0000E+00  0.1002E+04
      3.042  0.0000E+00  0.1002E+04
      3.063  0.0000E+00  0.1002E+04
      3.085  0.0000E+00  0.1002E+04
