       N       E                     dE             d eps       ncg     rms          rms(c)
DAV:   1    -0.271743684014E+03   -0.27174E+03   -0.11962E+05  4008   0.651E+02
DAV:   2    -0.862961703169E+03   -0.59122E+03   -0.53999E+03  4620   0.659E+01
DAV:   3    -0.907220067562E+03   -0.44258E+02   -0.40553E+02  5240   0.142E+01
DAV:   4    -0.908780754368E+03   -0.15607E+01   -0.15381E+01  4744   0.293E+00
DAV:   5    -0.908819541504E+03   -0.38787E-01   -0.38713E-01  4920   0.479E-01    0.113E+01
DAV:   6    -0.908420561590E+03    0.39898E+00   -0.15734E+01  4928   0.631E+00    0.104E+01
DAV:   7    -0.892667967412E+03    0.15753E+02   -0.16533E+01  5208   0.579E+00    0.562E+00
DAV:   8    -0.889447850460E+03    0.32201E+01   -0.94061E+00  4832   0.297E+00    0.314E+00
DAV:   9    -0.888706600159E+03    0.74125E+00   -0.46942E+00  4576   0.177E+00    0.160E+00
DAV:  10    -0.888856959236E+03   -0.15036E+00   -0.10886E+00  4792   0.108E+00    0.155E+00
DAV:  11    -0.888573787702E+03    0.28317E+00   -0.49629E-01  4768   0.713E-01    0.667E-01
DAV:  12    -0.888570932195E+03    0.28555E-02   -0.13728E-01  4624   0.308E-01    0.402E-01
DAV:  13    -0.888570916712E+03    0.15483E-04   -0.46291E-02  4888   0.226E-01    0.315E-01
DAV:  14    -0.888562239057E+03    0.86777E-02   -0.16340E-02  4872   0.144E-01    0.173E-01
DAV:  15    -0.888560536041E+03    0.17030E-02   -0.50577E-03  4648   0.699E-02    0.786E-02
DAV:  16    -0.888561128428E+03   -0.59239E-03   -0.18520E-03  4936   0.487E-02    0.756E-02
DAV:  17    -0.888560354476E+03    0.77395E-03   -0.11792E-03  5016   0.375E-02    0.271E-02
DAV:  18    -0.888560342400E+03    0.12075E-04   -0.32111E-04  4568   0.157E-02    0.161E-02
DAV:  19    -0.888560331578E+03    0.10823E-04   -0.83368E-05  4656   0.929E-03    0.112E-02
DAV:  20    -0.888560321369E+03    0.10209E-04   -0.21053E-05  3664   0.587E-03    0.753E-03
DAV:  21    -0.888560313120E+03    0.82494E-05   -0.10993E-05  2448   0.356E-03
   1 F= -.88856031E+03 E0= -.88850459E+03  d E =-.111445E+00
