Li                                      
           1
    22.083000   -0.000000    0.000000
    -0.000000   22.083000    0.000000
     0.000000    0.000000   22.083000
   Li
   500
Direct configuration=     1
   0.98976352  0.00529085  0.03308569
   0.00528945  0.10763795  0.09649215
   0.99622776  0.22591222  0.18668109
   0.01931985  0.31676458  0.27737513
   0.99390032  0.40212625  0.39885821
   0.00354634  0.49746568  0.48039101
   0.01281237  0.59205706  0.56908469
   0.99073553  0.69447478  0.67884007
   0.01672129  0.78779199  0.79639830
   0.00802387  0.87176149  0.93346834
   0.12739257  0.00249028  0.08728737
   0.10160948  0.13038941  0.17237544
   0.10483662  0.23368618  0.29751934
   0.09864578  0.29134474  0.38595332
   0.08855371  0.38601549  0.51630838
   0.10757292  0.48873223  0.59804424
   0.09643341  0.60509081  0.69804459
   0.09277616  0.69083853  0.81180182
   0.11520666  0.79353738  0.89468514
   0.10305800  0.91442863  0.00957666
   0.19776700  0.99053935  0.18515266
   0.16309231  0.12484017  0.28462122
   0.18675271  0.20460722  0.38354498
   0.19146219  0.29007212  0.48966046
   0.19280329  0.37495741  0.58510013
   0.20541734  0.48434457  0.69986066
   0.21484065  0.58571315  0.80077458
   0.20210666  0.67210127  0.90436612
   0.19029377  0.78609361  0.00945372
   0.22625752  0.89847130  0.09628377
   0.26272075  0.00200784  0.31001251
   0.29074456  0.09434955  0.42656708
   0.30981678  0.20765957  0.47945214
   0.30435836  0.27304462  0.60247018
   0.31460424  0.40881718  0.68285556
   0.34020020  0.49309354  0.76792667
   0.33003372  0.60206476  0.86005154
   0.31576077  0.69953466  0.95382611
   0.30847604  0.75242226  0.09958767
   0.29774176  0.87060840  0.19849905
   0.40585230  0.00526740  0.40443448
   0.41581340  0.06950254  0.50859010
   0.38511256  0.19258134  0.61767660
   0.39404706  0.28725373  0.71493671
   0.40249854  0.39064399  0.78364215
   0.42448818  0.49441638  0.90373862
   0.38978816  0.58683188  0.97001527
   0.41726841  0.69068432  0.07111889
   0.41871867  0.79771380  0.18294485
   0.41657339  0.87863295  0.29638241
   0.48545500  0.98520697  0.53236513
   0.49993768  0.08344102  0.60665246
   0.48918729  0.19755299  0.69589641
   0.50380383  0.29577424  0.82391222
   0.48477130  0.38606427  0.91032606
   0.49979205  0.47026680  0.99822241
   0.53404324  0.58181104  0.08101750
   0.53073964  0.71318332  0.19182850
   0.50390396  0.81268706  0.30224710
   0.51330478  0.90663994  0.40680919
   0.60151103  0.01605327  0.62128327
   0.62600747  0.10366952  0.71635326
   0.61055538  0.21103543  0.82343452
   0.62650208  0.31432035  0.90810284
   0.60745310  0.39919230  0.00519917
   0.58844565  0.48781220  0.12037035
   0.58934002  0.62457852  0.20171834
   0.59372828  0.70950223  0.28586939
   0.58558626  0.79833687  0.42455476
   0.60176841  0.90249081  0.52447830
   0.73186878  0.97340278  0.73528789
   0.71327831  0.11288867  0.81109680
   0.71648114  0.18961822  0.91793899
   0.66740908  0.30381360  0.00785713
   0.69019827  0.40293952  0.10105953
   0.70202896  0.52557995  0.20956313
   0.70135652  0.61246469  0.31044976
   0.69024545  0.71937349  0.40312422
   0.71263829  0.80463760  0.50009273
   0.71157289  0.89606245  0.59154331
   0.83855173  0.99185102  0.82556910
   0.80442634  0.09963896  0.91672229
   0.79976320  0.22112026  0.03387330
   0.79186129  0.30914358  0.11246780
   0.78762445  0.42499977  0.16840540
   0.78434637  0.52211621  0.31125670
   0.80771605  0.63010819  0.41943685
   0.81615265  0.69964959  0.49297436
   0.81935985  0.79354668  0.60426490
   0.82268012  0.88031613  0.71383601
   0.90833907  0.99181022  0.90299962
   0.88030262  0.08031742  0.00054468
   0.90258766  0.18052369  0.11859747
   0.87366916  0.30926918  0.17221680
   0.87082951  0.40203063  0.28093718
   0.91261104  0.50016881  0.38884048
   0.91849804  0.59945125  0.46890714
   0.93078401  0.71689112  0.58524664
   0.91158217  0.79528961  0.70102831
   0.92678081  0.87772398  0.83066405
   0.10667938  0.10032491  0.00180253
   0.11216410  0.21308806  0.06856013
   0.11007721  0.30804760  0.17498924
   0.11128538  0.40454426  0.29761653
   0.10231913  0.50479628  0.41995235
   0.11769238  0.58458933  0.49433397
   0.09491621  0.69995528  0.61391838
   0.08646537  0.79576629  0.70209810
   0.09749783  0.89947483  0.79872439
   0.08169613  0.99523224  0.90396339
   0.19122814  0.11421468  0.08122573
   0.19861509  0.22636448  0.18558643
   0.21751683  0.30435702  0.29267050
   0.21183061  0.40419832  0.40865270
   0.21417363  0.46571364  0.51453081
   0.19735952  0.57774221  0.61031431
   0.19583498  0.69005333  0.71047687
   0.18571616  0.79622715  0.80090236
   0.19695736  0.88674159  0.92599468
   0.21336902  0.00240807  0.00566816
   0.29325162  0.08283207  0.19078824
   0.31246172  0.20139615  0.29199435
   0.31936327  0.27876040  0.37912144
   0.34008496  0.37290554  0.50612718
   0.30080930  0.50734053  0.61230487
   0.32208935  0.60192269  0.70942178
   0.33277316  0.69384143  0.79204805
   0.28949233  0.78235011  0.87447818
   0.31012029  0.87121418  0.97925811
   0.27725770  0.98016865  0.09033102
   0.36845013  0.07663125  0.28157998
   0.39517027  0.17150469  0.38921447
   0.41661248  0.29706715  0.50252083
   0.41278644  0.36782027  0.58928580
   0.40392701  0.48161275  0.69080261
   0.43591690  0.58366728  0.79448547
   0.42966169  0.70731642  0.88218748
   0.42170287  0.79266042  0.97152426
   0.38699617  0.89773938  0.07158365
   0.37782522  0.97902147  0.20628711
   0.50526987  0.08100983  0.42333046
   0.51021215  0.21554078  0.52758533
   0.49248798  0.28297190  0.59621773
   0.51078397  0.37679738  0.68923255
   0.49693280  0.50675411  0.77912792
   0.51732751  0.58870685  0.90645940
   0.51039582  0.69323356  0.98558682
   0.50434616  0.80055503  0.08274841
   0.49320388  0.89940206  0.16733391
   0.47799049  0.00238492  0.31349123
   0.59124773  0.08486524  0.51413235
   0.61199196  0.17321947  0.61078228
   0.60400438  0.27644273  0.70331001
   0.59401812  0.41246419  0.77193311
   0.58829442  0.47836132  0.91287933
   0.59396482  0.58163529  0.98632787
   0.57683102  0.69509072  0.10312394
   0.57445751  0.79097205  0.19827343
   0.57950914  0.88733501  0.30408946
   0.60246146  0.00408423  0.41763641
   0.71026541  0.07202917  0.61341624
   0.70958438  0.19405380  0.72111900
   0.71093833  0.29313736  0.80165515
   0.68965503  0.42181253  0.91519177
   0.69413673  0.48875737  0.02766207
   0.70014062  0.59784985  0.07495911
   0.69146714  0.73484259  0.19680086
   0.67958264  0.79333411  0.30575003
   0.68769641  0.89327326  0.40088311
   0.70982599  0.00442544  0.48681513
   0.80901595  0.06856928  0.71178172
   0.79947489  0.19292386  0.80466550
   0.78260207  0.28829903  0.90621770
   0.78654666  0.37631813  0.00195006
   0.81059346  0.48743829  0.09730165
   0.78440289  0.60030571  0.17719443
   0.79288739  0.70805822  0.29631140
   0.80648649  0.78899054  0.39682014
   0.81152141  0.90734199  0.49082908
   0.81758722  0.98038412  0.60767721
   0.90487776  0.09167080  0.81965033
   0.87133024  0.20566959  0.89137225
   0.88920430  0.31466499  0.02241077
   0.91230816  0.40762865  0.07219633
   0.88677072  0.48583735  0.19993129
   0.90299372  0.61333864  0.28478709
   0.92317361  0.70109676  0.39891164
   0.92615532  0.82270903  0.48128060
   0.90644441  0.89903728  0.57104561
   0.90331173  0.95935002  0.71298571
   0.99058959  0.11239942  0.90797088
   0.98546662  0.20147062  0.99377930
   0.00903492  0.29017765  0.07268324
   0.99976073  0.40724618  0.20949028
   0.00310724  0.51666662  0.32647365
   0.00607664  0.60260008  0.37433695
   0.01695795  0.71387194  0.47696137
   0.00035970  0.81395371  0.60539791
   0.98323038  0.89412992  0.72118746
   0.00552711  0.99323904  0.80876581
   0.18607376  0.20403251  0.99640657
   0.20150839  0.32812860  0.09973510
   0.20747930  0.39943420  0.21578859
   0.20615416  0.51658160  0.31155016
   0.21725322  0.58914864  0.41966248
   0.19776725  0.72353138  0.53409079
   0.18240866  0.82359335  0.61021840
   0.19007369  0.90684397  0.71002179
   0.18972218  0.02397351  0.81450951
   0.18103486  0.09688511  0.90804579
   0.29790845  0.21986502  0.09051499
   0.30008190  0.30937297  0.21344384
   0.30731285  0.41275097  0.32293601
   0.30884980  0.49026971  0.42253418
   0.29492941  0.59781393  0.51860207
   0.31710436  0.71184171  0.62457082
   0.28845450  0.79167948  0.71014452
   0.29305599  0.89517166  0.80317681
   0.29034658  0.00576618  0.91011504
   0.31290352  0.11448479  0.99171315
   0.39774386  0.18756111  0.19919292
   0.41923100  0.31982005  0.28932447
   0.44205758  0.40959370  0.40732097
   0.41824547  0.52066816  0.49428228
   0.42996533  0.58708554  0.61089756
   0.39918606  0.69075161  0.67728412
   0.38391834  0.82252891  0.78883335
   0.41578711  0.89696351  0.89941841
   0.38983267  0.99119521  0.97382163
   0.39774278  0.09231208  0.09195580
   0.48310978  0.18558402  0.30890933
   0.52279147  0.27440135  0.42689765
   0.49161633  0.39031031  0.47970632
   0.48894424  0.46921947  0.58339985
   0.50551477  0.58687250  0.67229442
   0.49005712  0.70623955  0.79746566
   0.49905530  0.78543341  0.87125794
   0.50338849  0.91472906  0.99179262
   0.48769736  0.99614151  0.08219005
   0.46192230  0.06796698  0.18569570
   0.59922590  0.16701608  0.40744630
   0.60623218  0.29263181  0.50029868
   0.60231020  0.39045397  0.60351928
   0.58054956  0.48042721  0.67627619
   0.59735525  0.58060876  0.78576070
   0.59688363  0.71674346  0.88296091
   0.60414595  0.79128327  0.99689257
   0.59863871  0.88950357  0.09925988
   0.59011846  0.98181344  0.19247846
   0.58666705  0.08680896  0.30478301
   0.69658360  0.16895690  0.49616330
   0.70695865  0.29150205  0.62406191
   0.69213216  0.40629867  0.71449277
   0.69434735  0.49617216  0.78724929
   0.67318384  0.59622929  0.89557517
   0.69701478  0.68908837  0.99065514
   0.65055489  0.79170500  0.09928951
   0.69641920  0.87427599  0.23002108
   0.67248480  0.97839827  0.31557538
   0.68595818  0.09563018  0.37553206
   0.79073833  0.18285530  0.62257216
   0.80991951  0.30057968  0.69889560
   0.79797649  0.39592975  0.80871062
   0.80278671  0.50440721  0.94294695
   0.79423430  0.60575107  0.01310156
   0.79693883  0.72072575  0.09116555
   0.78438834  0.79051833  0.20393257
   0.78775368  0.87605243  0.30554592
   0.81171318  0.97915604  0.37684940
   0.81202743  0.09165814  0.50514364
   0.90026300  0.17968720  0.70423349
   0.87361360  0.30762221  0.81505041
   0.88408228  0.38197262  0.89398671
   0.90180916  0.48617901  0.98043910
   0.91107598  0.58924843  0.08989205
   0.92470462  0.69463623  0.20663127
   0.88917229  0.80235751  0.29587493
   0.90171464  0.89877849  0.37324998
   0.89954700  0.01448531  0.46664010
   0.91292003  0.09208712  0.59116281
   0.97423459  0.22067969  0.80337336
   0.98568891  0.32102625  0.89769624
   0.99168982  0.39319008  0.98350698
   0.00577649  0.49675382  0.09958644
   0.97795590  0.59299169  0.20460511
   0.00834630  0.70554452  0.30620719
   0.01852611  0.78022634  0.39357215
   0.98720518  0.92456478  0.46902997
   0.98801426  0.01949680  0.61336500
   0.01777902  0.13159045  0.70732424
   0.07946369  0.24793463  0.92960382
   0.08500507  0.33580642  0.00098567
   0.09973549  0.41557413  0.07803912
   0.11221342  0.50924795  0.21154909
   0.10615762  0.59577740  0.30230359
   0.11096712  0.70787795  0.40523988
   0.09350874  0.82645034  0.50804004
   0.06686321  0.92181325  0.58910034
   0.08441206  0.00427200  0.71088402
   0.09775011  0.12487772  0.81068217
   0.28567637  0.30379142  0.99880809
   0.32520349  0.41057448  0.10717458
   0.30530976  0.51712347  0.22274684
   0.32239395  0.61997318  0.30096338
   0.29776524  0.71534061  0.40374898
   0.29338126  0.80607593  0.51155222
   0.29422718  0.90805420  0.61596432
   0.29811459  0.02304456  0.72079490
   0.28274198  0.12016886  0.82359326
   0.28202613  0.23453354  0.91930169
   0.40570574  0.30619833  0.12185458
   0.43530277  0.41299580  0.19887135
   0.41272034  0.48784190  0.30593979
   0.39054658  0.63070572  0.41289647
   0.41221966  0.69592862  0.52459002
   0.40258026  0.80829667  0.61887584
   0.39306689  0.92252606  0.71236496
   0.37753563  0.02312861  0.82354221
   0.40094105  0.14074845  0.89788794
   0.39540943  0.20123100  0.01994447
   0.52041388  0.28185815  0.18155364
   0.52315914  0.37892071  0.29995730
   0.53064832  0.52415157  0.39170072
   0.51050104  0.58253059  0.49663314
   0.51888284  0.71955634  0.58308594
   0.49669361  0.79107176  0.68796203
   0.48980033  0.90782167  0.80679143
   0.48204598  0.01671470  0.88865444
   0.50255334  0.11180222  0.99505384
   0.51084236  0.15905187  0.09531709
   0.61466843  0.28058243  0.31248192
   0.61473301  0.38670486  0.39868303
   0.59211255  0.48397058  0.50520005
   0.60259068  0.60733293  0.60301539
   0.61442261  0.71062185  0.69814185
   0.55995660  0.82577487  0.78611637
   0.57632667  0.88490904  0.89774155
   0.61151912  0.00204060  0.98746131
   0.60394163  0.07261918  0.10089074
   0.60004807  0.17698198  0.20937319
   0.69878864  0.27511749  0.41726297
   0.70308324  0.38744423  0.50370237
   0.68213451  0.49061132  0.60580862
   0.70235091  0.59887833  0.68571447
   0.68241424  0.72133825  0.79004671
   0.66887548  0.79940781  0.88234317
   0.71115142  0.86853030  0.98258286
   0.71092030  0.99070633  0.11617399
   0.72146142  0.06723299  0.20149239
   0.70504734  0.21086203  0.29814110
   0.81216357  0.26889391  0.51121988
   0.80689259  0.42671118  0.60503120
   0.78786980  0.50907169  0.68851916
   0.79221371  0.61788282  0.79526928
   0.80960718  0.69341675  0.91226750
   0.80992371  0.77273943  0.97953460
   0.78184656  0.87970919  0.09950091
   0.78652425  0.00437723  0.20356800
   0.81173183  0.09331967  0.28735048
   0.78444012  0.21893299  0.40695178
   0.88849142  0.31347694  0.62142805
   0.88967520  0.41608691  0.69255162
   0.88206650  0.52069108  0.80078440
   0.86558504  0.59776816  0.88914296
   0.90940439  0.70669996  0.00858522
   0.90115145  0.79006885  0.11191556
   0.88477057  0.90270939  0.20231667
   0.91021449  0.00082612  0.29846540
   0.88400515  0.12066069  0.35621860
   0.87892454  0.20234438  0.48297053
   0.98419082  0.31225249  0.72391172
   0.96538368  0.42602797  0.77963136
   0.96650060  0.49649624  0.88475024
   0.99520462  0.57761990  0.97694185
   0.99326359  0.67294157  0.09477946
   0.99955081  0.76906290  0.19605899
   0.97819890  0.89783212  0.27033234
   0.98388373  0.00049751  0.39467893
   0.99194989  0.12469410  0.50953321
   0.98870528  0.21379895  0.61602635
   0.08883418  0.32130552  0.80212579
   0.09241806  0.42293187  0.89279049
   0.11362136  0.48007059  0.99722367
   0.12963308  0.60776295  0.07869443
   0.10487085  0.68543697  0.20170180
   0.10176705  0.81476888  0.27680225
   0.09844186  0.91564576  0.36766684
   0.09342042  0.01710899  0.52665942
   0.07309713  0.11539474  0.61626042
   0.10123671  0.23525844  0.71006874
   0.18869686  0.30959265  0.90336224
   0.18383145  0.41135681  0.99196701
   0.18883666  0.48391164  0.11565219
   0.21617457  0.61335047  0.19269702
   0.21819525  0.69924273  0.29379044
   0.22664659  0.80218272  0.38573276
   0.18564852  0.92208701  0.49418800
   0.22773130  0.02029808  0.61710755
   0.18893068  0.09785015  0.69456100
   0.16366171  0.23514619  0.81782325
   0.40289227  0.40348008  0.00078241
   0.40168677  0.51667035  0.09795412
   0.43096900  0.60698205  0.18967229
   0.41111433  0.72015242  0.31652112
   0.39090083  0.81597132  0.41820128
   0.40761125  0.91237874  0.51292267
   0.38246692  0.01451315  0.62343563
   0.40327898  0.09761630  0.71759147
   0.41630859  0.20866937  0.81069623
   0.40175361  0.29048830  0.88912391
   0.50045076  0.40509561  0.12021931
   0.52672771  0.50391767  0.21699251
   0.49303443  0.63210915  0.30133167
   0.48320347  0.74168492  0.41288597
   0.47213558  0.80024214  0.51968260
   0.49543644  0.91047800  0.60054361
   0.51420597  0.02519309  0.72634952
   0.50877554  0.13295680  0.79988178
   0.53386161  0.22576817  0.92524214
   0.50874606  0.33854840  0.01615219
   0.61344224  0.39545476  0.22218365
   0.60229987  0.49652086  0.30415921
   0.58211025  0.63206468  0.41619731
   0.60114267  0.71140299  0.49299155
   0.58817344  0.80413282  0.59906855
   0.59944823  0.89825854  0.67629958
   0.57088790  0.00466780  0.81448821
   0.61191732  0.10527859  0.89584299
   0.60795499  0.20152995  0.99614058
   0.59803153  0.30106347  0.09754202
   0.71132474  0.41905309  0.29777235
   0.69826125  0.52007749  0.41523936
   0.70745913  0.61218391  0.49604983
   0.70410966  0.71993388  0.58148175
   0.68972254  0.81386425  0.69435024
   0.67954693  0.89074440  0.79651181
   0.69072065  0.00285113  0.89345117
   0.71233828  0.10693050  0.01467717
   0.68496979  0.18753278  0.08834690
   0.69255993  0.30320100  0.17477910
   0.78830259  0.38667119  0.39832831
   0.79694878  0.50194957  0.48738324
   0.80020392  0.61034328  0.59301704
   0.80887245  0.69583245  0.68648650
   0.79118539  0.78587279  0.82770718
   0.78937084  0.87875255  0.90868542
   0.78519446  0.99357229  0.99225210
   0.79838172  0.07546899  0.08774297
   0.77807624  0.18453942  0.17542916
   0.77679712  0.33093032  0.28296593
   0.88832288  0.38295436  0.52052635
   0.90125154  0.50861307  0.59385419
   0.89679881  0.62329863  0.68460703
   0.90453514  0.71744869  0.79924206
   0.91775422  0.77583214  0.91300352
   0.88721309  0.88840868  0.00050779
   0.87460948  0.95578158  0.09881334
   0.90926206  0.07528009  0.18224574
   0.88608062  0.23427099  0.27208905
   0.89700977  0.30853461  0.37052985
   0.97102491  0.40615040  0.58568454
   0.02749748  0.52921467  0.70593964
   0.98300528  0.61446539  0.79747497
   0.00021303  0.68843939  0.90887867
   0.01563607  0.78212296  0.01155747
   0.00853510  0.89807688  0.09891998
   0.99630396  0.01973244  0.19989491
   0.99101861  0.12484269  0.27191145
   0.99133028  0.21921485  0.40022144
   0.99822327  0.30612132  0.50208292
   0.09423419  0.39714190  0.68590255
   0.11253938  0.48944773  0.80399424
   0.09366807  0.56717110  0.87941262
   0.09055775  0.67897981  0.99672497
   0.11631142  0.79673666  0.11504137
   0.09915824  0.88687907  0.18288285
   0.07658664  0.00658594  0.26506095
   0.08868585  0.13419176  0.43167274
   0.09324930  0.20419184  0.52105670
   0.09906852  0.31407642  0.60077253
   0.21867533  0.39956652  0.79861386
   0.24551926  0.47824020  0.88742582
   0.22211938  0.57249516  0.98746805
   0.20408927  0.68728463  0.07547015
   0.20234060  0.78872489  0.20740166
   0.18912054  0.90206740  0.30719137
   0.17422821  0.00325946  0.40712532
   0.20401665  0.09798599  0.53090818
   0.21010460  0.20349576  0.60714836
   0.19272861  0.29497556  0.70415953
   0.31526559  0.40417383  0.89072609
   0.30168047  0.48954817  0.00241243
   0.30640062  0.60570217  0.09302922
   0.31992243  0.68881548  0.21910804
   0.32061722  0.83137367  0.29251265
   0.29519045  0.90951714  0.40415728
   0.31219745  0.00182991  0.51186576
   0.30918316  0.10228119  0.62161972
   0.29589680  0.17704444  0.71453600
   0.26986453  0.31417929  0.80570716
