 432 432   0   0
  0.2159961E+02  0.2105280E-08  0.2105280E-08  0.2105280E-08  0.5000000E-15
  1.000000000000000E-004
  CAR 
 Li                                      
      3.15818105     -3.49832283  301      0.23160383      1.00000000
     -3.498  0.0000E+00  0.0000E+00
     -3.476  0.0000E+00  0.0000E+00
     -3.454  0.0000E+00  0.0000E+00
     -3.432  0.0000E+00  0.0000E+00
     -3.410  0.0000E+00  0.0000E+00
     -3.387  0.0000E+00  0.0000E+00
     -3.365  0.5504E-13  0.1221E-14
     -3.343  0.1626E-09  0.3610E-11
     -3.321  0.1581E-06  0.3511E-08
     -3.299  0.5280E-04  0.1175E-05
     -3.276  0.6113E-02  0.1368E-03
     -3.254  0.2481E+00  0.5641E-02
     -3.232  0.3580E+01  0.8507E-01
     -3.210  0.1866E+02  0.4990E+00
     -3.188  0.3558E+02  0.1289E+01
     -3.165  0.2502E+02  0.1844E+01
     -3.143  0.7147E+01  0.2002E+01
     -3.121  0.7992E+01  0.2180E+01
     -3.099  0.3164E+02  0.2882E+01
     -3.077  0.6304E+02  0.4280E+01
     -3.055  0.7374E+02  0.5916E+01
     -3.032  0.5917E+02  0.7229E+01
     -3.010  0.2923E+02  0.7878E+01
     -2.988  0.1667E+02  0.8248E+01
     -2.966  0.3862E+02  0.9104E+01
     -2.944  0.6888E+02  0.1063E+02
     -2.921  0.7739E+02  0.1235E+02
     -2.899  0.5348E+02  0.1354E+02
     -2.877  0.2218E+02  0.1403E+02
     -2.855  0.2604E+02  0.1461E+02
     -2.833  0.6088E+02  0.1596E+02
     -2.810  0.8781E+02  0.1791E+02
     -2.788  0.9281E+02  0.1997E+02
     -2.766  0.6607E+02  0.2143E+02
     -2.744  0.3573E+02  0.2222E+02
     -2.722  0.5429E+02  0.2343E+02
     -2.700  0.9976E+02  0.2564E+02
     -2.677  0.1272E+03  0.2847E+02
     -2.655  0.1207E+03  0.3114E+02
     -2.633  0.7901E+02  0.3290E+02
     -2.611  0.3822E+02  0.3374E+02
     -2.589  0.2909E+02  0.3439E+02
     -2.566  0.6225E+02  0.3577E+02
     -2.544  0.9392E+02  0.3786E+02
     -2.522  0.6966E+02  0.3940E+02
     -2.500  0.2818E+02  0.4003E+02
     -2.478  0.2788E+02  0.4064E+02
     -2.455  0.6802E+02  0.4215E+02
     -2.433  0.1178E+03  0.4477E+02
     -2.411  0.1366E+03  0.4780E+02
     -2.389  0.1101E+03  0.5024E+02
     -2.367  0.7629E+02  0.5193E+02
     -2.345  0.8036E+02  0.5372E+02
     -2.322  0.1200E+03  0.5638E+02
     -2.300  0.1550E+03  0.5982E+02
     -2.278  0.1609E+03  0.6339E+02
     -2.256  0.1383E+03  0.6646E+02
     -2.234  0.9743E+02  0.6862E+02
     -2.211  0.6219E+02  0.7000E+02
     -2.189  0.5842E+02  0.7129E+02
     -2.167  0.7027E+02  0.7285E+02
     -2.145  0.7252E+02  0.7446E+02
     -2.123  0.5205E+02  0.7562E+02
     -2.100  0.3490E+02  0.7639E+02
     -2.078  0.6632E+02  0.7786E+02
     -2.056  0.1229E+03  0.8059E+02
     -2.034  0.1537E+03  0.8400E+02
     -2.012  0.1427E+03  0.8717E+02
     -1.990  0.9711E+02  0.8932E+02
     -1.967  0.6875E+02  0.9085E+02
     -1.945  0.1021E+03  0.9311E+02
     -1.923  0.1530E+03  0.9651E+02
     -1.901  0.1755E+03  0.1004E+03
     -1.879  0.1629E+03  0.1040E+03
     -1.856  0.1174E+03  0.1066E+03
     -1.834  0.6660E+02  0.1081E+03
     -1.812  0.7104E+02  0.1097E+03
     -1.790  0.1169E+03  0.1123E+03
     -1.768  0.1374E+03  0.1153E+03
     -1.745  0.1191E+03  0.1180E+03
     -1.723  0.8753E+02  0.1199E+03
     -1.701  0.9118E+02  0.1219E+03
     -1.679  0.1356E+03  0.1249E+03
     -1.657  0.1695E+03  0.1287E+03
     -1.635  0.1719E+03  0.1325E+03
     -1.612  0.1447E+03  0.1357E+03
     -1.590  0.1045E+03  0.1380E+03
     -1.568  0.1037E+03  0.1403E+03
     -1.546  0.1337E+03  0.1433E+03
     -1.524  0.1601E+03  0.1469E+03
     -1.501  0.1719E+03  0.1507E+03
     -1.479  0.1340E+03  0.1536E+03
     -1.457  0.8337E+02  0.1555E+03
     -1.435  0.8228E+02  0.1573E+03
     -1.413  0.1160E+03  0.1599E+03
     -1.390  0.1334E+03  0.1629E+03
     -1.368  0.1187E+03  0.1655E+03
     -1.346  0.8426E+02  0.1674E+03
     -1.324  0.6729E+02  0.1688E+03
     -1.302  0.8700E+02  0.1708E+03
     -1.279  0.1158E+03  0.1733E+03
     -1.257  0.1306E+03  0.1762E+03
     -1.235  0.1235E+03  0.1790E+03
     -1.213  0.1187E+03  0.1816E+03
     -1.191  0.1537E+03  0.1850E+03
     -1.169  0.2049E+03  0.1896E+03
     -1.146  0.2405E+03  0.1949E+03
     -1.124  0.2487E+03  0.2004E+03
     -1.102  0.2139E+03  0.2052E+03
     -1.080  0.1625E+03  0.2088E+03
     -1.058  0.1451E+03  0.2120E+03
     -1.035  0.1667E+03  0.2157E+03
     -1.013  0.1801E+03  0.2197E+03
     -0.991  0.1656E+03  0.2234E+03
     -0.969  0.1291E+03  0.2262E+03
     -0.947  0.8213E+02  0.2281E+03
     -0.924  0.8191E+02  0.2299E+03
     -0.902  0.1262E+03  0.2327E+03
     -0.880  0.1535E+03  0.2361E+03
     -0.858  0.1524E+03  0.2395E+03
     -0.836  0.1380E+03  0.2425E+03
     -0.814  0.1466E+03  0.2458E+03
     -0.791  0.1770E+03  0.2497E+03
     -0.769  0.1959E+03  0.2541E+03
     -0.747  0.1996E+03  0.2585E+03
     -0.725  0.1818E+03  0.2625E+03
     -0.703  0.1452E+03  0.2657E+03
     -0.680  0.1194E+03  0.2684E+03
     -0.658  0.9413E+02  0.2705E+03
     -0.636  0.6295E+02  0.2719E+03
     -0.614  0.7081E+02  0.2734E+03
     -0.592  0.1246E+03  0.2762E+03
     -0.569  0.1726E+03  0.2800E+03
     -0.547  0.1981E+03  0.2844E+03
     -0.525  0.2114E+03  0.2891E+03
     -0.503  0.2153E+03  0.2939E+03
     -0.481  0.2071E+03  0.2985E+03
     -0.459  0.2014E+03  0.3030E+03
     -0.436  0.1981E+03  0.3074E+03
     -0.414  0.2015E+03  0.3118E+03
     -0.392  0.2105E+03  0.3165E+03
     -0.370  0.2121E+03  0.3212E+03
     -0.348  0.1999E+03  0.3256E+03
     -0.325  0.1767E+03  0.3296E+03
     -0.303  0.1555E+03  0.3330E+03
     -0.281  0.1490E+03  0.3363E+03
     -0.259  0.1498E+03  0.3396E+03
     -0.237  0.1507E+03  0.3430E+03
     -0.214  0.1568E+03  0.3465E+03
     -0.192  0.1791E+03  0.3504E+03
     -0.170  0.2136E+03  0.3552E+03
     -0.148  0.2382E+03  0.3605E+03
     -0.126  0.2380E+03  0.3657E+03
     -0.104  0.2272E+03  0.3708E+03
     -0.081  0.2153E+03  0.3756E+03
     -0.059  0.1845E+03  0.3797E+03
     -0.037  0.1704E+03  0.3834E+03
     -0.015  0.1882E+03  0.3876E+03
      0.007  0.1962E+03  0.3920E+03
      0.030  0.1845E+03  0.3961E+03
      0.052  0.1675E+03  0.3998E+03
      0.074  0.1605E+03  0.4033E+03
      0.096  0.1630E+03  0.4070E+03
      0.118  0.1655E+03  0.4106E+03
      0.141  0.1756E+03  0.4145E+03
      0.163  0.1910E+03  0.4188E+03
      0.185  0.1998E+03  0.4232E+03
      0.207  0.1924E+03  0.4275E+03
      0.229  0.1851E+03  0.4316E+03
      0.252  0.1925E+03  0.4358E+03
      0.274  0.2089E+03  0.4405E+03
      0.296  0.2176E+03  0.4453E+03
      0.318  0.2082E+03  0.4499E+03
      0.340  0.1957E+03  0.4543E+03
      0.362  0.1966E+03  0.4586E+03
      0.385  0.1954E+03  0.4630E+03
      0.407  0.1914E+03  0.4672E+03
      0.429  0.2003E+03  0.4717E+03
      0.451  0.2092E+03  0.4763E+03
      0.473  0.2157E+03  0.4811E+03
      0.496  0.2217E+03  0.4860E+03
      0.518  0.2205E+03  0.4909E+03
      0.540  0.2171E+03  0.4957E+03
      0.562  0.2200E+03  0.5006E+03
      0.584  0.2314E+03  0.5057E+03
      0.607  0.2380E+03  0.5110E+03
      0.629  0.2408E+03  0.5164E+03
      0.651  0.2350E+03  0.5216E+03
      0.673  0.2340E+03  0.5268E+03
      0.695  0.2431E+03  0.5322E+03
      0.717  0.2389E+03  0.5375E+03
      0.740  0.2321E+03  0.5426E+03
      0.762  0.2374E+03  0.5479E+03
      0.784  0.2386E+03  0.5532E+03
      0.806  0.2314E+03  0.5583E+03
      0.828  0.2221E+03  0.5632E+03
      0.851  0.2107E+03  0.5679E+03
      0.873  0.2069E+03  0.5725E+03
      0.895  0.2092E+03  0.5771E+03
      0.917  0.2135E+03  0.5819E+03
      0.939  0.2126E+03  0.5866E+03
      0.962  0.2078E+03  0.5912E+03
      0.984  0.2073E+03  0.5958E+03
      1.006  0.2068E+03  0.6004E+03
      1.028  0.2003E+03  0.6048E+03
      1.050  0.1949E+03  0.6092E+03
      1.072  0.1941E+03  0.6135E+03
      1.095  0.1906E+03  0.6177E+03
      1.117  0.1892E+03  0.6219E+03
      1.139  0.1880E+03  0.6261E+03
      1.161  0.1812E+03  0.6301E+03
      1.183  0.1756E+03  0.6340E+03
      1.206  0.1840E+03  0.6381E+03
      1.228  0.1915E+03  0.6423E+03
      1.250  0.1814E+03  0.6463E+03
      1.272  0.1691E+03  0.6501E+03
      1.294  0.1679E+03  0.6538E+03
      1.317  0.1631E+03  0.6574E+03
      1.339  0.1588E+03  0.6610E+03
      1.361  0.1602E+03  0.6645E+03
      1.383  0.1555E+03  0.6680E+03
      1.405  0.1552E+03  0.6714E+03
      1.427  0.1700E+03  0.6752E+03
      1.450  0.1865E+03  0.6793E+03
      1.472  0.1904E+03  0.6835E+03
      1.494  0.1867E+03  0.6877E+03
      1.516  0.1825E+03  0.6917E+03
      1.538  0.1848E+03  0.6958E+03
      1.561  0.1934E+03  0.7001E+03
      1.583  0.1967E+03  0.7045E+03
      1.605  0.1857E+03  0.7086E+03
      1.627  0.1740E+03  0.7125E+03
      1.649  0.1714E+03  0.7163E+03
      1.672  0.1604E+03  0.7198E+03
      1.694  0.1607E+03  0.7234E+03
      1.716  0.1720E+03  0.7272E+03
      1.738  0.1708E+03  0.7310E+03
      1.760  0.1702E+03  0.7348E+03
      1.783  0.1754E+03  0.7387E+03
      1.805  0.1768E+03  0.7426E+03
      1.827  0.1701E+03  0.7464E+03
      1.849  0.1565E+03  0.7498E+03
      1.871  0.1501E+03  0.7532E+03
      1.893  0.1536E+03  0.7566E+03
      1.916  0.1552E+03  0.7600E+03
      1.938  0.1536E+03  0.7634E+03
      1.960  0.1387E+03  0.7665E+03
      1.982  0.1259E+03  0.7693E+03
      2.004  0.1285E+03  0.7722E+03
      2.027  0.1321E+03  0.7751E+03
      2.049  0.1278E+03  0.7779E+03
      2.071  0.1207E+03  0.7806E+03
      2.093  0.1160E+03  0.7832E+03
      2.115  0.1097E+03  0.7856E+03
      2.138  0.9688E+02  0.7878E+03
      2.160  0.9278E+02  0.7898E+03
      2.182  0.9674E+02  0.7920E+03
      2.204  0.8539E+02  0.7939E+03
      2.226  0.5532E+02  0.7951E+03
      2.248  0.3633E+02  0.7959E+03
      2.271  0.4381E+02  0.7969E+03
      2.293  0.6480E+02  0.7983E+03
      2.315  0.8305E+02  0.8001E+03
      2.337  0.8635E+02  0.8021E+03
      2.359  0.7362E+02  0.8037E+03
      2.382  0.6847E+02  0.8052E+03
      2.404  0.7988E+02  0.8070E+03
      2.426  0.9388E+02  0.8091E+03
      2.448  0.1123E+03  0.8116E+03
      2.470  0.1258E+03  0.8143E+03
      2.493  0.1269E+03  0.8172E+03
      2.515  0.1268E+03  0.8200E+03
      2.537  0.1310E+03  0.8229E+03
      2.559  0.1388E+03  0.8260E+03
      2.581  0.1480E+03  0.8293E+03
      2.603  0.1519E+03  0.8326E+03
      2.626  0.1394E+03  0.8357E+03
      2.648  0.1275E+03  0.8385E+03
      2.670  0.1273E+03  0.8414E+03
      2.692  0.1325E+03  0.8443E+03
      2.714  0.1373E+03  0.8474E+03
      2.737  0.1385E+03  0.8504E+03
      2.759  0.1407E+03  0.8535E+03
      2.781  0.1379E+03  0.8566E+03
      2.803  0.1243E+03  0.8594E+03
      2.825  0.1168E+03  0.8620E+03
      2.848  0.1009E+03  0.8642E+03
      2.870  0.5932E+02  0.8655E+03
      2.892  0.1914E+02  0.8659E+03
      2.914  0.2819E+01  0.8660E+03
      2.936  0.1671E+00  0.8660E+03
      2.958  0.3719E-02  0.8660E+03
      2.981  0.2992E-04  0.8660E+03
      3.003  0.8507E-07  0.8660E+03
      3.025  0.8424E-10  0.8660E+03
      3.047  0.2502E-13  0.8660E+03
      3.069  0.0000E+00  0.8660E+03
      3.092  0.0000E+00  0.8660E+03
      3.114  0.0000E+00  0.8660E+03
      3.136  0.0000E+00  0.8660E+03
      3.158  0.0000E+00  0.8660E+03
