       N       E                     dE             d eps       ncg     rms          rms(c)
DAV:   1    -0.236418374489E+03   -0.23642E+03   -0.10295E+05  3464   0.649E+02
DAV:   2    -0.742501707476E+03   -0.50608E+03   -0.46171E+03  3996   0.656E+01
DAV:   3    -0.780054582042E+03   -0.37553E+02   -0.34431E+02  4472   0.141E+01
DAV:   4    -0.781369214293E+03   -0.13146E+01   -0.12959E+01  4072   0.289E+00
DAV:   5    -0.781401292777E+03   -0.32078E-01   -0.32026E-01  4224   0.473E-01    0.104E+01
DAV:   6    -0.772231776779E+03    0.91695E+01   -0.14182E+01  4104   0.510E+00    0.701E+00
DAV:   7    -0.768066012554E+03    0.41658E+01   -0.10561E+01  4120   0.455E+00    0.501E+00
DAV:   8    -0.765090877502E+03    0.29751E+01   -0.59523E+00  4072   0.282E+00    0.262E+00
DAV:   9    -0.764579729795E+03    0.51115E+00   -0.33808E+00  3848   0.148E+00    0.123E+00
DAV:  10    -0.764654897563E+03   -0.75168E-01   -0.68656E-01  4080   0.833E-01    0.103E+00
DAV:  11    -0.764544846162E+03    0.11005E+00   -0.24923E-01  4024   0.566E-01    0.546E-01
DAV:  12    -0.764536663005E+03    0.81832E-02   -0.64505E-02  3848   0.230E-01    0.288E-01
DAV:  13    -0.764536532638E+03    0.13037E-03   -0.18979E-02  4056   0.157E-01    0.195E-01
DAV:  14    -0.764533733636E+03    0.27990E-02   -0.66635E-03  4008   0.105E-01    0.113E-01
DAV:  15    -0.764532987613E+03    0.74602E-03   -0.22735E-03  3912   0.508E-02    0.493E-02
DAV:  16    -0.764533033174E+03   -0.45561E-04   -0.71909E-04  4040   0.297E-02    0.337E-02
DAV:  17    -0.764532905262E+03    0.12791E-03   -0.30360E-04  4000   0.207E-02    0.169E-02
DAV:  18    -0.764532887498E+03    0.17764E-04   -0.78629E-05  3824   0.885E-03    0.864E-03
DAV:  19    -0.764532881320E+03    0.61782E-05   -0.22685E-05  2520   0.480E-03
   1 F= -.76453288E+03 E0= -.76449077E+03  d E =-.842264E-01
