Li                                      
           1
    21.052800    0.000000    0.000000
     0.000000   21.052800    0.000000
     0.000000    0.000000   21.052800
   Li
   432
Direct configuration=     1
   0.02192968  0.99067008  0.99485177
   0.95176851  0.07588919  0.06204201
   0.84998972  0.15703734  0.13221306
   0.75055607  0.26079879  0.25007148
   0.68851532  0.36805501  0.34169510
   0.58846087  0.42849543  0.42344842
   0.50793606  0.51829310  0.52335159
   0.42701250  0.61705945  0.60636203
   0.34942410  0.67837597  0.66590881
   0.25130768  0.75650010  0.74669583
   0.18760528  0.81861850  0.85471537
   0.08432621  0.90076815  0.89499310
   0.07432301  0.88761682  0.09683552
   0.00314161  0.99342863  0.17899672
   0.89917093  0.08461049  0.20694208
   0.84670747  0.16480921  0.29070447
   0.77047003  0.26023684  0.40554557
   0.68935284  0.33950769  0.50731442
   0.61209625  0.41043165  0.61205696
   0.49852635  0.48834315  0.68901634
   0.43049370  0.57648804  0.76743226
   0.34562832  0.66274077  0.84479210
   0.27088893  0.74812487  0.91890067
   0.20256736  0.83393509  0.98838855
   0.16886958  0.84735848  0.16669915
   0.09529290  0.91600040  0.24775300
   0.00156394  0.99561209  0.31717896
   0.88523153  0.06727941  0.41408753
   0.83687749  0.15565843  0.50514706
   0.74348393  0.24670880  0.59096507
   0.68728942  0.31937543  0.68821953
   0.63298761  0.39600420  0.73991342
   0.49473443  0.46329833  0.84182353
   0.40645918  0.56171512  0.91415615
   0.31911319  0.64923764  0.98743054
   0.23610873  0.74192457  0.09731700
   0.23066596  0.74014251  0.25009980
   0.15937861  0.81927899  0.34915701
   0.07521450  0.90320112  0.41712295
   0.01280597  0.01247294  0.48814859
   0.91707219  0.06846270  0.58703871
   0.84396381  0.14214140  0.66279341
   0.74879583  0.23212520  0.73364402
   0.67504364  0.31235950  0.83554130
   0.59900100  0.40003541  0.91042198
   0.47262739  0.46827490  0.00500984
   0.40657791  0.57350232  0.08945882
   0.34677759  0.68389882  0.17853749
   0.34880226  0.67959817  0.31474428
   0.25248343  0.72569461  0.44348786
   0.14322801  0.82575213  0.49232574
   0.07445734  0.91356372  0.53807147
   0.00819352  0.98665653  0.63684496
   0.90548459  0.06072614  0.72355043
   0.85398599  0.14657827  0.85711681
   0.74073754  0.21978312  0.88404528
   0.67756505  0.30911488  0.97910620
   0.56385516  0.40331601  0.06128245
   0.48118600  0.47776171  0.14085092
   0.40591263  0.58218578  0.24374179
   0.44274817  0.57710932  0.40433647
   0.36241670  0.63684638  0.50839697
   0.28241751  0.73434156  0.57346194
   0.17290219  0.82287007  0.65618835
   0.10506010  0.90843859  0.74415644
   0.99834657  0.99290458  0.79445642
   0.93266178  0.07214114  0.91410241
   0.80945612  0.16176794  0.00437767
   0.74706569  0.25741367  0.06740793
   0.65941604  0.33447343  0.15525229
   0.58958826  0.42585080  0.24131164
   0.51617560  0.52082833  0.32840589
   0.07566262  0.09676643  0.91047716
   0.00764209  0.16056039  0.96243066
   0.92881043  0.25706806  0.05089202
   0.81542990  0.31340243  0.15045891
   0.75884243  0.40510753  0.26651546
   0.66245953  0.50020454  0.34334973
   0.59084502  0.59622165  0.41888126
   0.49883412  0.70394629  0.51421118
   0.44611380  0.76792955  0.58195732
   0.35391870  0.84430884  0.68256340
   0.25281953  0.91414187  0.75022809
   0.15925873  0.99586061  0.82315158
   0.17702268  0.98420379  0.98212862
   0.09504518  0.06527189  0.06654573
   0.02995002  0.17718348  0.11574283
   0.92325606  0.24886059  0.24315232
   0.86194294  0.32079222  0.33819737
   0.77432019  0.41798853  0.44088416
   0.68285537  0.50306596  0.51648771
   0.58810106  0.58376336  0.58193659
   0.51612893  0.66165058  0.67254435
   0.41831951  0.75155736  0.75348237
   0.35269897  0.84494838  0.84413757
   0.25412001  0.93425908  0.92231870
   0.28963558  0.92641404  0.07374022
   0.18866484  0.98865197  0.15493639
   0.11229552  0.10136943  0.23504624
   0.98936485  0.14681718  0.33037552
   0.94504506  0.25131429  0.40249060
   0.84456672  0.30659869  0.52523057
   0.77753391  0.42590662  0.62489128
   0.68258518  0.49043815  0.69370507
   0.57534743  0.57204608  0.78071226
   0.49792049  0.68366244  0.84339238
   0.40990029  0.75529400  0.92220535
   0.35718189  0.83124757  0.99219690
   0.28940060  0.84384066  0.16776571
   0.24398450  0.91873016  0.25907984
   0.16081105  0.00748486  0.34281054
   0.08529516  0.09060226  0.42817822
   0.98783208  0.17079187  0.51550615
   0.93707829  0.25186233  0.59468038
   0.82943221  0.32117024  0.67917583
   0.76223083  0.41245230  0.75135674
   0.65848176  0.50184529  0.86103849
   0.53772736  0.54876492  0.90922230
   0.48529182  0.67197983  0.00668302
   0.42645409  0.75412984  0.09979947
   0.41071716  0.75503965  0.23484034
   0.32050778  0.81233560  0.32584107
   0.25287593  0.90823520  0.40154094
   0.19555915  0.99725708  0.47784467
   0.09901894  0.08489087  0.56498729
   0.01689363  0.13441486  0.65577475
   0.92877121  0.23728932  0.74291271
   0.84052676  0.30686923  0.80383225
   0.75977373  0.40181688  0.88656878
   0.65637263  0.45682823  0.97429360
   0.57458257  0.55473652  0.07919466
   0.50761391  0.66864040  0.15929698
   0.52197182  0.67888038  0.31791872
   0.41207895  0.77004008  0.40621383
   0.35043536  0.83070078  0.48399545
   0.27120439  0.89863701  0.58320520
   0.17560885  0.96904899  0.63749631
   0.08321274  0.07702153  0.72539134
   0.97688109  0.13193872  0.81063711
   0.92589703  0.24572958  0.89049353
   0.82823263  0.32240214  0.98225159
   0.73802336  0.39949506  0.06232516
   0.68285712  0.47546348  0.15059130
   0.57652748  0.56684629  0.22142709
   0.14951816  0.14819432  0.79675425
   0.07907987  0.23076270  0.90226807
   0.00398956  0.34226178  0.97594524
   0.91531804  0.40405931  0.09947884
   0.81768742  0.51972278  0.13589097
   0.75503271  0.55707075  0.26318307
   0.66917406  0.63462498  0.31250267
   0.60514440  0.74192715  0.39760578
   0.52713501  0.82786201  0.49674374
   0.43893033  0.92120067  0.57138862
   0.33095191  0.99077314  0.65133410
   0.26435108  0.08469896  0.71513183
   0.24815040  0.06252211  0.90418696
   0.18744690  0.17841203  0.97193881
   0.08108044  0.26120529  0.06302475
   0.98818575  0.32318092  0.18100694
   0.89112146  0.42133256  0.22961250
   0.85392887  0.49262259  0.35672906
   0.74597061  0.57413824  0.44119326
   0.67989994  0.65503650  0.52042486
   0.59886890  0.76359689  0.60271507
   0.49519209  0.84434617  0.67121468
   0.43657943  0.92180144  0.76713740
   0.31013507  0.99486621  0.86017070
   0.34046170  0.98342825  0.99531498
   0.27795544  0.10285744  0.06481670
   0.18641873  0.15946655  0.15261722
   0.07975005  0.23476831  0.24908398
   0.00158707  0.36037463  0.33384485
   0.92487399  0.41155222  0.43525906
   0.82398156  0.50529910  0.51615850
   0.75641544  0.57219890  0.61919175
   0.67110701  0.66477624  0.68289842
   0.57549848  0.76383318  0.76804260
   0.49161775  0.83024616  0.86739636
   0.42249196  0.91319404  0.94752839
   0.39992146  0.93329072  0.10188373
   0.33381541  0.02974296  0.16369491
   0.23778570  0.11199934  0.26650342
   0.15754376  0.18829365  0.33493160
   0.05348100  0.24635188  0.43230858
   0.96267058  0.33131588  0.52212831
   0.88829221  0.43914351  0.59070280
   0.86341919  0.51023049  0.69704491
   0.76027807  0.59676306  0.79994520
   0.64201362  0.67483732  0.86744251
   0.55680911  0.74106568  0.93833937
   0.46990440  0.82458374  0.03855715
   0.48935426  0.84805981  0.17254695
   0.41019403  0.92172594  0.25224855
   0.33475637  0.99701016  0.32631941
   0.23661094  0.06827067  0.41553166
   0.18616672  0.19162614  0.50184832
   0.08958705  0.24585526  0.57094073
   0.99369019  0.33705885  0.65107806
   0.91919395  0.40829449  0.72867187
   0.84507927  0.49068446  0.84092414
   0.76034056  0.58381215  0.93465466
   0.61145300  0.66150038  0.99823284
   0.59134858  0.77006543  0.08435896
   0.59650276  0.73733850  0.24203354
   0.50328208  0.83738266  0.30222223
   0.41616898  0.88967923  0.39527672
   0.34488127  0.00183517  0.48202331
   0.25307337  0.09705242  0.58860194
   0.17487770  0.17827423  0.64300942
   0.06178427  0.22808257  0.72796450
   0.02961465  0.31109143  0.82318240
   0.92008859  0.39691823  0.89632322
   0.83725568  0.45243558  0.96340364
   0.73889719  0.57737861  0.04543855
   0.67173684  0.64104905  0.13770538
   0.24231603  0.24704863  0.73316376
   0.14514623  0.34622295  0.80642312
   0.10587835  0.42210446  0.90227962
   0.00326154  0.49345514  0.98391248
   0.91145183  0.56262332  0.04830553
   0.80232257  0.63948156  0.15670219
   0.74937089  0.72019432  0.24375977
   0.67463150  0.81540317  0.33807841
   0.57241299  0.91869324  0.40780874
   0.49761407  0.99578659  0.50116128
   0.42695620  0.07702420  0.56159403
   0.35515772  0.18728604  0.66317480
   0.33371609  0.16190586  0.81354885
   0.24073945  0.24825851  0.85178296
   0.16774042  0.31827380  0.97369464
   0.11701387  0.38981499  0.07458255
   0.99555836  0.48561084  0.13746715
   0.91212675  0.59792811  0.27857071
   0.82299655  0.65887202  0.34584588
   0.72918692  0.73699123  0.39030101
   0.65521344  0.79776919  0.50548624
   0.61385125  0.89539569  0.58331123
   0.50666667  0.99280801  0.66362332
   0.42926086  0.07564146  0.73734657
   0.42276089  0.10547394  0.89563675
   0.33130031  0.21281949  0.95792824
   0.24466498  0.27009365  0.07826769
   0.16591589  0.31410439  0.17848349
   0.08368799  0.41867469  0.22497220
   0.99532017  0.49374150  0.33029131
   0.91178945  0.59817546  0.43501125
   0.81109158  0.68088062  0.53107754
   0.77764337  0.73897129  0.58522321
   0.69400110  0.80068226  0.68526576
   0.58994158  0.91311040  0.75829836
   0.50728117  0.00491556  0.86314652
   0.49249434  0.01584208  0.03751607
   0.43545513  0.10299198  0.08577119
   0.34049451  0.20417528  0.16089181
   0.25878367  0.25019688  0.29567447
   0.11700029  0.33594163  0.34177741
   0.05459044  0.41747194  0.46473786
   0.98456194  0.51583539  0.51223531
   0.90686080  0.62550556  0.59575674
   0.84769178  0.67844294  0.68849857
   0.75719220  0.73568887  0.76697666
   0.65361981  0.83976759  0.86799187
   0.57609962  0.90379946  0.93262366
   0.58222856  0.92183079  0.08115061
   0.47817825  0.99444417  0.19441182
   0.43079911  0.09713686  0.21650393
   0.35450416  0.15643245  0.35233197
   0.25305002  0.26000143  0.43493526
   0.13532565  0.33028712  0.52384088
   0.03866323  0.45860729  0.59135944
   0.98523098  0.52557829  0.65610305
   0.91834292  0.58157048  0.75578174
   0.84108124  0.68549287  0.86394816
   0.75726224  0.73694281  0.93660728
   0.66435556  0.81798077  0.01704961
   0.66588507  0.84226775  0.18564982
   0.58792107  0.92379426  0.28839227
   0.49218418  0.00885892  0.32750018
   0.41904757  0.07396833  0.43263542
   0.34660129  0.16994546  0.49941863
   0.24936279  0.27529584  0.57339762
   0.12350836  0.36424244  0.65431134
   0.06397793  0.42368381  0.73341211
   0.99654351  0.50547405  0.84661434
   0.91714078  0.57047162  0.93274634
   0.83140897  0.67015952  0.02206157
   0.72509812  0.73300734  0.06983983
   0.32906142  0.34494787  0.65521047
   0.24243194  0.43322618  0.73971196
   0.16802838  0.51550307  0.83247147
   0.09293270  0.57040325  0.91693773
   0.99933235  0.65409453  0.00268542
   0.90915089  0.73389050  0.08386916
   0.80265149  0.82470387  0.17106343
   0.75710049  0.95563011  0.26864513
   0.66162862  0.01890572  0.35061878
   0.56724377  0.09113021  0.40829730
   0.49774683  0.17455830  0.51642641
   0.41508941  0.25993053  0.57856332
   0.40869100  0.24704036  0.74720890
   0.29424921  0.33715685  0.80260032
   0.20708493  0.42607789  0.92903105
   0.18749085  0.52012195  0.00959802
   0.07492895  0.58168571  0.06173686
   0.98569595  0.66155219  0.15797916
   0.89961402  0.74829858  0.22602556
   0.85298143  0.84585803  0.32192549
   0.74624982  0.87830910  0.41084012
   0.65720185  0.00460168  0.48461730
   0.57129313  0.09169962  0.57347836
   0.49945345  0.16668511  0.65676732
   0.48972947  0.17425523  0.80815931
   0.39461220  0.26652131  0.90453788
   0.30279644  0.32049442  0.99534042
   0.21535775  0.41204761  0.09973067
   0.16175932  0.52916262  0.16406495
   0.07798814  0.58943771  0.25481151
   0.00443279  0.65124006  0.33015789
   0.90189862  0.72821524  0.39639725
   0.83303374  0.80765182  0.48661891
   0.74409204  0.89824901  0.55768937
   0.66308270  0.98324054  0.65004460
   0.59713644  0.06854112  0.73468744
   0.55766889  0.08612084  0.90981113
   0.49678683  0.18573276  0.01511536
   0.40708554  0.26449422  0.11015184
   0.31679711  0.34793040  0.16991519
   0.21481582  0.42426526  0.25902991
   0.14568866  0.52283574  0.35450036
   0.08053998  0.58627110  0.42525331
   0.99770234  0.68822125  0.50374684
   0.93747421  0.76031911  0.61491804
   0.83178663  0.82421107  0.65245325
   0.73745162  0.92234908  0.75939767
   0.64741413  0.98548031  0.85330849
   0.63825536  0.02527091  0.04068763
   0.56498517  0.10188777  0.11850403
   0.51485611  0.21212039  0.15253822
   0.40406712  0.26076164  0.25046316
   0.32808072  0.34349750  0.35273984
   0.23340575  0.46453685  0.42816363
   0.18122069  0.52422266  0.50482749
   0.05937771  0.61723919  0.58807350
   0.00042886  0.68531190  0.68128776
   0.92055859  0.77276507  0.76056734
   0.83398973  0.83982252  0.83920494
   0.74685801  0.93833323  0.93126214
   0.72626263  0.93630576  0.07316332
   0.64389332  0.99640472  0.17068600
   0.56768818  0.11299640  0.27146852
   0.51515469  0.18539175  0.31891391
   0.44228176  0.26398424  0.39985928
   0.33367652  0.38964255  0.49885436
   0.21899351  0.43954387  0.58327502
   0.14060019  0.51752863  0.67944166
   0.04907333  0.58967571  0.76775223
   0.99865809  0.66947151  0.86521140
   0.92400486  0.79168223  0.96117648
   0.82511555  0.84885707  0.02973816
   0.41299978  0.42469478  0.57773441
   0.32554897  0.51172905  0.64698167
   0.26101072  0.62138006  0.75467731
   0.18565584  0.66330691  0.82393351
   0.07931174  0.75591147  0.94958434
   0.00221619  0.82724110  0.99920420
   0.91355850  0.90270101  0.10649642
   0.84595954  0.99833322  0.15071050
   0.74637248  0.10285769  0.23292600
   0.67615669  0.15100259  0.34821263
   0.58453888  0.26552519  0.41778708
   0.52323237  0.34062263  0.50790582
   0.51148529  0.32445015  0.67040419
   0.43216866  0.38640129  0.74332099
   0.31319862  0.47425794  0.84436784
   0.26765276  0.58365183  0.90680300
   0.16393940  0.65262131  0.98344349
   0.09785134  0.74030723  0.09964441
   0.98598680  0.87035406  0.15611981
   0.91915145  0.91325448  0.23481852
   0.84512974  0.01178785  0.29515165
   0.78967122  0.09077426  0.40641439
   0.69026941  0.14941763  0.49031184
   0.59792363  0.24824694  0.60262583
   0.58040110  0.26915058  0.74587574
   0.49770183  0.32564972  0.85319988
   0.39897422  0.38993693  0.92275181
   0.31463132  0.47899578  0.00484496
   0.29885920  0.57541534  0.08398712
   0.17870798  0.63373909  0.15607580
   0.07921783  0.74813896  0.25948352
   0.99677367  0.83637807  0.34303933
   0.90712215  0.92545290  0.40564105
   0.82551550  0.00159629  0.49145317
   0.72110985  0.06383419  0.59447519
   0.65904742  0.18956870  0.66424607
   0.65844024  0.17789776  0.83894997
   0.58529700  0.24613101  0.91140228
   0.51168773  0.29877924  0.01228641
   0.39001454  0.37646052  0.07837782
   0.32811565  0.48725018  0.18632807
   0.25816318  0.60025507  0.26229702
   0.16466184  0.66833974  0.34214158
   0.05902461  0.73640135  0.41507330
   0.97391839  0.82209887  0.49453494
   0.91076465  0.91389265  0.54175752
   0.84147170  0.97732178  0.65873411
   0.74391556  0.05438919  0.76459079
   0.74629144  0.07930588  0.91547803
   0.66773209  0.14655784  0.99500100
   0.59514640  0.26386562  0.08952468
   0.49993423  0.32596603  0.18934955
   0.42727841  0.42851273  0.27919149
   0.33131393  0.49840062  0.33057727
   0.24885384  0.61968678  0.42961272
   0.16511084  0.65777209  0.51097397
   0.09168187  0.74859047  0.61060563
   0.96824305  0.85030240  0.65635799
   0.90850474  0.93846632  0.75092508
   0.83027202  0.02551657  0.83256260
   0.83425872  0.03453946  0.01937530
   0.75498411  0.09063512  0.09898585
   0.65543404  0.15513736  0.15485477
   0.60369045  0.25549495  0.26908801
   0.52165304  0.34837022  0.32209104
   0.44409799  0.44194049  0.43173321
   0.32057143  0.53974187  0.52164482
   0.23855852  0.60687059  0.59082982
   0.16622287  0.68130269  0.67991095
   0.06304434  0.77422345  0.76447494
   0.99680937  0.87838158  0.83083560
   0.89750999  0.95461996  0.96340638
