 504 504   0   0
  0.1982611E+02  0.2127286E-08  0.2105467E-08  0.2230970E-08  0.5000000E-15
  1.000000000000000E-004
  CAR 
 Li                                      
      3.55157733     -3.41481397  301      0.45522858      1.00000000
     -3.415  0.0000E+00  0.0000E+00
     -3.392  0.0000E+00  0.0000E+00
     -3.368  0.0000E+00  0.0000E+00
     -3.345  0.0000E+00  0.0000E+00
     -3.322  0.0000E+00  0.0000E+00
     -3.299  0.0000E+00  0.0000E+00
     -3.275  0.3586E-14  0.8327E-16
     -3.252  0.1514E-10  0.3517E-12
     -3.229  0.2788E-07  0.6478E-09
     -3.206  0.1591E-04  0.3702E-06
     -3.183  0.2841E-02  0.6634E-04
     -3.159  0.1607E+00  0.3799E-02
     -3.136  0.2933E+01  0.7190E-01
     -3.113  0.1761E+02  0.4807E+00
     -3.090  0.3541E+02  0.1303E+01
     -3.066  0.2411E+02  0.1863E+01
     -3.043  0.6512E+01  0.2014E+01
     -3.020  0.1097E+02  0.2269E+01
     -2.997  0.4454E+02  0.3303E+01
     -2.974  0.8594E+02  0.5299E+01
     -2.950  0.7891E+02  0.7131E+01
     -2.927  0.3236E+02  0.7883E+01
     -2.904  0.1165E+02  0.8153E+01
     -2.881  0.3653E+02  0.9001E+01
     -2.858  0.8245E+02  0.1092E+02
     -2.834  0.8358E+02  0.1286E+02
     -2.811  0.4148E+02  0.1382E+02
     -2.788  0.2175E+02  0.1432E+02
     -2.765  0.4570E+02  0.1539E+02
     -2.741  0.8577E+02  0.1738E+02
     -2.718  0.1069E+03  0.1986E+02
     -2.695  0.7179E+02  0.2153E+02
     -2.672  0.3426E+02  0.2232E+02
     -2.649  0.6227E+02  0.2377E+02
     -2.625  0.1176E+03  0.2650E+02
     -2.602  0.1419E+03  0.2980E+02
     -2.579  0.1132E+03  0.3242E+02
     -2.556  0.5526E+02  0.3371E+02
     -2.532  0.2971E+02  0.3440E+02
     -2.509  0.5332E+02  0.3563E+02
     -2.486  0.8470E+02  0.3760E+02
     -2.463  0.7530E+02  0.3935E+02
     -2.440  0.4537E+02  0.4040E+02
     -2.416  0.5859E+02  0.4176E+02
     -2.393  0.9253E+02  0.4391E+02
     -2.370  0.1162E+03  0.4661E+02
     -2.347  0.1229E+03  0.4947E+02
     -2.323  0.1070E+03  0.5195E+02
     -2.300  0.1017E+03  0.5431E+02
     -2.277  0.1186E+03  0.5707E+02
     -2.254  0.1467E+03  0.6047E+02
     -2.231  0.1689E+03  0.6439E+02
     -2.207  0.1478E+03  0.6783E+02
     -2.184  0.9513E+02  0.7004E+02
     -2.161  0.5752E+02  0.7137E+02
     -2.138  0.3883E+02  0.7227E+02
     -2.114  0.5576E+02  0.7357E+02
     -2.091  0.7161E+02  0.7523E+02
     -2.068  0.6732E+02  0.7679E+02
     -2.045  0.1004E+03  0.7912E+02
     -2.022  0.1361E+03  0.8228E+02
     -1.998  0.1447E+03  0.8564E+02
     -1.975  0.1401E+03  0.8890E+02
     -1.952  0.1167E+03  0.9161E+02
     -1.929  0.1028E+03  0.9399E+02
     -1.905  0.1185E+03  0.9675E+02
     -1.882  0.1458E+03  0.1001E+03
     -1.859  0.1823E+03  0.1044E+03
     -1.836  0.1815E+03  0.1086E+03
     -1.813  0.1103E+03  0.1111E+03
     -1.789  0.4344E+02  0.1121E+03
     -1.766  0.5802E+02  0.1135E+03
     -1.743  0.1162E+03  0.1162E+03
     -1.720  0.1329E+03  0.1193E+03
     -1.696  0.1245E+03  0.1222E+03
     -1.673  0.1374E+03  0.1254E+03
     -1.650  0.1552E+03  0.1290E+03
     -1.627  0.1669E+03  0.1328E+03
     -1.604  0.1791E+03  0.1370E+03
     -1.580  0.1571E+03  0.1406E+03
     -1.557  0.1188E+03  0.1434E+03
     -1.534  0.1170E+03  0.1461E+03
     -1.511  0.1340E+03  0.1492E+03
     -1.487  0.1553E+03  0.1528E+03
     -1.464  0.1594E+03  0.1565E+03
     -1.441  0.1274E+03  0.1595E+03
     -1.418  0.9409E+02  0.1617E+03
     -1.395  0.9914E+02  0.1640E+03
     -1.371  0.1101E+03  0.1665E+03
     -1.348  0.9726E+02  0.1688E+03
     -1.325  0.1044E+03  0.1712E+03
     -1.302  0.1428E+03  0.1745E+03
     -1.278  0.1578E+03  0.1782E+03
     -1.255  0.1430E+03  0.1815E+03
     -1.232  0.1501E+03  0.1850E+03
     -1.209  0.1594E+03  0.1887E+03
     -1.186  0.1556E+03  0.1923E+03
     -1.162  0.1756E+03  0.1964E+03
     -1.139  0.2139E+03  0.2014E+03
     -1.116  0.2302E+03  0.2067E+03
     -1.093  0.2130E+03  0.2117E+03
     -1.069  0.1863E+03  0.2160E+03
     -1.046  0.1657E+03  0.2198E+03
     -1.023  0.1539E+03  0.2234E+03
     -1.000  0.1408E+03  0.2267E+03
     -0.977  0.1281E+03  0.2297E+03
     -0.953  0.1087E+03  0.2322E+03
     -0.930  0.1167E+03  0.2349E+03
     -0.907  0.1610E+03  0.2386E+03
     -0.884  0.1684E+03  0.2425E+03
     -0.860  0.1476E+03  0.2460E+03
     -0.837  0.1457E+03  0.2494E+03
     -0.814  0.1577E+03  0.2530E+03
     -0.791  0.1914E+03  0.2575E+03
     -0.768  0.1966E+03  0.2620E+03
     -0.744  0.1672E+03  0.2659E+03
     -0.721  0.1405E+03  0.2692E+03
     -0.698  0.1232E+03  0.2720E+03
     -0.675  0.1377E+03  0.2752E+03
     -0.651  0.1765E+03  0.2793E+03
     -0.628  0.1655E+03  0.2832E+03
     -0.605  0.1418E+03  0.2865E+03
     -0.582  0.1598E+03  0.2902E+03
     -0.559  0.1933E+03  0.2947E+03
     -0.535  0.2211E+03  0.2998E+03
     -0.512  0.2359E+03  0.3053E+03
     -0.489  0.2179E+03  0.3103E+03
     -0.466  0.1933E+03  0.3148E+03
     -0.442  0.1984E+03  0.3194E+03
     -0.419  0.2127E+03  0.3244E+03
     -0.396  0.2227E+03  0.3295E+03
     -0.373  0.2126E+03  0.3345E+03
     -0.350  0.1768E+03  0.3386E+03
     -0.326  0.1462E+03  0.3420E+03
     -0.303  0.1488E+03  0.3454E+03
     -0.280  0.1727E+03  0.3494E+03
     -0.257  0.1828E+03  0.3537E+03
     -0.233  0.1723E+03  0.3577E+03
     -0.210  0.1643E+03  0.3615E+03
     -0.187  0.1840E+03  0.3658E+03
     -0.164  0.1997E+03  0.3704E+03
     -0.141  0.1902E+03  0.3748E+03
     -0.117  0.1919E+03  0.3793E+03
     -0.094  0.2032E+03  0.3840E+03
     -0.071  0.2028E+03  0.3887E+03
     -0.048  0.2071E+03  0.3935E+03
     -0.025  0.2281E+03  0.3988E+03
     -0.001  0.2552E+03  0.4047E+03
      0.022  0.2578E+03  0.4107E+03
      0.045  0.2382E+03  0.4163E+03
      0.068  0.2129E+03  0.4212E+03
      0.092  0.1932E+03  0.4257E+03
      0.115  0.1939E+03  0.4302E+03
      0.138  0.2076E+03  0.4350E+03
      0.161  0.2174E+03  0.4401E+03
      0.184  0.2157E+03  0.4451E+03
      0.208  0.2079E+03  0.4499E+03
      0.231  0.1974E+03  0.4545E+03
      0.254  0.1811E+03  0.4587E+03
      0.277  0.1713E+03  0.4627E+03
      0.301  0.1816E+03  0.4669E+03
      0.324  0.2099E+03  0.4718E+03
      0.347  0.2215E+03  0.4769E+03
      0.370  0.2213E+03  0.4820E+03
      0.393  0.2377E+03  0.4876E+03
      0.417  0.2544E+03  0.4935E+03
      0.440  0.2664E+03  0.4997E+03
      0.463  0.2865E+03  0.5063E+03
      0.486  0.2930E+03  0.5131E+03
      0.510  0.2846E+03  0.5197E+03
      0.533  0.2666E+03  0.5259E+03
      0.556  0.2479E+03  0.5317E+03
      0.579  0.2454E+03  0.5374E+03
      0.602  0.2687E+03  0.5436E+03
      0.626  0.2854E+03  0.5502E+03
      0.649  0.2729E+03  0.5566E+03
      0.672  0.2496E+03  0.5624E+03
      0.695  0.2293E+03  0.5677E+03
      0.719  0.2256E+03  0.5729E+03
      0.742  0.2346E+03  0.5784E+03
      0.765  0.2322E+03  0.5838E+03
      0.788  0.2113E+03  0.5887E+03
      0.811  0.2005E+03  0.5933E+03
      0.835  0.2031E+03  0.5981E+03
      0.858  0.2070E+03  0.6029E+03
      0.881  0.2138E+03  0.6078E+03
      0.904  0.2111E+03  0.6127E+03
      0.928  0.2044E+03  0.6175E+03
      0.951  0.2135E+03  0.6224E+03
      0.974  0.2207E+03  0.6276E+03
      0.997  0.2091E+03  0.6324E+03
      1.020  0.1994E+03  0.6370E+03
      1.044  0.2072E+03  0.6419E+03
      1.067  0.2189E+03  0.6469E+03
      1.090  0.2312E+03  0.6523E+03
      1.113  0.2517E+03  0.6581E+03
      1.137  0.2590E+03  0.6642E+03
      1.160  0.2422E+03  0.6698E+03
      1.183  0.2236E+03  0.6750E+03
      1.206  0.2239E+03  0.6802E+03
      1.229  0.2331E+03  0.6856E+03
      1.253  0.2249E+03  0.6908E+03
      1.276  0.2079E+03  0.6956E+03
      1.299  0.2093E+03  0.7005E+03
      1.322  0.2173E+03  0.7055E+03
      1.346  0.2227E+03  0.7107E+03
      1.369  0.2244E+03  0.7159E+03
      1.392  0.2162E+03  0.7210E+03
      1.415  0.2104E+03  0.7258E+03
      1.438  0.2157E+03  0.7308E+03
      1.462  0.2188E+03  0.7359E+03
      1.485  0.2033E+03  0.7406E+03
      1.508  0.1887E+03  0.7450E+03
      1.531  0.2019E+03  0.7497E+03
      1.555  0.2264E+03  0.7550E+03
      1.578  0.2321E+03  0.7604E+03
      1.601  0.2260E+03  0.7656E+03
      1.624  0.2150E+03  0.7706E+03
      1.647  0.1986E+03  0.7752E+03
      1.671  0.2024E+03  0.7799E+03
      1.694  0.2227E+03  0.7851E+03
      1.717  0.2245E+03  0.7903E+03
      1.740  0.2205E+03  0.7954E+03
      1.764  0.2186E+03  0.8005E+03
      1.787  0.2165E+03  0.8055E+03
      1.810  0.2102E+03  0.8104E+03
      1.833  0.2067E+03  0.8152E+03
      1.856  0.2103E+03  0.8201E+03
      1.880  0.2168E+03  0.8251E+03
      1.903  0.2292E+03  0.8304E+03
      1.926  0.2215E+03  0.8356E+03
      1.949  0.2057E+03  0.8404E+03
      1.973  0.1976E+03  0.8449E+03
      1.996  0.1898E+03  0.8494E+03
      2.019  0.1895E+03  0.8538E+03
      2.042  0.1909E+03  0.8582E+03
      2.065  0.1974E+03  0.8628E+03
      2.089  0.1992E+03  0.8674E+03
      2.112  0.1909E+03  0.8718E+03
      2.135  0.1881E+03  0.8762E+03
      2.158  0.1891E+03  0.8806E+03
      2.182  0.1922E+03  0.8851E+03
      2.205  0.1912E+03  0.8895E+03
      2.228  0.1789E+03  0.8936E+03
      2.251  0.1627E+03  0.8974E+03
      2.274  0.1559E+03  0.9010E+03
      2.298  0.1454E+03  0.9044E+03
      2.321  0.1392E+03  0.9077E+03
      2.344  0.1441E+03  0.9110E+03
      2.367  0.1433E+03  0.9143E+03
      2.391  0.1470E+03  0.9177E+03
      2.414  0.1596E+03  0.9214E+03
      2.437  0.1613E+03  0.9252E+03
      2.460  0.1559E+03  0.9288E+03
      2.483  0.1480E+03  0.9322E+03
      2.507  0.1362E+03  0.9354E+03
      2.530  0.1320E+03  0.9385E+03
      2.553  0.1388E+03  0.9417E+03
      2.576  0.1406E+03  0.9450E+03
      2.600  0.1387E+03  0.9482E+03
      2.623  0.1347E+03  0.9513E+03
      2.646  0.1330E+03  0.9544E+03
      2.669  0.1369E+03  0.9576E+03
      2.692  0.1457E+03  0.9610E+03
      2.716  0.1453E+03  0.9643E+03
      2.739  0.1406E+03  0.9676E+03
      2.762  0.1318E+03  0.9707E+03
      2.785  0.1169E+03  0.9734E+03
      2.808  0.1106E+03  0.9759E+03
      2.832  0.1175E+03  0.9787E+03
      2.855  0.1252E+03  0.9816E+03
      2.878  0.1173E+03  0.9843E+03
      2.901  0.1115E+03  0.9869E+03
      2.925  0.1178E+03  0.9896E+03
      2.948  0.1275E+03  0.9926E+03
      2.971  0.1307E+03  0.9956E+03
      2.994  0.1189E+03  0.9984E+03
      3.017  0.9636E+02  0.1001E+04
      3.041  0.7550E+02  0.1002E+04
      3.064  0.5605E+02  0.1004E+04
      3.087  0.4291E+02  0.1005E+04
      3.110  0.3465E+02  0.1005E+04
      3.134  0.2769E+02  0.1006E+04
      3.157  0.2960E+02  0.1007E+04
      3.180  0.3071E+02  0.1008E+04
      3.203  0.2751E+02  0.1008E+04
      3.226  0.3399E+02  0.1009E+04
      3.250  0.3150E+02  0.1010E+04
      3.273  0.1191E+02  0.1010E+04
      3.296  0.1616E+01  0.1010E+04
      3.319  0.7544E-01  0.1010E+04
      3.343  0.1175E-02  0.1010E+04
      3.366  0.5965E-05  0.1010E+04
      3.389  0.9687E-08  0.1010E+04
      3.412  0.4965E-11  0.1010E+04
      3.435  0.0000E+00  0.1010E+04
      3.459  0.0000E+00  0.1010E+04
      3.482  0.0000E+00  0.1010E+04
      3.505  0.0000E+00  0.1010E+04
      3.528  0.0000E+00  0.1010E+04
      3.552  0.0000E+00  0.1010E+04
