       N       E                     dE             d eps       ncg     rms          rms(c)
DAV:   1    -0.284532576941E+03   -0.28453E+03   -0.12311E+05  4040   0.658E+02
DAV:   2    -0.895675485667E+03   -0.61114E+03   -0.55886E+03  4636   0.680E+01
DAV:   3    -0.939127035679E+03   -0.43452E+02   -0.39575E+02  5184   0.143E+01
DAV:   4    -0.940622421482E+03   -0.14954E+01   -0.14704E+01  4696   0.289E+00
DAV:   5    -0.940656383561E+03   -0.33962E-01   -0.33901E-01  4816   0.465E-01    0.975E+00
DAV:   6    -0.957664248784E+03   -0.17008E+02   -0.13732E+01  4880   0.733E+00    0.127E+01
DAV:   7    -0.928614890361E+03    0.29049E+02   -0.16271E+01  4848   0.622E+00    0.500E+00
DAV:   8    -0.926337568446E+03    0.22773E+01   -0.72366E+00  4584   0.276E+00    0.302E+00
DAV:   9    -0.926149650893E+03    0.18792E+00   -0.35135E+00  4536   0.183E+00    0.230E+00
DAV:  10    -0.925578873748E+03    0.57078E+00   -0.13512E+00  4536   0.119E+00    0.121E+00
DAV:  11    -0.925524529966E+03    0.54344E-01   -0.39920E-01  4400   0.531E-01    0.700E-01
DAV:  12    -0.925522225036E+03    0.23049E-02   -0.11408E-01  4808   0.386E-01    0.594E-01
DAV:  13    -0.925492642360E+03    0.29583E-01   -0.41311E-02  4600   0.237E-01    0.295E-01
DAV:  14    -0.925493816702E+03   -0.11743E-02   -0.14347E-02  4656   0.152E-01    0.232E-01
DAV:  15    -0.925488964977E+03    0.48517E-02   -0.87813E-03  4616   0.115E-01    0.116E-01
DAV:  16    -0.925487988443E+03    0.97653E-03   -0.30779E-03  4504   0.572E-02    0.572E-02
DAV:  17    -0.925487998290E+03   -0.98464E-05   -0.97845E-04  4512   0.311E-02    0.392E-02
DAV:  18    -0.925487859243E+03    0.13905E-03   -0.37899E-04  4488   0.218E-02    0.229E-02
DAV:  19    -0.925487809207E+03    0.50036E-04   -0.10131E-04  4464   0.109E-02    0.123E-02
DAV:  20    -0.925487790717E+03    0.18490E-04   -0.45431E-05  4344   0.636E-03    0.572E-03
DAV:  21    -0.925487787782E+03    0.29346E-05   -0.94129E-06  2376   0.373E-03
   1 F= -.92548779E+03 E0= -.92542255E+03  d E =-.130469E+00
