Li                                      
           1
   -10.636430   18.422837    0.000000
   -18.233880  -10.527336    0.000000
    -0.000000    0.000000   22.309700
   Li
   504
Direct configuration=     1
   0.99666545  0.00435139  0.99665832
   0.93121439  0.03376873  0.68865145
   0.86354836  0.07027367  0.33299629
   0.78215167  0.11624875  0.00345272
   0.70984649  0.16874630  0.68032841
   0.63307079  0.20914721  0.31180241
   0.56944169  0.26277050  0.00412233
   0.49420996  0.29525937  0.66972986
   0.42494693  0.33748184  0.33692808
   0.35351424  0.38341276  0.96955620
   0.28806899  0.40885151  0.67808006
   0.21080662  0.44566049  0.31655522
   0.06957091  0.04211927  0.67778939
   0.00335993  0.08128024  0.33593358
   0.92906168  0.12450260  0.98732937
   0.84728573  0.17013673  0.68532246
   0.78780784  0.20252884  0.32800098
   0.71865384  0.25370732  0.98658049
   0.64218302  0.29323211  0.70090253
   0.56375696  0.34663090  0.33012831
   0.50049908  0.37785985  0.99771255
   0.42511990  0.41282774  0.66587417
   0.36227400  0.45872264  0.32719905
   0.28329598  0.49914304  0.97825318
   0.14863329  0.07473921  0.32885972
   0.07620188  0.13182140  0.00896501
   0.00118388  0.17148886  0.66157625
   0.92847678  0.21177521  0.31606441
   0.85194463  0.24966686  0.00054252
   0.77937582  0.29893048  0.66334702
   0.70873226  0.33414483  0.34527667
   0.63447440  0.37490510  0.98366327
   0.56707909  0.41765454  0.68094919
   0.50156133  0.46423572  0.34618180
   0.41909749  0.51398379  0.00394589
   0.34771937  0.55020792  0.64827537
   0.21135287  0.12698159  0.99889561
   0.14654106  0.16156833  0.66681535
   0.07799636  0.21021761  0.31844135
   0.00847001  0.25160327  0.99131808
   0.93497972  0.28430323  0.68322810
   0.86137496  0.33362844  0.33499980
   0.78309144  0.37275319  0.98401567
   0.70822732  0.41365335  0.68694099
   0.64142464  0.45300161  0.35511055
   0.57954215  0.50979398  0.99744270
   0.50055273  0.54334238  0.64518494
   0.42137446  0.58435112  0.34069836
   0.28981024  0.16748801  0.64910926
   0.22344154  0.20941162  0.33716381
   0.14368161  0.24172421  0.99528647
   0.07467962  0.28686792  0.67567386
   0.00057317  0.32873311  0.33505146
   0.92936375  0.37409380  0.98911716
   0.85753025  0.42043796  0.67108589
   0.78077043  0.45648158  0.32677872
   0.71538268  0.49561946  0.99502399
   0.64363470  0.54264205  0.66313516
   0.57062711  0.58465816  0.35865902
   0.49096699  0.62016582  0.99076517
   0.35488978  0.21269052  0.32057852
   0.29025246  0.25395610  0.98107133
   0.20788662  0.28855328  0.67744486
   0.13839465  0.32461694  0.32537525
   0.06870347  0.35888491  0.01171956
   0.99426964  0.41497350  0.65560676
   0.92677759  0.45739813  0.33802857
   0.85549524  0.50820494  0.00055069
   0.78641947  0.54166184  0.66525681
   0.71755894  0.58255923  0.34448789
   0.63448420  0.62046479  0.99100440
   0.56639072  0.66652406  0.68575519
   0.42747912  0.25302419  0.98685026
   0.36032260  0.29205337  0.67242027
   0.29114340  0.33147441  0.32884409
   0.20307743  0.36184187  0.97661599
   0.13289128  0.40406775  0.64680134
   0.06354165  0.45301688  0.33190580
   0.99962134  0.49959107  0.98700699
   0.93012782  0.54020763  0.68159125
   0.86154145  0.58046836  0.35127661
   0.78402463  0.62513197  0.97476536
   0.70944407  0.67775593  0.67882899
   0.63657063  0.71213438  0.33899323
   0.13097010  0.48565146  0.99196785
   0.06108781  0.53627704  0.66382153
   0.00304392  0.58681951  0.32768139
   0.92908195  0.63239120  0.98239655
   0.86428618  0.66694958  0.67029385
   0.77899634  0.69365776  0.35733279
   0.71567550  0.74673471  0.98122920
   0.21721208  0.53850853  0.66134897
   0.13717846  0.57276493  0.32554356
   0.07826604  0.62560274  0.97923210
   0.99378655  0.66976668  0.68261597
   0.92005147  0.70371418  0.34946578
   0.85134353  0.75499951  0.99379451
   0.78670384  0.78546479  0.65422446
   0.28457058  0.59119144  0.33096524
   0.21539584  0.62709502  0.98328730
   0.13954239  0.66474243  0.65079781
   0.07023072  0.71714754  0.33550729
   0.00064621  0.75383648  0.01189375
   0.92935236  0.78722418  0.66604278
   0.85968480  0.83700188  0.36119870
   0.36321761  0.62690324  0.98868667
   0.28348764  0.66806694  0.66814289
   0.21411326  0.70458050  0.32563910
   0.14490947  0.75954895  0.98975759
   0.07578975  0.80325707  0.65928683
   0.99408862  0.82742833  0.30688676
   0.93688168  0.86469462  0.00970635
   0.43084959  0.67068622  0.68642169
   0.36303192  0.70316583  0.33333902
   0.28066469  0.74717822  0.00117222
   0.21833408  0.78753119  0.66963892
   0.13579836  0.83442989  0.30045249
   0.07198379  0.88486021  0.02611455
   0.99791855  0.91247058  0.69932168
   0.92399970  0.94870098  0.33096967
   0.85726734  0.99942249  0.00035780
   0.78156439  0.04019896  0.69871142
   0.71875342  0.08450267  0.33856010
   0.63404190  0.12922483  0.00475112
   0.56727759  0.17214106  0.67699821
   0.49918814  0.21089333  0.33725141
   0.06950104  0.96289366  0.32034766
   0.13995743  0.99275013  0.00437081
   0.21204078  0.03642515  0.65546068
   0.29440841  0.07584434  0.33707583
   0.34789014  0.11526377  0.98595692
   0.42751033  0.16093684  0.65766996
   0.85957375  0.91354067  0.70391932
   0.79060885  0.96298583  0.33720698
   0.72003383  0.99849576  0.96872724
   0.64983154  0.03854709  0.68048406
   0.57113128  0.08853381  0.31780041
   0.50232376  0.12767836  0.01095352
   0.14418138  0.91742003  0.66503271
   0.22558249  0.95015622  0.32571915
   0.28225524  0.99451741  0.00693026
   0.35219713  0.04716546  0.65750925
   0.42730844  0.08639416  0.34011540
   0.79453434  0.86779816  0.00423495
   0.71137062  0.91907138  0.70010852
   0.64034457  0.95478173  0.32088450
   0.57459654  0.99806562  0.99587298
   0.50875261  0.04536260  0.66727422
   0.22283422  0.86566978  0.01365369
   0.28503068  0.91290417  0.67704344
   0.35370156  0.95794277  0.33012409
   0.43062088  0.00299857  0.03041287
   0.71502498  0.83346440  0.37217920
   0.64764255  0.87009589  0.99600286
   0.56743026  0.91181231  0.67815177
   0.49968857  0.96187897  0.34726488
   0.28377715  0.82918343  0.35953544
   0.35471592  0.86726876  0.00167799
   0.42790822  0.91949081  0.65216714
   0.63891116  0.78690949  0.66573611
   0.56507562  0.83191412  0.34014118
   0.49471770  0.87336824  0.99000722
   0.36405076  0.78788883  0.67573779
   0.43167263  0.82983152  0.34277400
   0.57843344  0.74667918  0.00248170
   0.49703341  0.78879623  0.67718105
   0.43262656  0.74824446  0.99345418
   0.49179518  0.70865570  0.33830870
   0.00773228  0.98785893  0.77255232
   0.92348210  0.04268710  0.45676173
   0.85395073  0.09094754  0.11035142
   0.78418642  0.11850701  0.78105516
   0.71398827  0.17630329  0.44818628
   0.65322740  0.22065905  0.09723021
   0.57157989  0.24051694  0.78372368
   0.50490722  0.29141336  0.44040140
   0.42804302  0.33848656  0.09651659
   0.37027184  0.38473192  0.78031715
   0.28089780  0.43084966  0.42421838
   0.21464098  0.46491368  0.09245309
   0.06192920  0.04021834  0.45374553
   0.99179012  0.09005427  0.09328204
   0.92473472  0.12908453  0.77758700
   0.84634620  0.18290926  0.43735310
   0.79124486  0.21549192  0.10764520
   0.70863545  0.25149959  0.78268974
   0.65335771  0.30561321  0.43952525
   0.56091474  0.34475987  0.08891326
   0.50877246  0.36880477  0.77726002
   0.41587079  0.42356418  0.45009451
   0.35872615  0.46342103  0.10480531
   0.28513182  0.50746196  0.78580877
   0.14360387  0.08468272  0.10546288
   0.07029311  0.11457758  0.79354528
   0.98192500  0.16442562  0.45347025
   0.92796327  0.21812451  0.11733740
   0.86421740  0.25824146  0.77412954
   0.78552521  0.29964142  0.44036632
   0.72481393  0.34653263  0.09874639
   0.64147710  0.35627978  0.77082613
   0.55041169  0.42021719  0.46276790
   0.50014359  0.45819701  0.10524642
   0.43740761  0.49662117  0.78288108
   0.35258655  0.54809085  0.44228509
   0.21401311  0.11435580  0.75321298
   0.14540019  0.16044750  0.43972004
   0.07550811  0.20870696  0.09909908
   0.02654948  0.25589133  0.77696738
   0.91880829  0.30198523  0.44851058
   0.85540314  0.33504361  0.09910674
   0.79231949  0.37005868  0.79133539
   0.69046434  0.42686103  0.44897717
   0.63395489  0.47394815  0.10840951
   0.58362235  0.49700448  0.76988841
   0.48552057  0.53539182  0.46951722
   0.43803098  0.57844749  0.11031984
   0.28988160  0.15649449  0.44385772
   0.20816678  0.21289680  0.09565290
   0.15560021  0.24916212  0.77982925
   0.04103328  0.29044287  0.42584281
   0.98891869  0.32339722  0.09793342
   0.94044686  0.36476663  0.78020309
   0.86226697  0.41330939  0.45803541
   0.78818548  0.47161220  0.10504396
   0.71149271  0.49988470  0.78108410
   0.63209509  0.53524096  0.47364472
   0.58499283  0.59235907  0.09744466
   0.50794906  0.62069134  0.77677309
   0.35888976  0.20569846  0.11519766
   0.31335649  0.24273187  0.77056094
   0.20165202  0.28705881  0.43895681
   0.12380708  0.34339088  0.09595589
   0.09348458  0.37463825  0.76663669
   0.00169085  0.42682929  0.45764166
   0.94243964  0.44375070  0.10209597
   0.84749758  0.49130872  0.78297326
   0.77159034  0.54176383  0.46788419
   0.71968329  0.58787666  0.09244705
   0.64157708  0.63683171  0.78901082
   0.57350029  0.66079027  0.46096722
   0.44644672  0.24610677  0.77481481
   0.33592898  0.29977193  0.43394187
   0.27519913  0.33109455  0.10049744
   0.21951127  0.36317955  0.75717976
   0.14591759  0.41574331  0.44433158
   0.08119114  0.44581020  0.10248222
   0.99442783  0.48802435  0.79003549
   0.92448838  0.55381396  0.45760497
   0.87441141  0.58344164  0.10001967
   0.78200447  0.62196344  0.77544511
   0.70860387  0.66520278  0.46671974
   0.65505013  0.69549692  0.10585359
   0.14277345  0.48237515  0.77899363
   0.06601397  0.54799458  0.42527026
   0.01471538  0.58150221  0.09503767
   0.92584698  0.62053860  0.77872309
   0.85705695  0.66527166  0.45327509
   0.78921267  0.70321184  0.11453730
   0.72318493  0.73342492  0.77840440
   0.20622216  0.54602956  0.42462814
   0.13438204  0.57295379  0.11186681
   0.08195756  0.61291701  0.76711678
   0.01016680  0.66483454  0.44915852
   0.92705817  0.71280417  0.12164053
   0.85045500  0.74128062  0.77512965
   0.77490772  0.79995791  0.46543415
   0.28855462  0.59666020  0.09700438
   0.20884484  0.62621898  0.77280196
   0.13699209  0.66896745  0.44053170
   0.05528130  0.71427776  0.11407439
   0.00399462  0.75028296  0.78785582
   0.92352205  0.78778632  0.44911065
   0.85439306  0.84746868  0.11512394
   0.35083339  0.61742670  0.77970653
   0.29390164  0.67547299  0.44215323
   0.19422699  0.71523533  0.11632444
   0.13223948  0.74133900  0.76280466
   0.06279896  0.80713345  0.42958720
   0.99575088  0.83895668  0.12131593
   0.91626420  0.87016145  0.79068262
   0.43909604  0.67660448  0.44333870
   0.35478617  0.70951242  0.09997493
   0.28644543  0.75137627  0.76392380
   0.21164159  0.78652780  0.43277332
   0.14431040  0.83007920  0.11722927
   0.07854126  0.86887622  0.78991137
   0.01018305  0.91353418  0.44066547
   0.93448365  0.96177235  0.11667070
   0.85723611  0.99048370  0.80141644
   0.77724120  0.03994811  0.45701197
   0.72981830  0.08583712  0.10123063
   0.64460688  0.10927121  0.78897009
   0.55958063  0.16829257  0.44760688
   0.49425003  0.21671448  0.10391975
   0.08677776  0.95589982  0.12385063
   0.14920329  0.99293263  0.78067303
   0.20517895  0.04186603  0.44117211
   0.27976210  0.08332188  0.10701832
   0.37440921  0.11707923  0.77196045
   0.42234299  0.16883990  0.45579116
   0.85053826  0.91984948  0.46825175
   0.78025126  0.96143781  0.10320734
   0.71984857  0.98430179  0.78986001
   0.63449854  0.04272647  0.43918059
   0.57100489  0.10099800  0.10984809
   0.50286765  0.12647813  0.78049268
   0.13909699  0.91677121  0.43988511
   0.21715674  0.94426346  0.11136226
   0.29701725  0.98005791  0.77764000
   0.35183127  0.03888254  0.44048870
   0.42725552  0.09670655  0.12643408
   0.78550212  0.86049659  0.78713341
   0.72017817  0.91443634  0.45799922
   0.63271282  0.95876074  0.11408133
   0.59343537  0.98436883  0.78360675
   0.48524242  0.04013977  0.43645600
   0.21573352  0.86281022  0.77757338
   0.29000816  0.91390512  0.44359842
   0.35237136  0.95499745  0.12403914
   0.42360164  0.99904863  0.75983852
   0.72287529  0.84142042  0.11310319
   0.63603639  0.85326958  0.80311161
   0.58340676  0.91541193  0.45218625
   0.48702826  0.96609319  0.10815527
   0.30000134  0.82826140  0.12300903
   0.35307533  0.86720860  0.76971661
   0.42772791  0.91159211  0.46009014
   0.63294305  0.80543050  0.45989862
   0.58100330  0.82872176  0.11463798
   0.48680422  0.86417650  0.78497580
   0.34927343  0.79600321  0.44360027
   0.44808083  0.83458847  0.10220918
   0.57664953  0.75010172  0.78620933
   0.49964590  0.78519057  0.44865245
   0.41513311  0.73464356  0.79224886
   0.49977803  0.71170985  0.10659017
   0.00333402  0.00366106  0.22201745
   0.93529355  0.04486854  0.88582066
   0.85281460  0.07635562  0.57456402
   0.80034801  0.13492354  0.22090824
   0.71525607  0.17058623  0.88524237
   0.64243441  0.21123757  0.56743013
   0.56806007  0.26244162  0.20902137
   0.50720868  0.30081113  0.88345381
   0.42201005  0.33012073  0.54935391
   0.35329682  0.37938077  0.23017544
   0.28921582  0.40939152  0.87646411
   0.20401983  0.45978565  0.56470254
   0.07934178  0.03255415  0.87725027
   0.99419809  0.08074629  0.57817906
   0.93718191  0.11895913  0.21897253
   0.84913282  0.17042739  0.89663338
   0.79249372  0.22083376  0.56813508
   0.71822318  0.25743139  0.21913619
   0.62860114  0.27812893  0.86956097
   0.56372699  0.32600984  0.57962732
   0.50461753  0.38499073  0.21211998
   0.44827356  0.42906157  0.88774350
   0.35240843  0.46203194  0.54886159
   0.29640143  0.49996613  0.20002394
   0.13993104  0.08227497  0.56553633
   0.07531985  0.13222361  0.21771036
   0.00984912  0.16003918  0.88396247
   0.91836611  0.21415212  0.56152368
   0.85105311  0.25231417  0.22942205
   0.78857990  0.29156142  0.89282909
   0.71252151  0.32126708  0.56257744
   0.64003734  0.37904992  0.22617141
   0.59184845  0.41284113  0.86867329
   0.48369209  0.46514495  0.57588021
   0.43056495  0.50673232  0.22021966
   0.36459651  0.53905514  0.87589381
   0.20880882  0.13147025  0.20904090
   0.14824875  0.16053670  0.87799371
   0.07404918  0.21508081  0.54586296
   0.00704940  0.25554285  0.21260553
   0.93510563  0.28836590  0.87570936
   0.85783498  0.34086529  0.57097502
   0.77927867  0.37564606  0.21310213
   0.71862216  0.40569711  0.88870065
   0.64827755  0.45005543  0.56999638
   0.57977280  0.51463931  0.21669578
   0.50658556  0.54517776  0.89641946
   0.40508089  0.59219797  0.55318259
   0.28881226  0.16396176  0.87159029
   0.21319005  0.19899444  0.55599014
   0.13690854  0.26079685  0.21095159
   0.11193665  0.29159260  0.89368499
   0.98988278  0.34660059  0.55219244
   0.92114624  0.37604985  0.21948153
   0.85500935  0.41362047  0.87124634
   0.76515964  0.43575786  0.58325751
   0.72294558  0.50589614  0.22867693
   0.63751700  0.55724703  0.87804613
   0.56109903  0.57393336  0.56533471
   0.50741231  0.62670571  0.24094578
   0.34594250  0.21148173  0.55631878
   0.27111915  0.25208370  0.21180130
   0.23353486  0.29689262  0.87404008
   0.14175472  0.33657492  0.56167501
   0.06212137  0.37639561  0.20691611
   0.00546228  0.41983683  0.87361673
   0.91792781  0.47497488  0.57353777
   0.86460479  0.50911618  0.22198977
   0.78068675  0.54495260  0.87908638
   0.70279190  0.58682318  0.56259045
   0.64802910  0.62864061  0.22210358
   0.56628958  0.67038923  0.90798476
   0.42684679  0.24086603  0.22875024
   0.38433010  0.29768401  0.87189414
   0.28788549  0.34723302  0.53362105
   0.19539940  0.38588499  0.18869330
   0.14452593  0.41171913  0.90104068
   0.07455250  0.46965120  0.53449941
   0.02241666  0.50807910  0.20565561
   0.92194688  0.53175074  0.88100474
   0.83849861  0.60114482  0.56008107
   0.80126768  0.62902097  0.23745971
   0.71754478  0.66004017  0.87255425
   0.63202141  0.71391843  0.55939139
   0.14561837  0.51230173  0.20748978
   0.07161332  0.52978312  0.87229329
   0.98819162  0.58001489  0.57527638
   0.93973046  0.63525774  0.21937947
   0.86157305  0.66271799  0.87192618
   0.78428418  0.71821463  0.55225669
   0.71892149  0.77999108  0.23278399
   0.22135722  0.52931887  0.89672853
   0.14741361  0.60324722  0.53897408
   0.06192765  0.62891893  0.20972167
   0.00948801  0.66417608  0.88451303
   0.93493290  0.70806047  0.55032268
   0.85490211  0.75394625  0.23882358
   0.79544471  0.77734953  0.88581176
   0.27951087  0.56885884  0.54830072
   0.21617788  0.63198582  0.22583865
   0.14635339  0.66418539  0.86616618
   0.08797112  0.71316695  0.55920141
   0.99472875  0.76508508  0.21627162
   0.92466334  0.80263635  0.88707427
   0.85365548  0.82831424  0.57755749
   0.36456582  0.62372067  0.22198396
   0.28358383  0.66238091  0.87521816
   0.23606961  0.70346607  0.54387649
   0.14371086  0.75166814  0.20800577
   0.07628527  0.78604316  0.90654478
   0.00364266  0.83143696  0.55779830
   0.93796527  0.87067984  0.21781396
   0.42015848  0.65426308  0.86386288
   0.36946076  0.71818417  0.56373393
   0.29429542  0.73390391  0.22850459
   0.20671851  0.78665081  0.89249859
   0.13464182  0.83398775  0.53469429
   0.06336071  0.87186007  0.21055614
   0.99572654  0.90873360  0.88235571
   0.93825550  0.95146448  0.58874331
   0.84952654  0.00982009  0.21295452
   0.77565965  0.03647551  0.88074556
   0.69484935  0.10391389  0.57244313
   0.64020273  0.13310494  0.20504489
   0.57063345  0.16355569  0.88802429
   0.50286660  0.21095239  0.53915347
   0.06285729  0.96739158  0.56675317
   0.16104588  0.98924975  0.22732757
   0.22384271  0.03352601  0.88553538
   0.27924940  0.07994593  0.54392872
   0.35433573  0.13167788  0.24097410
   0.43209108  0.16536862  0.90188086
   0.84771399  0.90464046  0.88087997
   0.77336450  0.97769578  0.57044940
   0.71278999  0.01025580  0.22719815
   0.65672836  0.04073714  0.89521951
   0.56346190  0.08082807  0.56490916
   0.50598961  0.12706444  0.22462210
   0.15651935  0.90360598  0.90852095
   0.20356115  0.96522991  0.55978234
   0.28785822  0.99756370  0.21624994
   0.36080207  0.03706231  0.87276434
   0.43093911  0.08080397  0.54691614
   0.78038902  0.88548273  0.23956481
   0.69712309  0.90523231  0.87742024
   0.64713809  0.96923838  0.56329325
   0.55725033  0.02001963  0.21891726
   0.51966575  0.04179702  0.89830327
   0.21690246  0.86429894  0.23436895
   0.29074837  0.90445328  0.90198975
   0.36448600  0.95757218  0.54783976
   0.42333770  0.99773610  0.22227310
   0.71254137  0.82509825  0.57412252
   0.66260965  0.88689574  0.23783494
   0.57594872  0.91413822  0.87959581
   0.50631066  0.95069750  0.54637484
   0.27941652  0.82688602  0.54863223
   0.36731873  0.88516670  0.22907477
   0.42941118  0.92407229  0.89856351
   0.65221435  0.77315277  0.89745495
   0.58507270  0.83987710  0.56222416
   0.51623456  0.88723347  0.21181719
   0.35876088  0.78862228  0.89693542
   0.42352228  0.82823622  0.56001618
   0.57255226  0.74675938  0.23148421
   0.49892199  0.78659166  0.89083913
   0.44586952  0.75508372  0.20297674
   0.50178343  0.70859315  0.57638195
