 432 432   0   0
  0.2035379E+02  0.2064000E-08  0.2064000E-08  0.2064000E-08  0.5000000E-15
  1.000000000000000E-004
  CAR 
 Li                                      
      3.69653797     -3.45215066  301      0.40880968      1.00000000
     -3.452  0.0000E+00  0.0000E+00
     -3.428  0.0000E+00  0.0000E+00
     -3.404  0.0000E+00  0.0000E+00
     -3.381  0.0000E+00  0.0000E+00
     -3.357  0.0000E+00  0.0000E+00
     -3.333  0.0000E+00  0.0000E+00
     -3.309  0.0000E+00  0.0000E+00
     -3.285  0.3711E-11  0.8843E-13
     -3.262  0.1004E-07  0.2392E-09
     -3.238  0.7895E-05  0.1884E-06
     -3.214  0.1825E-02  0.4367E-04
     -3.190  0.1257E+00  0.3038E-02
     -3.166  0.2629E+01  0.6569E-01
     -3.142  0.1710E+02  0.4732E+00
     -3.119  0.3534E+02  0.1315E+01
     -3.095  0.2344E+02  0.1874E+01
     -3.071  0.5051E+01  0.1994E+01
     -3.047  0.2994E+01  0.2066E+01
     -3.023  0.2545E+02  0.2672E+01
     -2.999  0.8256E+02  0.4639E+01
     -2.976  0.9503E+02  0.6904E+01
     -2.952  0.3972E+02  0.7850E+01
     -2.928  0.6514E+01  0.8006E+01
     -2.904  0.9342E+01  0.8228E+01
     -2.880  0.5038E+02  0.9429E+01
     -2.856  0.9887E+02  0.1178E+02
     -2.833  0.7158E+02  0.1349E+02
     -2.809  0.1953E+02  0.1396E+02
     -2.785  0.5140E+01  0.1408E+02
     -2.761  0.3095E+02  0.1482E+02
     -2.737  0.1038E+03  0.1729E+02
     -2.713  0.1280E+03  0.2034E+02
     -2.690  0.5908E+02  0.2175E+02
     -2.666  0.1129E+02  0.2202E+02
     -2.642  0.1813E+02  0.2245E+02
     -2.618  0.9103E+02  0.2462E+02
     -2.594  0.1855E+03  0.2904E+02
     -2.570  0.1527E+03  0.3267E+02
     -2.547  0.4953E+02  0.3385E+02
     -2.523  0.7808E+01  0.3404E+02
     -2.499  0.2102E+02  0.3454E+02
     -2.475  0.7734E+02  0.3638E+02
     -2.451  0.9985E+02  0.3876E+02
     -2.428  0.4475E+02  0.3983E+02
     -2.404  0.8061E+01  0.4002E+02
     -2.380  0.1701E+02  0.4043E+02
     -2.356  0.8447E+02  0.4244E+02
     -2.332  0.1755E+03  0.4662E+02
     -2.308  0.1572E+03  0.5037E+02
     -2.285  0.5982E+02  0.5179E+02
     -2.261  0.1736E+02  0.5221E+02
     -2.237  0.6270E+02  0.5370E+02
     -2.213  0.1894E+03  0.5822E+02
     -2.189  0.2662E+03  0.6456E+02
     -2.165  0.1738E+03  0.6870E+02
     -2.142  0.4912E+02  0.6987E+02
     -2.118  0.9878E+01  0.7011E+02
     -2.094  0.3387E+02  0.7091E+02
     -2.070  0.8858E+02  0.7303E+02
     -2.046  0.8707E+02  0.7510E+02
     -2.022  0.3319E+02  0.7589E+02
     -1.999  0.1153E+02  0.7617E+02
     -1.975  0.5273E+02  0.7742E+02
     -1.951  0.1597E+03  0.8123E+02
     -1.927  0.2107E+03  0.8625E+02
     -1.903  0.1239E+03  0.8920E+02
     -1.879  0.3195E+02  0.8996E+02
     -1.856  0.2206E+02  0.9049E+02
     -1.832  0.1024E+03  0.9293E+02
     -1.808  0.2322E+03  0.9846E+02
     -1.784  0.2461E+03  0.1043E+03
     -1.760  0.1241E+03  0.1073E+03
     -1.736  0.2912E+02  0.1080E+03
     -1.713  0.2121E+02  0.1085E+03
     -1.689  0.9163E+02  0.1107E+03
     -1.665  0.1820E+03  0.1150E+03
     -1.641  0.1517E+03  0.1186E+03
     -1.617  0.5312E+02  0.1199E+03
     -1.593  0.3001E+02  0.1206E+03
     -1.570  0.1140E+03  0.1233E+03
     -1.546  0.2403E+03  0.1290E+03
     -1.522  0.2395E+03  0.1347E+03
     -1.498  0.1123E+03  0.1374E+03
     -1.474  0.2903E+02  0.1381E+03
     -1.451  0.5669E+02  0.1395E+03
     -1.427  0.1844E+03  0.1439E+03
     -1.403  0.2694E+03  0.1503E+03
     -1.379  0.1806E+03  0.1546E+03
     -1.355  0.5355E+02  0.1559E+03
     -1.331  0.1563E+02  0.1562E+03
     -1.308  0.6220E+02  0.1577E+03
     -1.284  0.1591E+03  0.1615E+03
     -1.260  0.1740E+03  0.1657E+03
     -1.236  0.8187E+02  0.1676E+03
     -1.212  0.1755E+02  0.1680E+03
     -1.188  0.2339E+02  0.1686E+03
     -1.165  0.9082E+02  0.1707E+03
     -1.141  0.1595E+03  0.1745E+03
     -1.117  0.1474E+03  0.1781E+03
     -1.093  0.7835E+02  0.1799E+03
     -1.069  0.8242E+02  0.1819E+03
     -1.045  0.2030E+03  0.1867E+03
     -1.022  0.3176E+03  0.1943E+03
     -0.998  0.3336E+03  0.2022E+03
     -0.974  0.2287E+03  0.2077E+03
     -0.950  0.9422E+02  0.2099E+03
     -0.926  0.8551E+02  0.2120E+03
     -0.902  0.1917E+03  0.2165E+03
     -0.879  0.2350E+03  0.2221E+03
     -0.855  0.1644E+03  0.2261E+03
     -0.831  0.6804E+02  0.2277E+03
     -0.807  0.2332E+02  0.2282E+03
     -0.783  0.6996E+02  0.2299E+03
     -0.759  0.1816E+03  0.2342E+03
     -0.736  0.2038E+03  0.2391E+03
     -0.712  0.1016E+03  0.2415E+03
     -0.688  0.4067E+02  0.2425E+03
     -0.664  0.1077E+03  0.2450E+03
     -0.640  0.2522E+03  0.2511E+03
     -0.617  0.3181E+03  0.2586E+03
     -0.593  0.2244E+03  0.2640E+03
     -0.569  0.1048E+03  0.2665E+03
     -0.545  0.9557E+02  0.2688E+03
     -0.521  0.9312E+02  0.2710E+03
     -0.497  0.3769E+02  0.2719E+03
     -0.474  0.1139E+02  0.2721E+03
     -0.450  0.4919E+02  0.2733E+03
     -0.426  0.1618E+03  0.2772E+03
     -0.402  0.2655E+03  0.2835E+03
     -0.378  0.2710E+03  0.2900E+03
     -0.354  0.1959E+03  0.2946E+03
     -0.331  0.1343E+03  0.2978E+03
     -0.307  0.1467E+03  0.3013E+03
     -0.283  0.1784E+03  0.3056E+03
     -0.259  0.2184E+03  0.3108E+03
     -0.235  0.2375E+03  0.3164E+03
     -0.211  0.2508E+03  0.3224E+03
     -0.188  0.2341E+03  0.3280E+03
     -0.164  0.1521E+03  0.3316E+03
     -0.140  0.1004E+03  0.3340E+03
     -0.116  0.1104E+03  0.3366E+03
     -0.092  0.1256E+03  0.3396E+03
     -0.068  0.1276E+03  0.3427E+03
     -0.045  0.1184E+03  0.3455E+03
     -0.021  0.1915E+03  0.3501E+03
      0.003  0.2920E+03  0.3570E+03
      0.027  0.3311E+03  0.3649E+03
      0.051  0.3124E+03  0.3723E+03
      0.075  0.2187E+03  0.3776E+03
      0.098  0.1018E+03  0.3800E+03
      0.122  0.9392E+02  0.3822E+03
      0.146  0.1907E+03  0.3868E+03
      0.170  0.2614E+03  0.3930E+03
      0.194  0.2435E+03  0.3988E+03
      0.218  0.1558E+03  0.4025E+03
      0.241  0.7987E+02  0.4044E+03
      0.265  0.9046E+02  0.4066E+03
      0.289  0.1289E+03  0.4096E+03
      0.313  0.1660E+03  0.4136E+03
      0.337  0.2098E+03  0.4186E+03
      0.360  0.2007E+03  0.4234E+03
      0.384  0.1729E+03  0.4275E+03
      0.408  0.1831E+03  0.4319E+03
      0.432  0.2262E+03  0.4373E+03
      0.456  0.2727E+03  0.4438E+03
      0.480  0.2844E+03  0.4505E+03
      0.503  0.2467E+03  0.4564E+03
      0.527  0.1880E+03  0.4609E+03
      0.551  0.1228E+03  0.4638E+03
      0.575  0.1063E+03  0.4663E+03
      0.599  0.1532E+03  0.4700E+03
      0.623  0.2048E+03  0.4749E+03
      0.646  0.2261E+03  0.4803E+03
      0.670  0.2237E+03  0.4856E+03
      0.694  0.2447E+03  0.4914E+03
      0.718  0.2781E+03  0.4981E+03
      0.742  0.2927E+03  0.5050E+03
      0.766  0.3024E+03  0.5122E+03
      0.789  0.2935E+03  0.5192E+03
      0.813  0.2604E+03  0.5254E+03
      0.837  0.2272E+03  0.5308E+03
      0.861  0.2197E+03  0.5361E+03
      0.885  0.2405E+03  0.5418E+03
      0.909  0.2584E+03  0.5480E+03
      0.932  0.2638E+03  0.5543E+03
      0.956  0.2552E+03  0.5603E+03
      0.980  0.2366E+03  0.5660E+03
      1.004  0.2151E+03  0.5711E+03
      1.028  0.2068E+03  0.5760E+03
      1.052  0.2346E+03  0.5816E+03
      1.075  0.2628E+03  0.5879E+03
      1.099  0.2612E+03  0.5941E+03
      1.123  0.2476E+03  0.6000E+03
      1.147  0.2388E+03  0.6057E+03
      1.171  0.2369E+03  0.6113E+03
      1.194  0.2197E+03  0.6166E+03
      1.218  0.1705E+03  0.6206E+03
      1.242  0.1504E+03  0.6242E+03
      1.266  0.1779E+03  0.6285E+03
      1.290  0.2146E+03  0.6336E+03
      1.314  0.2374E+03  0.6392E+03
      1.337  0.2240E+03  0.6446E+03
      1.361  0.1752E+03  0.6487E+03
      1.385  0.1014E+03  0.6512E+03
      1.409  0.5075E+02  0.6524E+03
      1.433  0.7630E+02  0.6542E+03
      1.457  0.1390E+03  0.6575E+03
      1.480  0.1582E+03  0.6613E+03
      1.504  0.1220E+03  0.6642E+03
      1.528  0.1136E+03  0.6669E+03
      1.552  0.1500E+03  0.6705E+03
      1.576  0.1838E+03  0.6748E+03
      1.600  0.2054E+03  0.6797E+03
      1.623  0.2143E+03  0.6848E+03
      1.647  0.1894E+03  0.6893E+03
      1.671  0.1299E+03  0.6924E+03
      1.695  0.7569E+02  0.6942E+03
      1.719  0.9030E+02  0.6964E+03
      1.743  0.1460E+03  0.6999E+03
      1.766  0.1826E+03  0.7042E+03
      1.790  0.1994E+03  0.7090E+03
      1.814  0.1984E+03  0.7137E+03
      1.838  0.1954E+03  0.7184E+03
      1.862  0.1835E+03  0.7227E+03
      1.886  0.1834E+03  0.7271E+03
      1.909  0.2092E+03  0.7321E+03
      1.933  0.2281E+03  0.7375E+03
      1.957  0.2269E+03  0.7429E+03
      1.981  0.1889E+03  0.7474E+03
      2.005  0.1436E+03  0.7509E+03
      2.029  0.1290E+03  0.7539E+03
      2.052  0.1449E+03  0.7574E+03
      2.076  0.1729E+03  0.7615E+03
      2.100  0.1879E+03  0.7660E+03
      2.124  0.1746E+03  0.7701E+03
      2.148  0.1507E+03  0.7737E+03
      2.171  0.1423E+03  0.7771E+03
      2.195  0.1359E+03  0.7804E+03
      2.219  0.1036E+03  0.7828E+03
      2.243  0.6335E+02  0.7843E+03
      2.267  0.6984E+02  0.7860E+03
      2.291  0.9453E+02  0.7883E+03
      2.314  0.1038E+03  0.7907E+03
      2.338  0.1022E+03  0.7932E+03
      2.362  0.7740E+02  0.7950E+03
      2.386  0.3403E+02  0.7958E+03
      2.410  0.7006E+01  0.7960E+03
      2.434  0.5798E+01  0.7961E+03
      2.457  0.3333E+02  0.7969E+03
      2.481  0.8193E+02  0.7989E+03
      2.505  0.8539E+02  0.8009E+03
      2.529  0.3819E+02  0.8018E+03
      2.553  0.6892E+01  0.8020E+03
      2.577  0.4583E+00  0.8020E+03
      2.600  0.1870E-01  0.8020E+03
      2.624  0.3629E+00  0.8020E+03
      2.648  0.5357E+01  0.8021E+03
      2.672  0.2993E+02  0.8028E+03
      2.696  0.7577E+02  0.8047E+03
      2.720  0.1072E+03  0.8072E+03
      2.743  0.1081E+03  0.8098E+03
      2.767  0.1116E+03  0.8124E+03
      2.791  0.1061E+03  0.8150E+03
      2.815  0.8177E+02  0.8169E+03
      2.839  0.5895E+02  0.8183E+03
      2.863  0.8017E+02  0.8202E+03
      2.886  0.1255E+03  0.8232E+03
      2.910  0.1484E+03  0.8268E+03
      2.934  0.1550E+03  0.8305E+03
      2.958  0.1639E+03  0.8344E+03
      2.982  0.1641E+03  0.8383E+03
      3.005  0.1321E+03  0.8414E+03
      3.029  0.9353E+02  0.8437E+03
      3.053  0.8390E+02  0.8456E+03
      3.077  0.6655E+02  0.8472E+03
      3.101  0.2805E+02  0.8479E+03
      3.125  0.1319E+02  0.8482E+03
      3.148  0.3566E+02  0.8491E+03
      3.172  0.6044E+02  0.8505E+03
      3.196  0.6325E+02  0.8520E+03
      3.220  0.7741E+02  0.8539E+03
      3.244  0.1020E+03  0.8563E+03
      3.268  0.1038E+03  0.8588E+03
      3.291  0.8555E+02  0.8608E+03
      3.315  0.6892E+02  0.8624E+03
      3.339  0.6092E+02  0.8639E+03
      3.363  0.5086E+02  0.8651E+03
      3.387  0.2851E+02  0.8658E+03
      3.411  0.7961E+01  0.8660E+03
      3.434  0.9060E+00  0.8660E+03
      3.458  0.3697E-01  0.8660E+03
      3.482  0.4963E-03  0.8660E+03
      3.506  0.2070E-05  0.8660E+03
      3.530  0.2589E-08  0.8660E+03
      3.554  0.9551E-12  0.8660E+03
      3.577  0.0000E+00  0.8660E+03
      3.601  0.0000E+00  0.8660E+03
      3.625  0.0000E+00  0.8660E+03
      3.649  0.0000E+00  0.8660E+03
      3.673  0.0000E+00  0.8660E+03
      3.697  0.0000E+00  0.8660E+03
