Li                                      
           1
    20.640000    0.000000    0.000000
     0.000000   20.640000    0.000000
     0.000000    0.000000   20.640000
   Li
   432
Direct configuration=     1
   0.99422386  0.00236307  0.99312662
   0.92699187  0.08297689  0.09021638
   0.85196446  0.16086971  0.17890663
   0.75676599  0.25434827  0.25172547
   0.65926981  0.32722469  0.34398227
   0.57966944  0.41083725  0.43270844
   0.49239727  0.51624278  0.50123643
   0.40375410  0.59668113  0.59168257
   0.32585668  0.67006246  0.67451153
   0.24904053  0.75195016  0.75877312
   0.17329377  0.84414957  0.84039630
   0.07504053  0.92448297  0.91912772
   0.09362734  0.93382664  0.07748533
   0.00890216  0.99214065  0.16202890
   0.93217308  0.07361824  0.25319104
   0.85241192  0.16863492  0.32739430
   0.76679697  0.23960040  0.42700515
   0.68769754  0.32843660  0.52111847
   0.58371958  0.41503216  0.58630132
   0.48846350  0.50123779  0.66323139
   0.40033901  0.57564828  0.75835193
   0.33004714  0.66986515  0.83671098
   0.25253280  0.74457639  0.93448226
   0.16185317  0.83292902  0.98976677
   0.16978752  0.83643163  0.15517626
   0.08906941  0.90880479  0.24524830
   0.00346886  0.98642708  0.33719953
   0.92522432  0.08370899  0.41395087
   0.83917430  0.16121995  0.50038439
   0.76480777  0.24205922  0.58939752
   0.66460631  0.32630848  0.66398627
   0.57415751  0.42632287  0.75110821
   0.50767624  0.50568071  0.84106966
   0.40827510  0.58037174  0.90877705
   0.35049412  0.65610614  0.99045326
   0.25313334  0.76002756  0.07561323
   0.23744686  0.75872946  0.25081316
   0.15989207  0.83813469  0.34375293
   0.08305178  0.91428593  0.42763700
   0.99649875  0.98877189  0.49095617
   0.92776297  0.08799556  0.58518811
   0.84154823  0.17209721  0.66072691
   0.74435536  0.25487365  0.75158912
   0.66794781  0.32935857  0.83779468
   0.58869321  0.41111332  0.91040942
   0.49781573  0.49804850  0.00176883
   0.41063735  0.57188083  0.09196559
   0.31735527  0.66809602  0.17029331
   0.32141657  0.68537734  0.33612029
   0.22957402  0.73948195  0.42078088
   0.16295982  0.83087315  0.51818878
   0.07778827  0.91711555  0.58406217
   0.00880241  0.00860618  0.66854169
   0.91613841  0.08469150  0.74655284
   0.83284545  0.16283461  0.82820242
   0.75730316  0.23977696  0.91593334
   0.67568095  0.31528204  0.00514220
   0.59586017  0.40344360  0.07512947
   0.50362251  0.49277270  0.16514790
   0.42339789  0.58758524  0.25207000
   0.41515892  0.59083911  0.41186717
   0.33377217  0.67990266  0.50720227
   0.22348971  0.74512877  0.58863322
   0.18200411  0.84677156  0.66031173
   0.08284474  0.91308846  0.75830646
   0.98664792  0.01311644  0.83491548
   0.93619042  0.09727312  0.91719287
   0.84252362  0.16966095  0.00090792
   0.75775099  0.23951860  0.08642466
   0.67235975  0.32420797  0.17237288
   0.58943289  0.41656982  0.27062144
   0.51611608  0.50166311  0.33524805
   0.09340711  0.09143671  0.91051939
   0.00010570  0.18225681  0.00575551
   0.91927318  0.26315215  0.09698940
   0.83188157  0.32581472  0.16382487
   0.73695213  0.40701656  0.26057703
   0.67294478  0.49179426  0.33623139
   0.57720805  0.58745927  0.41434398
   0.49286441  0.67175603  0.51289291
   0.42294671  0.76038409  0.59705782
   0.30735026  0.84691545  0.65661262
   0.24445960  0.92958433  0.74065199
   0.17234696  0.02307546  0.81996279
   0.15704736  0.99482360  0.98174758
   0.08068544  0.07742060  0.07876234
   0.00799895  0.17374681  0.16554074
   0.93049380  0.25615505  0.25584573
   0.83095788  0.32672166  0.32269989
   0.74435165  0.41705542  0.42482166
   0.66159282  0.50592819  0.49671474
   0.57324082  0.57359584  0.59794458
   0.49107255  0.67901994  0.68571529
   0.39601275  0.76708286  0.75447996
   0.33088813  0.82497549  0.83619561
   0.24922177  0.93128990  0.90807540
   0.26617135  0.92341046  0.06589211
   0.17101610  0.00880009  0.17784003
   0.07931094  0.08063468  0.24354442
   0.99317591  0.17845162  0.33362994
   0.92665831  0.26407216  0.43661058
   0.82183159  0.33746725  0.49983963
   0.74495056  0.42868889  0.58336556
   0.65847848  0.49296232  0.65698603
   0.57332555  0.59434730  0.73898629
   0.49201307  0.65821622  0.83040566
   0.42590320  0.74752808  0.92080555
   0.33448172  0.84381604  0.98801576
   0.33835326  0.82793723  0.17724449
   0.26130418  0.91201918  0.25212117
   0.15963457  0.96970867  0.33197662
   0.08110327  0.08002087  0.39733947
   0.00895930  0.17947497  0.49564555
   0.91904200  0.26585713  0.57484290
   0.82457205  0.34975619  0.66895201
   0.75390319  0.41818700  0.74934189
   0.67333270  0.52586907  0.84176698
   0.57843232  0.59555439  0.92289103
   0.50285547  0.65633681  0.01912737
   0.40873273  0.74960998  0.07152641
   0.41212506  0.74695954  0.24422358
   0.33170571  0.82183795  0.33107960
   0.24339047  0.90433014  0.41462389
   0.15369615  0.00526447  0.49244289
   0.08066320  0.07133985  0.56110489
   0.01262842  0.17593887  0.66167013
   0.90955277  0.26804596  0.73294422
   0.82922801  0.33621773  0.83122759
   0.73859280  0.41640337  0.92271067
   0.66219515  0.49857436  0.98988012
   0.57933927  0.57428124  0.08954792
   0.49158403  0.65218762  0.16414205
   0.49816983  0.67797140  0.31943181
   0.42174637  0.74239965  0.41794680
   0.33047102  0.82215564  0.49526719
   0.24985074  0.92256352  0.57389991
   0.16975414  0.01132281  0.65552792
   0.08242398  0.08745431  0.75140985
   0.99396332  0.20257707  0.81157634
   0.91232027  0.25823022  0.91504839
   0.82920897  0.33504548  0.00823132
   0.74699060  0.42255188  0.08161420
   0.66748706  0.50525737  0.17248232
   0.58909573  0.58014512  0.24587884
   0.17360616  0.17637391  0.82930897
   0.09904679  0.26288122  0.91538857
   0.99554091  0.34383982  0.99356136
   0.91445836  0.41247438  0.07036336
   0.83494422  0.49337017  0.17322738
   0.76722814  0.58512806  0.25381552
   0.67168985  0.65998734  0.31893565
   0.58466566  0.74931357  0.41576579
   0.50356010  0.82962004  0.51030502
   0.40859374  0.91683023  0.59738111
   0.32563470  0.01165726  0.66012521
   0.24653662  0.09590608  0.74112357
   0.23839133  0.08376351  0.91301869
   0.17451743  0.17075795  0.99130021
   0.08073595  0.24563690  0.06176564
   0.99901153  0.35108054  0.15867385
   0.92092920  0.41400054  0.24368420
   0.82505970  0.49974054  0.32837023
   0.75018136  0.57166718  0.40830639
   0.65909460  0.65052085  0.49761878
   0.58968573  0.74249425  0.57826429
   0.50614425  0.82584410  0.66294178
   0.41672325  0.90642429  0.74928813
   0.33074834  0.01120554  0.82841632
   0.34415638  0.00721877  0.98841036
   0.24892971  0.06765939  0.07562932
   0.16166326  0.16335929  0.15732225
   0.08925746  0.26840507  0.25370861
   0.99622443  0.34352821  0.33363711
   0.91102308  0.41627719  0.40859674
   0.82771216  0.48551675  0.50058733
   0.76019676  0.58513864  0.59357350
   0.66106118  0.65733888  0.66894951
   0.59579692  0.76135161  0.77414340
   0.48317098  0.83311989  0.82982530
   0.42054372  0.92779744  0.90611435
   0.41120786  0.93505197  0.08914277
   0.32546983  0.01991665  0.18421241
   0.23053883  0.09151414  0.25238904
   0.15643836  0.16546890  0.33385386
   0.07666925  0.25630537  0.41923091
   0.00756378  0.35552321  0.50300188
   0.90347498  0.43028600  0.57456623
   0.83664730  0.48176168  0.67763562
   0.73690725  0.59035167  0.74760001
   0.65053284  0.66359409  0.84903517
   0.56688764  0.75497931  0.92448950
   0.48967547  0.83614447  0.01145487
   0.48031625  0.83811338  0.17209391
   0.41313057  0.92561953  0.26885298
   0.31769867  0.01134840  0.33079663
   0.24021398  0.08683552  0.40372788
   0.15115712  0.16536862  0.47765596
   0.09656184  0.25965397  0.57280528
   0.00240098  0.32985877  0.66800154
   0.92274595  0.41573229  0.73836312
   0.83478323  0.49501978  0.84106144
   0.75584705  0.59362539  0.92292049
   0.66931012  0.68425035  0.01786640
   0.57664939  0.75858478  0.08769124
   0.57789332  0.76442217  0.25153615
   0.50133422  0.83500664  0.33916513
   0.39890959  0.90811696  0.41916165
   0.33050617  0.99649188  0.48433325
   0.24351990  0.08845914  0.55428577
   0.16084266  0.16421489  0.65004297
   0.08791964  0.25002442  0.73037215
   0.00050262  0.32891420  0.82665315
   0.91807184  0.40360067  0.89219340
   0.83561864  0.48783468  0.98979086
   0.76001168  0.58586753  0.08375726
   0.66421050  0.66502959  0.16725697
   0.25440299  0.24456240  0.73037063
   0.18167805  0.34602697  0.82005292
   0.08738535  0.40227686  0.92822060
   0.99870518  0.49473162  0.00057051
   0.90709015  0.57543329  0.07847374
   0.82598553  0.67677005  0.15476934
   0.74781476  0.74280901  0.24185894
   0.65070541  0.82434937  0.31881420
   0.59343374  0.91082076  0.39827054
   0.50226017  0.98416569  0.48237508
   0.42182050  0.06329926  0.56598340
   0.32335847  0.15975083  0.66089627
   0.32142251  0.16825023  0.83435114
   0.24926336  0.25032613  0.92666551
   0.16394709  0.32439887  0.00690453
   0.08688969  0.42805103  0.07936105
   0.00174607  0.50086167  0.15227035
   0.89495202  0.58812533  0.24331036
   0.82154281  0.68218848  0.33615624
   0.75252067  0.74667656  0.40285388
   0.65909793  0.83110605  0.49442265
   0.57352122  0.92269763  0.59306335
   0.48770966  0.00342491  0.67188399
   0.42599820  0.10794899  0.74344163
   0.41368394  0.08600678  0.90093318
   0.33815763  0.15325574  0.00360463
   0.25355038  0.23696968  0.08636785
   0.16868286  0.32809994  0.16212489
   0.07890950  0.43457349  0.24585876
   0.98530244  0.50152911  0.33389787
   0.90739836  0.58856642  0.41146560
   0.83062395  0.65368099  0.47387902
   0.75289531  0.74858899  0.56899259
   0.65943050  0.82146811  0.67478886
   0.57618004  0.90618449  0.74518372
   0.50962845  0.00192147  0.82794255
   0.49948516  0.00611225  0.99210208
   0.41816106  0.08231566  0.09616847
   0.33457685  0.15661010  0.18763909
   0.24011676  0.25989916  0.23830926
   0.15859604  0.34256405  0.33852557
   0.07372282  0.43081577  0.41762909
   0.99058687  0.49708130  0.50546838
   0.89152096  0.57528417  0.59774108
   0.83238618  0.67259412  0.67549149
   0.73400197  0.75015750  0.75663869
   0.66240979  0.84593802  0.84314144
   0.59680248  0.93195817  0.93215876
   0.56697641  0.91771583  0.07994066
   0.50368506  0.98938125  0.17306148
   0.42243547  0.07974392  0.26598345
   0.31626238  0.17883921  0.31797161
   0.23764809  0.26362510  0.40935714
   0.17148883  0.34164266  0.50069831
   0.08397564  0.44013324  0.58817974
   0.97679470  0.50186586  0.68045334
   0.90687153  0.57691814  0.74758244
   0.83643075  0.67224847  0.84268692
   0.75275240  0.74072807  0.92833863
   0.67142021  0.82854961  0.01794632
   0.65061157  0.83331411  0.15499076
   0.58331058  0.93275889  0.24448774
   0.49679838  0.00548090  0.34767029
   0.42506847  0.08167386  0.41405769
   0.33050140  0.16305860  0.47998109
   0.25161815  0.23512154  0.57072305
   0.16244044  0.34029516  0.65249335
   0.07733256  0.42264775  0.75393018
   0.01328345  0.49097213  0.83568795
   0.92058538  0.58351023  0.90741937
   0.83776538  0.67749367  0.00359734
   0.74754830  0.74877975  0.09253606
   0.34592681  0.31873966  0.67396790
   0.26719299  0.41005323  0.74551979
   0.16934889  0.50240879  0.82307692
   0.08569934  0.58372544  0.93476060
   0.99451443  0.66536570  0.01108186
   0.92707731  0.73364557  0.08602404
   0.83557431  0.82657581  0.16832841
   0.76441617  0.89945214  0.24929139
   0.65771631  0.00023996  0.32265867
   0.59302593  0.07897097  0.42715077
   0.50108845  0.17116791  0.51579533
   0.40811385  0.24163161  0.59299249
   0.43307524  0.23211616  0.76543748
   0.33471765  0.32300127  0.84742555
   0.25323125  0.42119051  0.92358998
   0.17266934  0.50115741  0.98597435
   0.07827358  0.57990218  0.06378388
   0.00355682  0.65556655  0.15945687
   0.90889229  0.74834732  0.25739760
   0.84140366  0.82335137  0.33449141
   0.75951772  0.91468274  0.40381700
   0.67520056  0.98708529  0.49166559
   0.58256964  0.07496328  0.58159266
   0.50322378  0.16863959  0.64853193
   0.51276424  0.16232068  0.83666490
   0.42126652  0.24298138  0.91990289
   0.33511554  0.32007506  0.99100204
   0.24193207  0.40976158  0.07757779
   0.17239341  0.50988221  0.15802411
   0.07291559  0.60102018  0.24801777
   0.98599341  0.65174192  0.33251201
   0.92939963  0.74499620  0.41658691
   0.85110783  0.82339727  0.50202694
   0.76813061  0.90694142  0.58416876
   0.65841429  0.98217845  0.66729981
   0.58846541  0.08638946  0.74565589
   0.59514840  0.08350463  0.91839746
   0.50281237  0.14478484  0.99920926
   0.41129605  0.24624301  0.08575469
   0.32571452  0.33788372  0.17350919
   0.24241195  0.42938768  0.24161706
   0.16681834  0.49068003  0.33019720
   0.08405785  0.57263611  0.42740456
   0.98413390  0.65262380  0.50961672
   0.90678521  0.73122887  0.58436964
   0.84356165  0.81096840  0.67763485
   0.75960526  0.91504319  0.73619318
   0.67276471  0.99367331  0.82766965
   0.66624495  0.99855331  0.01810016
   0.58801533  0.08239440  0.09448317
   0.49024252  0.17793192  0.17570411
   0.41650214  0.23831666  0.24653972
   0.33028941  0.32625808  0.33052190
   0.26292652  0.43668087  0.41451159
   0.17102473  0.48855868  0.49803541
   0.07149133  0.57170344  0.58707704
   0.99985132  0.65821130  0.66919305
   0.92135926  0.72798825  0.76092510
   0.83667874  0.83076208  0.83078955
   0.75103620  0.92298689  0.92334173
   0.75884883  0.91152991  0.09222342
   0.67304405  0.98668554  0.15516507
   0.57824418  0.08144952  0.24924943
   0.52173977  0.16426132  0.34550599
   0.42326702  0.23315700  0.41644123
   0.33885020  0.33542461  0.49942403
   0.26874722  0.42202691  0.58564412
   0.17243230  0.49697795  0.67814797
   0.07944107  0.58291150  0.74176557
   0.01832924  0.67472244  0.84592804
   0.92387434  0.75291377  0.91391111
   0.83464358  0.83108026  0.99576842
   0.42033911  0.42075975  0.59324462
   0.34222141  0.51002951  0.65533633
   0.26343036  0.57365495  0.76399800
   0.16560176  0.66490615  0.83600681
   0.09231895  0.76275327  0.91487204
   0.98564803  0.83466705  0.01712835
   0.89855976  0.93815431  0.08151184
   0.83849882  0.99216521  0.16878007
   0.75838574  0.08162519  0.24803272
   0.67833767  0.17481974  0.33381033
   0.59103232  0.23838536  0.43642211
   0.50177995  0.32720193  0.50372088
   0.50829347  0.33404348  0.66717657
   0.41680869  0.41392365  0.74512499
   0.33337304  0.47930242  0.83812091
   0.25846469  0.58324179  0.91960323
   0.17866966  0.67574999  0.99792722
   0.07509559  0.76279711  0.07261090
   0.98965462  0.85448298  0.16278924
   0.91289520  0.92566988  0.24610956
   0.83400590  0.00785123  0.33749465
   0.75456441  0.07452036  0.41762165
   0.67670643  0.16069325  0.51773980
   0.58179148  0.26085656  0.58746995
   0.58839489  0.24212170  0.75346517
   0.49855577  0.32603971  0.83163326
   0.43846703  0.41737563  0.92123209
   0.35181308  0.49139207  0.01191878
   0.25551507  0.58280373  0.06585222
   0.16985700  0.66541139  0.16528606
   0.08555746  0.75336651  0.24949808
   0.99592362  0.83943272  0.33262165
   0.90983253  0.90784394  0.41533860
   0.83736304  0.98795390  0.49755327
   0.75244660  0.07558938  0.60077549
   0.66821969  0.17425631  0.67167056
   0.67356368  0.14891039  0.82502134
   0.58910304  0.24228824  0.89466623
   0.50994517  0.31461906  0.00775298
   0.41191395  0.39790932  0.07488921
   0.33398254  0.49721761  0.17248205
   0.24406670  0.57767246  0.25340221
   0.15394920  0.66550081  0.31993302
   0.08174079  0.75392840  0.41980266
   0.99503986  0.81647866  0.51710191
   0.91735915  0.91434172  0.60364404
   0.84769617  0.00939749  0.66801125
   0.75091510  0.08129910  0.73623608
   0.74210490  0.08607111  0.91806000
   0.66153223  0.17222084  0.00027020
   0.59053398  0.23016027  0.08584485
   0.50614802  0.33960512  0.17223380
   0.40830236  0.40769575  0.26744584
   0.33314171  0.49750702  0.33848342
   0.25136037  0.59391363  0.42088169
   0.15991047  0.65028431  0.51043193
   0.08010987  0.74282429  0.59897900
   0.99829203  0.82598784  0.67299890
   0.90784681  0.92410017  0.74336853
   0.82967775  0.00893042  0.83273575
   0.85275742  0.01216898  0.99499335
   0.75919019  0.09856576  0.08818267
   0.67633942  0.15791625  0.18437672
   0.58428907  0.24594458  0.25800068
   0.52283200  0.33626550  0.34397690
   0.42295752  0.42151170  0.41083033
   0.33016841  0.50481441  0.49980744
   0.24467507  0.58719926  0.58885123
   0.17336449  0.66070887  0.67055980
   0.10700486  0.74817215  0.74416398
   0.99958802  0.83754660  0.81348159
   0.90929194  0.91440887  0.90059311
