 500 500   0   0
  0.1852332E+02  0.2100050E-08  0.2100050E-08  0.2100050E-08  0.5000000E-15
  1.000000000000000E-004
  CAR 
 Li                                      
      3.92035999     -3.31962623  301      0.64284048      1.00000000
     -3.320  0.0000E+00  0.0000E+00
     -3.295  0.0000E+00  0.0000E+00
     -3.271  0.0000E+00  0.0000E+00
     -3.247  0.0000E+00  0.0000E+00
     -3.223  0.0000E+00  0.0000E+00
     -3.199  0.0000E+00  0.0000E+00
     -3.175  0.0000E+00  0.0000E+00
     -3.151  0.1767E-11  0.4263E-13
     -3.127  0.5833E-08  0.1408E-09
     -3.102  0.5425E-05  0.1311E-06
     -3.078  0.1436E-02  0.3478E-04
     -3.054  0.1097E+00  0.2682E-02
     -3.030  0.2469E+01  0.6227E-01
     -3.006  0.1679E+02  0.4674E+00
     -2.982  0.3528E+02  0.1319E+01
     -2.958  0.2320E+02  0.1879E+01
     -2.933  0.5207E+01  0.2004E+01
     -2.909  0.8280E+01  0.2204E+01
     -2.885  0.4551E+02  0.3302E+01
     -2.861  0.9409E+02  0.5573E+01
     -2.837  0.7488E+02  0.7380E+01
     -2.813  0.2338E+02  0.7944E+01
     -2.789  0.8965E+01  0.8161E+01
     -2.765  0.3911E+02  0.9105E+01
     -2.740  0.8971E+02  0.1127E+02
     -2.716  0.8127E+02  0.1323E+02
     -2.692  0.2868E+02  0.1392E+02
     -2.668  0.1130E+02  0.1420E+02
     -2.644  0.4747E+02  0.1534E+02
     -2.620  0.1110E+03  0.1802E+02
     -2.596  0.1104E+03  0.2068E+02
     -2.571  0.4712E+02  0.2182E+02
     -2.547  0.1814E+02  0.2226E+02
     -2.523  0.6273E+02  0.2377E+02
     -2.499  0.1483E+03  0.2735E+02
     -2.475  0.1638E+03  0.3130E+02
     -2.451  0.8837E+02  0.3344E+02
     -2.427  0.2350E+02  0.3400E+02
     -2.403  0.2350E+02  0.3457E+02
     -2.378  0.7483E+02  0.3638E+02
     -2.354  0.9655E+02  0.3871E+02
     -2.330  0.4597E+02  0.3982E+02
     -2.306  0.1399E+02  0.4015E+02
     -2.282  0.4645E+02  0.4128E+02
     -2.258  0.1307E+03  0.4443E+02
     -2.234  0.1708E+03  0.4855E+02
     -2.209  0.1098E+03  0.5120E+02
     -2.185  0.4319E+02  0.5224E+02
     -2.161  0.7352E+02  0.5402E+02
     -2.137  0.1702E+03  0.5813E+02
     -2.113  0.2199E+03  0.6343E+02
     -2.089  0.1746E+03  0.6765E+02
     -2.065  0.8046E+02  0.6959E+02
     -2.041  0.2884E+02  0.7029E+02
     -2.016  0.5430E+02  0.7160E+02
     -1.992  0.9113E+02  0.7379E+02
     -1.968  0.6773E+02  0.7543E+02
     -1.944  0.2448E+02  0.7602E+02
     -1.920  0.3487E+02  0.7686E+02
     -1.896  0.1209E+03  0.7978E+02
     -1.872  0.1991E+03  0.8459E+02
     -1.847  0.1582E+03  0.8840E+02
     -1.823  0.6291E+02  0.8992E+02
     -1.799  0.4992E+02  0.9113E+02
     -1.775  0.1318E+03  0.9431E+02
     -1.751  0.2174E+03  0.9955E+02
     -1.727  0.2111E+03  0.1046E+03
     -1.703  0.1110E+03  0.1073E+03
     -1.679  0.3764E+02  0.1082E+03
     -1.654  0.6120E+02  0.1097E+03
     -1.630  0.1375E+03  0.1130E+03
     -1.606  0.1654E+03  0.1170E+03
     -1.582  0.1006E+03  0.1195E+03
     -1.558  0.5890E+02  0.1209E+03
     -1.534  0.1267E+03  0.1239E+03
     -1.510  0.2071E+03  0.1289E+03
     -1.485  0.2051E+03  0.1339E+03
     -1.461  0.1281E+03  0.1370E+03
     -1.437  0.5860E+02  0.1384E+03
     -1.413  0.9942E+02  0.1408E+03
     -1.389  0.1956E+03  0.1455E+03
     -1.365  0.2168E+03  0.1507E+03
     -1.341  0.1499E+03  0.1544E+03
     -1.317  0.6786E+02  0.1560E+03
     -1.292  0.6399E+02  0.1575E+03
     -1.268  0.1258E+03  0.1606E+03
     -1.244  0.1581E+03  0.1644E+03
     -1.220  0.1117E+03  0.1671E+03
     -1.196  0.5606E+02  0.1684E+03
     -1.172  0.8422E+02  0.1705E+03
     -1.148  0.1315E+03  0.1736E+03
     -1.123  0.1286E+03  0.1767E+03
     -1.099  0.9492E+02  0.1790E+03
     -1.075  0.7503E+02  0.1808E+03
     -1.051  0.1425E+03  0.1843E+03
     -1.027  0.2545E+03  0.1904E+03
     -1.003  0.3157E+03  0.1980E+03
     -0.979  0.2803E+03  0.2048E+03
     -0.955  0.1728E+03  0.2090E+03
     -0.930  0.1145E+03  0.2117E+03
     -0.906  0.1689E+03  0.2158E+03
     -0.882  0.2101E+03  0.2209E+03
     -0.858  0.1766E+03  0.2252E+03
     -0.834  0.1043E+03  0.2277E+03
     -0.810  0.6595E+02  0.2293E+03
     -0.786  0.9296E+02  0.2315E+03
     -0.761  0.1557E+03  0.2353E+03
     -0.737  0.1775E+03  0.2395E+03
     -0.713  0.1516E+03  0.2432E+03
     -0.689  0.1774E+03  0.2475E+03
     -0.665  0.2131E+03  0.2526E+03
     -0.641  0.2223E+03  0.2580E+03
     -0.617  0.1990E+03  0.2628E+03
     -0.593  0.1070E+03  0.2654E+03
     -0.568  0.4100E+02  0.2664E+03
     -0.544  0.6186E+02  0.2679E+03
     -0.520  0.9274E+02  0.2701E+03
     -0.496  0.6841E+02  0.2717E+03
     -0.472  0.6738E+02  0.2734E+03
     -0.448  0.1551E+03  0.2771E+03
     -0.424  0.2429E+03  0.2830E+03
     -0.399  0.2752E+03  0.2896E+03
     -0.375  0.2830E+03  0.2964E+03
     -0.351  0.2672E+03  0.3029E+03
     -0.327  0.2178E+03  0.3082E+03
     -0.303  0.1913E+03  0.3128E+03
     -0.279  0.2195E+03  0.3181E+03
     -0.255  0.2538E+03  0.3242E+03
     -0.231  0.2476E+03  0.3302E+03
     -0.206  0.1802E+03  0.3345E+03
     -0.182  0.1093E+03  0.3372E+03
     -0.158  0.9659E+02  0.3395E+03
     -0.134  0.1364E+03  0.3428E+03
     -0.110  0.1634E+03  0.3467E+03
     -0.086  0.1802E+03  0.3511E+03
     -0.062  0.1779E+03  0.3554E+03
     -0.037  0.1624E+03  0.3593E+03
     -0.013  0.1705E+03  0.3634E+03
      0.011  0.1697E+03  0.3675E+03
      0.035  0.1787E+03  0.3718E+03
      0.059  0.2257E+03  0.3773E+03
      0.083  0.2619E+03  0.3836E+03
      0.107  0.2695E+03  0.3901E+03
      0.131  0.2363E+03  0.3958E+03
      0.156  0.2044E+03  0.4007E+03
      0.180  0.2090E+03  0.4058E+03
      0.204  0.1987E+03  0.4105E+03
      0.228  0.1556E+03  0.4143E+03
      0.252  0.1127E+03  0.4170E+03
      0.276  0.1421E+03  0.4205E+03
      0.300  0.2067E+03  0.4254E+03
      0.325  0.2463E+03  0.4314E+03
      0.349  0.2466E+03  0.4373E+03
      0.373  0.2239E+03  0.4427E+03
      0.397  0.1980E+03  0.4475E+03
      0.421  0.1875E+03  0.4520E+03
      0.445  0.2005E+03  0.4569E+03
      0.469  0.2163E+03  0.4621E+03
      0.493  0.2147E+03  0.4673E+03
      0.518  0.2073E+03  0.4723E+03
      0.542  0.2135E+03  0.4774E+03
      0.566  0.2234E+03  0.4828E+03
      0.590  0.2248E+03  0.4883E+03
      0.614  0.2237E+03  0.4937E+03
      0.638  0.2205E+03  0.4990E+03
      0.662  0.2280E+03  0.5045E+03
      0.686  0.2446E+03  0.5104E+03
      0.711  0.2495E+03  0.5164E+03
      0.735  0.2307E+03  0.5220E+03
      0.759  0.2280E+03  0.5275E+03
      0.783  0.2534E+03  0.5336E+03
      0.807  0.2699E+03  0.5401E+03
      0.831  0.2790E+03  0.5468E+03
      0.855  0.2938E+03  0.5539E+03
      0.880  0.3057E+03  0.5613E+03
      0.904  0.2925E+03  0.5684E+03
      0.928  0.2668E+03  0.5748E+03
      0.952  0.2483E+03  0.5808E+03
      0.976  0.2327E+03  0.5864E+03
      1.000  0.2259E+03  0.5919E+03
      1.024  0.2288E+03  0.5974E+03
      1.048  0.2243E+03  0.6028E+03
      1.073  0.1967E+03  0.6075E+03
      1.097  0.1687E+03  0.6116E+03
      1.121  0.1504E+03  0.6152E+03
      1.145  0.1374E+03  0.6186E+03
      1.169  0.1474E+03  0.6221E+03
      1.193  0.1673E+03  0.6261E+03
      1.217  0.1844E+03  0.6306E+03
      1.242  0.1849E+03  0.6351E+03
      1.266  0.1892E+03  0.6396E+03
      1.290  0.2111E+03  0.6447E+03
      1.314  0.2243E+03  0.6501E+03
      1.338  0.2297E+03  0.6557E+03
      1.362  0.2397E+03  0.6615E+03
      1.386  0.2447E+03  0.6674E+03
      1.410  0.2425E+03  0.6732E+03
      1.435  0.2375E+03  0.6789E+03
      1.459  0.2373E+03  0.6847E+03
      1.483  0.2360E+03  0.6904E+03
      1.507  0.2395E+03  0.6961E+03
      1.531  0.2393E+03  0.7019E+03
      1.555  0.2303E+03  0.7075E+03
      1.579  0.2113E+03  0.7126E+03
      1.604  0.1879E+03  0.7171E+03
      1.628  0.1799E+03  0.7215E+03
      1.652  0.1928E+03  0.7261E+03
      1.676  0.2056E+03  0.7311E+03
      1.700  0.2023E+03  0.7360E+03
      1.724  0.1983E+03  0.7407E+03
      1.748  0.2027E+03  0.7456E+03
      1.772  0.2099E+03  0.7507E+03
      1.797  0.2089E+03  0.7557E+03
      1.821  0.1976E+03  0.7605E+03
      1.845  0.1786E+03  0.7648E+03
      1.869  0.1576E+03  0.7686E+03
      1.893  0.1506E+03  0.7722E+03
      1.917  0.1508E+03  0.7759E+03
      1.941  0.1494E+03  0.7795E+03
      1.966  0.1465E+03  0.7830E+03
      1.990  0.1410E+03  0.7864E+03
      2.014  0.1378E+03  0.7898E+03
      2.038  0.1428E+03  0.7932E+03
      2.062  0.1486E+03  0.7968E+03
      2.086  0.1581E+03  0.8006E+03
      2.110  0.1700E+03  0.8047E+03
      2.134  0.1742E+03  0.8089E+03
      2.159  0.1770E+03  0.8132E+03
      2.183  0.1853E+03  0.8177E+03
      2.207  0.2034E+03  0.8226E+03
      2.231  0.2206E+03  0.8279E+03
      2.255  0.2220E+03  0.8332E+03
      2.279  0.2102E+03  0.8383E+03
      2.303  0.1951E+03  0.8430E+03
      2.328  0.1799E+03  0.8474E+03
      2.352  0.1694E+03  0.8515E+03
      2.376  0.1676E+03  0.8555E+03
      2.400  0.1654E+03  0.8595E+03
      2.424  0.1511E+03  0.8631E+03
      2.448  0.1202E+03  0.8660E+03
      2.472  0.1067E+03  0.8686E+03
      2.496  0.1180E+03  0.8715E+03
      2.521  0.1371E+03  0.8748E+03
      2.545  0.1525E+03  0.8785E+03
      2.569  0.1602E+03  0.8823E+03
      2.593  0.1650E+03  0.8863E+03
      2.617  0.1626E+03  0.8902E+03
      2.641  0.1525E+03  0.8939E+03
      2.665  0.1448E+03  0.8974E+03
      2.690  0.1403E+03  0.9008E+03
      2.714  0.1342E+03  0.9040E+03
      2.738  0.1237E+03  0.9070E+03
      2.762  0.1119E+03  0.9097E+03
      2.786  0.1088E+03  0.9123E+03
      2.810  0.1202E+03  0.9152E+03
      2.834  0.1409E+03  0.9186E+03
      2.858  0.1504E+03  0.9223E+03
      2.883  0.1429E+03  0.9257E+03
      2.907  0.1463E+03  0.9292E+03
      2.931  0.1581E+03  0.9331E+03
      2.955  0.1558E+03  0.9368E+03
      2.979  0.1383E+03  0.9402E+03
      3.003  0.1228E+03  0.9431E+03
      3.027  0.1060E+03  0.9457E+03
      3.052  0.9775E+02  0.9480E+03
      3.076  0.1204E+03  0.9509E+03
      3.100  0.1365E+03  0.9542E+03
      3.124  0.1354E+03  0.9575E+03
      3.148  0.1445E+03  0.9610E+03
      3.172  0.1421E+03  0.9644E+03
      3.196  0.1352E+03  0.9677E+03
      3.220  0.1352E+03  0.9709E+03
      3.245  0.1368E+03  0.9742E+03
      3.269  0.1438E+03  0.9777E+03
      3.293  0.1364E+03  0.9810E+03
      3.317  0.1189E+03  0.9839E+03
      3.341  0.9317E+02  0.9861E+03
      3.365  0.5525E+02  0.9875E+03
      3.389  0.1930E+02  0.9879E+03
      3.414  0.6242E+01  0.9881E+03
      3.438  0.2016E+02  0.9886E+03
      3.462  0.5215E+02  0.9898E+03
      3.486  0.7884E+02  0.9917E+03
      3.510  0.9710E+02  0.9941E+03
      3.534  0.1059E+03  0.9966E+03
      3.558  0.1001E+03  0.9990E+03
      3.582  0.7424E+02  0.1001E+04
      3.607  0.3741E+02  0.1002E+04
      3.631  0.9851E+01  0.1002E+04
      3.655  0.1043E+01  0.1002E+04
      3.679  0.3808E-01  0.1002E+04
      3.703  0.4424E-03  0.1002E+04
      3.727  0.1554E-05  0.1002E+04
      3.751  0.1600E-08  0.1002E+04
      3.776  0.4738E-12  0.1002E+04
      3.800  0.0000E+00  0.1002E+04
      3.824  0.0000E+00  0.1002E+04
      3.848  0.0000E+00  0.1002E+04
      3.872  0.0000E+00  0.1002E+04
      3.896  0.0000E+00  0.1002E+04
      3.920  0.0000E+00  0.1002E+04
