 running on   64 total cores
 distrk:  each k-point on   32 cores,    2 groups
 distr:  one band on   32 cores,    1 groups
 vasp.6.2.1 16May21 (build Nov 23 2021 15:40:41) complex                        
  
 POSCAR found type information on POSCAR Li
 POSCAR found :  1 types and     500 ions
 scaLAPACK will be used
 -----------------------------------------------------------------------------
|                                                                             |
|           W    W    AA    RRRRR   N    N  II  N    N   GGGG   !!!           |
|           W    W   A  A   R    R  NN   N  II  NN   N  G    G  !!!           |
|           W    W  A    A  R    R  N N  N  II  N N  N  G       !!!           |
|           W WW W  AAAAAA  RRRRR   N  N N  II  N  N N  G  GGG   !            |
|           WW  WW  A    A  R   R   N   NN  II  N   NN  G    G                |
|           W    W  A    A  R    R  N    N  II  N    N   GGGG   !!!           |
|                                                                             |
|     For optimal performance we recommend to set                             |
|       NCORE = 2 up to number-of-cores-per-socket                            |
|     NCORE specifies how many cores store one orbital (NPAR=cpu/NCORE).      |
|     This setting can greatly improve the performance of VASP for DFT.       |
|     The default, NCORE=1 might be grossly inefficient on modern             |
|     multi-core architectures or massively parallel machines. Do your        |
|     own testing! More info at https://www.vasp.at/wiki/index.php/NCORE      |
|     Unfortunately you need to use the default for GW and RPA                |
|     calculations (for HF NCORE is supported but not extensively tested      |
|     yet).                                                                   |
|                                                                             |
 -----------------------------------------------------------------------------

 -----------------------------------------------------------------------------
|                                                                             |
|               ----> ADVICE to this user running VASP <----                  |
|                                                                             |
|     You have a (more or less) 'large supercell' and for larger cells it     |
|     might be more efficient to use real-space projection operators.         |
|     Therefore, try LREAL= Auto in the INCAR file.                           |
|     Mind: If you want to do very accurate calculations, keep the            |
|     reciprocal projection scheme (i.e. LREAL=.FALSE.).                      |
|                                                                             |
 -----------------------------------------------------------------------------

 LDA part: xc-table for Pade appr. of Perdew
 POSCAR found type information on POSCAR Li
 POSCAR found :  1 types and     500 ions
 POSCAR, INCAR and KPOINTS ok, starting setup
 FFT: planning ...
 WAVECAR not read
 entering main loop
       N       E                     dE             d eps       ncg     rms          rms(c)
DAV:   1    -0.243888529434E+03   -0.24389E+03   -0.12455E+05  4008   0.665E+02
DAV:   2    -0.873041308459E+03   -0.62915E+03   -0.57578E+03  4596   0.702E+01
DAV:   3    -0.917503992846E+03   -0.44463E+02   -0.40433E+02  5152   0.147E+01
DAV:   4    -0.918984021710E+03   -0.14800E+01   -0.14571E+01  4704   0.292E+00
DAV:   5    -0.919018247173E+03   -0.34225E-01   -0.34166E-01  4832   0.468E-01    0.101E+01
DAV:   6    -0.922248478165E+03   -0.32302E+01   -0.13657E+01  4704   0.609E+00    0.101E+01
DAV:   7    -0.906992422648E+03    0.15256E+02   -0.12039E+01  4864   0.528E+00    0.507E+00
DAV:   8    -0.904453293897E+03    0.25391E+01   -0.57426E+00  4608   0.252E+00    0.280E+00
DAV:   9    -0.903953625231E+03    0.49967E+00   -0.30190E+00  4480   0.147E+00    0.158E+00
DAV:  10    -0.903999364949E+03   -0.45740E-01   -0.73360E-01  4752   0.920E-01    0.146E+00
DAV:  11    -0.903779618132E+03    0.21975E+00   -0.31495E-01  4616   0.580E-01    0.629E-01
DAV:  12    -0.903782066831E+03   -0.24487E-02   -0.88235E-02  4600   0.285E-01    0.436E-01
DAV:  13    -0.903769948618E+03    0.12118E-01   -0.45089E-02  4568   0.227E-01    0.268E-01
DAV:  14    -0.903765364398E+03    0.45842E-02   -0.10545E-02  4528   0.116E-01    0.140E-01
DAV:  15    -0.903764831505E+03    0.53289E-03   -0.33871E-03  4544   0.642E-02    0.852E-02
DAV:  16    -0.903764409613E+03    0.42189E-03   -0.15422E-03  4608   0.462E-02    0.578E-02
DAV:  17    -0.903764103351E+03    0.30626E-03   -0.60723E-04  4496   0.248E-02    0.219E-02
DAV:  18    -0.903764099098E+03    0.42531E-05   -0.18224E-04  4608   0.139E-02    0.175E-02
DAV:  19    -0.903764069819E+03    0.29279E-04   -0.78392E-05  4600   0.991E-03    0.108E-02
DAV:  20    -0.903764052233E+03    0.17586E-04   -0.20391E-05  3088   0.515E-03    0.532E-03
DAV:  21    -0.903764044170E+03    0.80631E-05   -0.96718E-06  2160   0.291E-03
   1 F= -.90376404E+03 E0= -.90371373E+03  d E =-.100633E+00
