Li                                      
           1
    21.000500    0.000000    0.000000
     0.000000   21.000500    0.000000
     0.000000    0.000000   21.000500
   Li
   500
Direct configuration=     1
   0.00824453  0.02643522  0.03613708
   0.98850524  0.10543955  0.11585054
   0.99815930  0.18331735  0.22428923
   0.98138110  0.27330164  0.30780018
   0.98787196  0.39350673  0.39851113
   0.97236855  0.49154890  0.49732482
   0.99682161  0.60907346  0.58331696
   0.98503089  0.68090370  0.69018370
   0.98492467  0.80443349  0.78486627
   0.99003279  0.91507267  0.91490035
   0.10470341  0.01605663  0.13402235
   0.10599305  0.10638058  0.20615673
   0.10286393  0.18993417  0.31406436
   0.11085413  0.29311775  0.40271958
   0.09940561  0.39788057  0.49043727
   0.09395467  0.50486412  0.59971186
   0.08805015  0.59849205  0.69016268
   0.09157815  0.70151619  0.77338445
   0.08573058  0.81083603  0.88378691
   0.10017269  0.92079957  0.01918387
   0.22478050  0.00239505  0.19470851
   0.20829406  0.08370768  0.30397585
   0.19276245  0.18608343  0.39541419
   0.21841877  0.28017373  0.50296631
   0.20477603  0.37837585  0.58936967
   0.19930715  0.48254444  0.68443688
   0.19939830  0.59546879  0.78591704
   0.19367109  0.69139421  0.90500433
   0.17986793  0.81260369  0.99386404
   0.19750786  0.93622990  0.10783998
   0.30362221  0.98738570  0.30165489
   0.32626805  0.09231357  0.37750198
   0.30416673  0.19255664  0.49788073
   0.30938806  0.30525911  0.60464369
   0.29326797  0.40223868  0.69188693
   0.29752087  0.49858660  0.79489258
   0.29007546  0.58142460  0.89625088
   0.28864344  0.69214277  0.99133844
   0.28196121  0.81366967  0.09157792
   0.30719030  0.90090366  0.18704260
   0.40253495  0.00406604  0.40606490
   0.39457712  0.11969108  0.49317140
   0.41135696  0.21524797  0.62074807
   0.43341892  0.30798163  0.71682873
   0.40378461  0.41449834  0.78884249
   0.39415570  0.50332178  0.89173919
   0.39256546  0.62940104  0.00288053
   0.38795495  0.70615045  0.10877804
   0.40027746  0.78656598  0.20272114
   0.39676734  0.92119809  0.28806813
   0.48730082  0.01200426  0.50073626
   0.47370191  0.10263039  0.60492079
   0.49326820  0.21396557  0.70628116
   0.51597388  0.29827628  0.82645457
   0.51549241  0.42928914  0.90018616
   0.48317860  0.52859073  0.99522196
   0.50797698  0.60007596  0.08776982
   0.49441488  0.70180658  0.20640708
   0.48276445  0.81004654  0.29869283
   0.50717410  0.89937667  0.40721653
   0.57985203  0.99111518  0.61962062
   0.58858602  0.10356514  0.71014331
   0.59096929  0.20273326  0.81932017
   0.63106751  0.30427119  0.92942985
   0.61349733  0.41622850  0.00733975
   0.61343257  0.51391639  0.09250448
   0.58232161  0.57704680  0.19742625
   0.57592314  0.70696820  0.29242689
   0.59632777  0.79355082  0.39036937
   0.58575842  0.91765128  0.50443682
   0.69585882  0.00480972  0.70719527
   0.70871710  0.11603504  0.81519642
   0.71446978  0.20964253  0.92064150
   0.72116022  0.31589849  0.03427711
   0.71428335  0.42569676  0.12812534
   0.70159861  0.49323877  0.20873386
   0.70567453  0.61605447  0.29587094
   0.66837222  0.70080880  0.39711167
   0.68492342  0.81575329  0.49889936
   0.69548648  0.91043627  0.62191958
   0.80316750  0.01989564  0.80773180
   0.79635375  0.12657251  0.91675134
   0.80810120  0.18432309  0.04353626
   0.80847169  0.33088628  0.12836725
   0.80217055  0.39679496  0.21634663
   0.81838310  0.50830803  0.29876096
   0.78940939  0.63368848  0.39375978
   0.77371314  0.72198670  0.50129506
   0.79130524  0.81082698  0.60648021
   0.82724178  0.91256163  0.71147320
   0.90154573  0.00885640  0.90773538
   0.90260385  0.07760017  0.01600039
   0.88824824  0.18288053  0.12322672
   0.91181133  0.29373917  0.21534513
   0.90190751  0.36756326  0.30234726
   0.90499550  0.49378665  0.37084031
   0.88979533  0.60974826  0.49168661
   0.87874520  0.71066711  0.58989359
   0.90959401  0.82427948  0.70702778
   0.89318191  0.91415510  0.79541024
   0.10385598  0.11597909  0.03216945
   0.09981200  0.19823360  0.10945708
   0.09617039  0.29493673  0.21407889
   0.08491090  0.37818365  0.31309600
   0.09770684  0.50628487  0.39529312
   0.08977160  0.61114195  0.47932613
   0.08702652  0.71446319  0.60689444
   0.10012591  0.79236176  0.69201770
   0.10295226  0.89823874  0.81659047
   0.09659535  0.99444028  0.92122963
   0.21415315  0.09939541  0.11687763
   0.19643263  0.19440003  0.22039200
   0.19094136  0.29607354  0.31387053
   0.19973195  0.40048548  0.38363615
   0.20424037  0.49784783  0.49620470
   0.18643948  0.61395400  0.60477860
   0.19040995  0.69440548  0.68116756
   0.18101454  0.78756816  0.79579457
   0.20188326  0.89958146  0.92227340
   0.20197360  0.01473052  0.01187030
   0.30435309  0.11566120  0.21142414
   0.29377933  0.21894386  0.31227716
   0.30142293  0.29005853  0.38799473
   0.30198682  0.37321147  0.48005144
   0.29961453  0.47494167  0.58211645
   0.29109498  0.59451664  0.70483616
   0.29895391  0.68775626  0.78172151
   0.29337394  0.79481930  0.88717306
   0.29274300  0.92762276  0.99785159
   0.30924048  0.02006190  0.09760654
   0.41316813  0.11780360  0.29273751
   0.40909314  0.21539480  0.38917651
   0.40530091  0.28011725  0.49111907
   0.40974282  0.37900231  0.60672650
   0.39289619  0.47780422  0.68797766
   0.39638586  0.59178885  0.79525353
   0.39099764  0.68817841  0.88248120
   0.38444945  0.79524376  0.98503056
   0.41286624  0.90000554  0.08079778
   0.40325054  0.02220295  0.18153425
   0.50211062  0.11473969  0.40272142
   0.51649601  0.19726162  0.51446149
   0.51240365  0.29429413  0.60421781
   0.53620718  0.39206454  0.72477591
   0.51056187  0.50486771  0.80779366
   0.52119172  0.60729728  0.89433688
   0.49445663  0.71035948  0.99566411
   0.48350765  0.80354574  0.10019282
   0.49922444  0.89294236  0.19441602
   0.49137950  0.02482994  0.29839209
   0.59721847  0.09671767  0.51624069
   0.60483524  0.19341412  0.61562048
   0.59715180  0.29349653  0.70066058
   0.63840761  0.39602271  0.81553837
   0.63096826  0.51519180  0.89214531
   0.62674016  0.59906654  0.99357360
   0.59534512  0.69677120  0.09455993
   0.57308580  0.79758974  0.18908954
   0.58415505  0.90757401  0.29271910
   0.58926331  0.01305436  0.37701154
   0.69731902  0.08119598  0.61293705
   0.69766050  0.21083958  0.70320609
   0.69753830  0.30887257  0.78532617
   0.72232685  0.41179562  0.91802837
   0.72351354  0.50265733  0.00293767
   0.70503454  0.60352776  0.10723765
   0.68055994  0.69907849  0.19853456
   0.68140594  0.80172897  0.29761392
   0.67060928  0.91330252  0.39573022
   0.67875419  0.01348763  0.50543131
   0.79091277  0.08412455  0.71620918
   0.80627538  0.21952096  0.79717913
   0.81870927  0.28516125  0.91440157
   0.80423931  0.39080552  0.02582990
   0.80880518  0.50051088  0.10750615
   0.80618897  0.60301982  0.18171653
   0.78811495  0.71250952  0.28825721
   0.78484667  0.81346363  0.39726649
   0.79899155  0.91084146  0.50028889
   0.81298606  0.99337105  0.59097465
   0.90902075  0.11209851  0.80158619
   0.90376263  0.19434242  0.92842140
   0.88938149  0.28860890  0.01100195
   0.91338273  0.41429870  0.10866265
   0.90345008  0.50261619  0.21565954
   0.90346074  0.60073955  0.28318306
   0.86814656  0.70912534  0.39576598
   0.89439907  0.81848650  0.50110055
   0.91802956  0.90529600  0.59009817
   0.91032235  0.99728069  0.69839843
   0.00188844  0.10490621  0.89946127
   0.01946225  0.18546929  0.00816648
   0.99798892  0.28666929  0.10402633
   0.01539788  0.38816068  0.20930860
   0.98156785  0.50643147  0.29889764
   0.98956178  0.61717988  0.41173642
   0.98772404  0.71050486  0.50491075
   0.99331443  0.79133469  0.60544978
   0.00520866  0.90057805  0.70253109
   0.00170522  0.00866361  0.78362765
   0.20783211  0.19951999  0.00279925
   0.20110371  0.28775723  0.09735189
   0.18207908  0.39348399  0.21884223
   0.17930861  0.49781577  0.29833929
   0.20956570  0.59694133  0.39284395
   0.20151226  0.69913547  0.51174431
   0.19018952  0.80051573  0.58695074
   0.19520732  0.89093279  0.69432209
   0.19701558  0.98507925  0.81072259
   0.18189840  0.10417554  0.88601433
   0.29522301  0.19798609  0.08689808
   0.28839337  0.29902746  0.18844320
   0.31373352  0.37477109  0.28705619
   0.31402763  0.48220184  0.38386826
   0.29757819  0.59248812  0.49992783
   0.28861268  0.70599638  0.60133878
   0.27833911  0.78423076  0.68802530
   0.28590864  0.88670958  0.80505578
   0.29026469  0.00791891  0.89948561
   0.30869613  0.11470546  0.98125059
   0.39708287  0.20851990  0.18177807
   0.41279078  0.29152772  0.27432380
   0.40418251  0.38555720  0.38352216
   0.39407474  0.47444106  0.50384708
   0.40695464  0.60122288  0.59039944
   0.39623032  0.70048377  0.69861068
   0.40206638  0.79071340  0.79308296
   0.38227526  0.89265839  0.91253212
   0.40681345  0.00337625  0.00547129
   0.37265210  0.12570920  0.08295040
   0.48410500  0.19355504  0.27423324
   0.52493397  0.28968453  0.39595718
   0.50078567  0.39389560  0.51094885
   0.49796414  0.49459437  0.60647068
   0.49012772  0.57485155  0.70670745
   0.50307607  0.67941997  0.78465514
   0.48674267  0.79886510  0.89161420
   0.51287271  0.88930542  0.98355092
   0.50137937  0.00547075  0.09820602
   0.50994505  0.10481295  0.18370417
   0.58584180  0.20410685  0.40215000
   0.61929775  0.30164067  0.51885432
   0.61362880  0.39273801  0.60385982
   0.61864911  0.49953443  0.68781197
   0.60715913  0.59697995  0.78514202
   0.59990758  0.69547186  0.87378837
   0.59407441  0.81070917  0.99901801
   0.61936546  0.90710542  0.09618615
   0.61286332  0.99378236  0.19617242
   0.59173942  0.11233771  0.28067410
   0.69174699  0.18493774  0.52071978
   0.70606000  0.28469132  0.61079773
   0.70314682  0.40751824  0.69687089
   0.70878198  0.50443525  0.79987942
   0.70435756  0.60797140  0.87827605
   0.69747378  0.70873623  0.98975417
   0.70178888  0.78688746  0.08549378
   0.68761959  0.87941107  0.19174813
   0.69779852  0.00798686  0.29071701
   0.68520161  0.08881630  0.39617995
   0.80539167  0.19239987  0.61180897
   0.79729329  0.29503121  0.71359808
   0.80941738  0.38146177  0.80185562
   0.81187307  0.52671944  0.88875089
   0.80002574  0.61669681  0.98713801
   0.80701685  0.71050236  0.09494855
   0.78945188  0.79919431  0.19839220
   0.78985855  0.91316956  0.30116536
   0.78026691  0.99722103  0.40177391
   0.78359967  0.08183191  0.48272301
   0.90013941  0.19602950  0.69643402
   0.90575701  0.29704657  0.79552359
   0.89048198  0.39927879  0.89610468
   0.89942637  0.51046768  0.98453178
   0.91398438  0.60709539  0.10591934
   0.88243026  0.72523142  0.19111146
   0.90153779  0.82232556  0.29215558
   0.90864011  0.89336788  0.40747218
   0.90897429  0.98651923  0.49060889
   0.89490568  0.09969325  0.60536516
   0.98329547  0.18854020  0.79532369
   0.00112348  0.29896626  0.91927820
   0.98991637  0.39376855  0.98054763
   0.99060096  0.51588092  0.10567757
   0.99492768  0.62669679  0.20972042
   0.99792955  0.70519776  0.30574003
   0.00441274  0.80316460  0.39265455
   0.00503839  0.90408840  0.48128427
   0.01144841  0.00130390  0.59886388
   0.01117417  0.11602349  0.68797869
   0.07760355  0.18963713  0.88733518
   0.10032920  0.29426143  0.98130254
   0.08734768  0.39103373  0.09005413
   0.07956694  0.50922281  0.19355386
   0.08800635  0.59782423  0.30286126
   0.12283766  0.71199954  0.39642497
   0.09145486  0.80378766  0.49677811
   0.08705769  0.89428225  0.60664384
   0.09284253  0.99016339  0.69053858
   0.09119562  0.10645257  0.77963058
   0.30923265  0.29693455  0.99641447
   0.29384053  0.38257964  0.11064626
   0.30783846  0.49574247  0.19624906
   0.29840101  0.59414974  0.29321817
   0.30324645  0.71349283  0.40019681
   0.30122716  0.80475425  0.51420730
   0.30212409  0.89791056  0.60586382
   0.28752413  0.99778206  0.71180449
   0.28530767  0.09056784  0.80329252
   0.29905348  0.18729274  0.89470033
   0.38808725  0.30265153  0.10298689
   0.37898805  0.38634238  0.18431264
   0.40335629  0.49234729  0.28817420
   0.40214722  0.57254811  0.40043257
   0.41545823  0.69826964  0.50899155
   0.39165216  0.80478130  0.60488904
   0.37420150  0.89352252  0.73119043
   0.38750993  0.01004160  0.80069569
   0.39590910  0.08225859  0.91968924
   0.41165517  0.22277718  0.98729854
   0.49487370  0.30884146  0.19503159
   0.49747357  0.39890160  0.29278343
   0.51098292  0.47286872  0.39525012
   0.50941585  0.58230346  0.50149418
   0.50489930  0.67460230  0.60292332
   0.48436730  0.79752821  0.67621863
   0.48595298  0.89890239  0.78685258
   0.49331299  0.98937195  0.90023159
   0.48936581  0.11021777  0.00297769
   0.50276765  0.18571199  0.10249294
   0.60452785  0.29978250  0.27980119
   0.59969419  0.40139281  0.38850809
   0.61657756  0.48718539  0.51292719
   0.58756180  0.59520785  0.59517581
   0.61009719  0.69500608  0.70900073
   0.58963750  0.78976231  0.79810095
   0.60168271  0.89580693  0.88179937
   0.60080874  0.01025028  0.98744573
   0.62154783  0.09285841  0.09785956
   0.60178284  0.21062144  0.20735140
   0.70403825  0.28650243  0.40024621
   0.70690275  0.39518765  0.50491673
   0.71510872  0.49046442  0.60711352
   0.72717933  0.60696769  0.70338033
   0.70624541  0.70535463  0.78675615
   0.70557147  0.80241108  0.89591425
   0.70025811  0.89584486  0.99237040
   0.70731398  0.99816411  0.11191491
   0.70803674  0.09792685  0.20661095
   0.69800302  0.18460428  0.28187406
   0.80154147  0.28849470  0.49562185
   0.79845856  0.39054843  0.60450442
   0.81095731  0.49098518  0.70852273
   0.83135271  0.61882280  0.78442650
   0.80491435  0.71130867  0.88679511
   0.81676957  0.79375956  0.99605438
   0.80563913  0.88848087  0.11174337
   0.79462374  0.98715355  0.19869378
   0.79814663  0.09416540  0.30113975
   0.77265846  0.17739564  0.39913793
   0.89325102  0.28798282  0.57890080
   0.89596369  0.39163404  0.69135634
   0.91472093  0.49026466  0.80044705
   0.94082894  0.59865855  0.89393029
   0.91762484  0.68026561  0.98303752
   0.90257761  0.82545295  0.08140218
   0.89481243  0.90609797  0.19758159
   0.89923671  0.98861124  0.30421633
   0.90268398  0.05808680  0.40246692
   0.90129659  0.15417186  0.48800655
   0.98237231  0.30093820  0.67261332
   0.02639824  0.39127888  0.80915148
   0.01009916  0.48862949  0.89265207
   0.01861795  0.60131183  0.99571556
   0.00703829  0.71733185  0.08815698
   0.00117395  0.79271288  0.18967352
   0.00937035  0.88424843  0.28702956
   0.01577902  0.99004262  0.39800156
   0.98935146  0.08164467  0.49689843
   0.99837263  0.18622766  0.56968838
   0.08738183  0.28790572  0.79945954
   0.11369365  0.38995142  0.88639712
   0.10799718  0.49997326  0.00229949
   0.11458605  0.59690404  0.09422049
   0.10598259  0.68756698  0.19907133
   0.11689000  0.80719193  0.28335702
   0.12090409  0.88772939  0.38404685
   0.09988301  0.00991074  0.49444788
   0.11957197  0.08100784  0.58671166
   0.10416053  0.21413456  0.68875989
   0.19466282  0.26465750  0.88898020
   0.19474123  0.39138330  0.00933118
   0.20380727  0.47919008  0.11130420
   0.18063282  0.60064070  0.20666025
   0.21432116  0.71239282  0.30489210
   0.21333489  0.79310922  0.40721319
   0.17991052  0.89071271  0.51587362
   0.20660950  0.99060496  0.61503487
   0.19917633  0.07131921  0.70939331
   0.18051670  0.20644517  0.78762519
   0.40281720  0.42165457  0.01158692
   0.39118884  0.51467080  0.09741200
   0.41921557  0.59735459  0.20209468
   0.39584588  0.69283349  0.31284777
   0.41645356  0.81152300  0.41570720
   0.41033348  0.91292048  0.50330011
   0.38193700  0.99983870  0.60558903
   0.38997139  0.09475415  0.71580144
   0.40553535  0.20383735  0.82164511
   0.39873423  0.32965313  0.90836476
   0.50721941  0.42863902  0.08667506
   0.51204520  0.48138661  0.19512532
   0.50608171  0.58303435  0.30710925
   0.49888645  0.70560000  0.40433589
   0.50630065  0.80081971  0.50894496
   0.47921099  0.91914275  0.61456986
   0.48190314  0.98846508  0.69968606
   0.47676618  0.08936543  0.81692759
   0.50986808  0.20483742  0.92124386
   0.50052549  0.30647948  0.00843652
   0.60959697  0.42583867  0.21177712
   0.61041653  0.50677303  0.30958825
   0.60236327  0.60176682  0.40087445
   0.58069045  0.70860008  0.51258081
   0.59590783  0.81743396  0.61331190
   0.59292988  0.89157579  0.71418062
   0.59481104  0.02955344  0.79355521
   0.60710135  0.11057946  0.90198938
   0.61474067  0.21197260  0.01737891
   0.60338075  0.31502313  0.11483410
   0.70914322  0.39698553  0.33435300
   0.71996997  0.49477269  0.40325993
   0.70115110  0.59405907  0.52340085
   0.68890362  0.71262050  0.59496693
   0.70847138  0.82782944  0.70698749
   0.70179270  0.91324510  0.79120277
   0.71401912  0.00276205  0.91436361
   0.70871670  0.10660570  0.00379339
   0.71605754  0.19119133  0.12790100
   0.71741992  0.31528620  0.19916773
   0.79466602  0.41407802  0.41091893
   0.80217274  0.51680569  0.51095581
   0.80556638  0.60457148  0.61869176
   0.81285297  0.72482453  0.70079745
   0.80361954  0.81076970  0.80127066
   0.79828023  0.90493650  0.90020057
   0.79961904  0.99669262  0.03073124
   0.79620197  0.07980440  0.11600731
   0.81905271  0.20347951  0.20450944
   0.79963626  0.31134755  0.30880481
   0.87096290  0.41086428  0.47525185
   0.87496019  0.51403615  0.57452337
   0.89744627  0.59512389  0.69523786
   0.90815388  0.71607790  0.79811500
   0.92251312  0.81676424  0.90985652
   0.90667906  0.90202459  0.99716867
   0.89418389  0.99612543  0.12257532
   0.90481691  0.08732268  0.23358861
   0.90089658  0.18844454  0.31767958
   0.90675298  0.27794033  0.40595760
   0.99764021  0.41854921  0.58680700
   0.00005771  0.49335620  0.68380506
   0.98060610  0.59811948  0.78577837
   0.02005593  0.69585728  0.87144462
   0.00782968  0.79809849  0.00254049
   0.01353987  0.89320456  0.10571601
   0.00054821  0.98549106  0.20250010
   0.00879387  0.06585167  0.28375868
   0.00700376  0.17336964  0.41770404
   0.97906797  0.30319663  0.49218375
   0.09646896  0.37970537  0.66680177
   0.08518769  0.51518466  0.76603336
   0.09910524  0.60428273  0.87326752
   0.09324853  0.70481945  0.98926111
   0.12591503  0.80985240  0.11613737
   0.11665440  0.88385043  0.20617453
   0.11438820  0.98555042  0.28341700
   0.11651775  0.08094081  0.39420446
   0.09060041  0.18552253  0.50385590
   0.08968701  0.29465160  0.56996814
   0.19228257  0.40274301  0.79085647
   0.17553018  0.49407787  0.90657454
   0.20080396  0.59773610  0.00580933
   0.18149939  0.69754539  0.09428850
   0.21118786  0.80839783  0.18856011
   0.21747422  0.88646833  0.30153686
   0.20305714  0.99246128  0.41480820
   0.20573230  0.10955897  0.49766118
   0.19704307  0.19124672  0.59544509
   0.19205213  0.31339443  0.70374033
   0.28612695  0.39990308  0.90258607
   0.28444429  0.51347730  0.00283261
   0.27825394  0.60844340  0.09643357
   0.29234244  0.70386513  0.19946677
   0.31355130  0.78974602  0.29577627
   0.29276061  0.88816613  0.41465620
   0.29169288  0.98434697  0.49131288
   0.30364889  0.09837291  0.59756199
   0.30362064  0.20479998  0.70062314
   0.29700666  0.30766032  0.78830485
