 500 500   0   0
  0.2029568E+02  0.2165000E-08  0.2165000E-08  0.2165000E-08  0.5000000E-15
  1.000000000000000E-004
  CAR 
 Li                                      
      3.35148358     -3.43048684  301      0.38628795      1.00000000
     -3.430  0.0000E+00  0.0000E+00
     -3.408  0.0000E+00  0.0000E+00
     -3.385  0.0000E+00  0.0000E+00
     -3.363  0.0000E+00  0.0000E+00
     -3.340  0.0000E+00  0.0000E+00
     -3.317  0.0000E+00  0.0000E+00
     -3.295  0.1842E-13  0.4163E-15
     -3.272  0.6580E-10  0.1488E-11
     -3.250  0.8203E-07  0.1856E-08
     -3.227  0.3373E-04  0.7643E-06
     -3.204  0.4614E-02  0.1051E-03
     -3.182  0.2125E+00  0.4910E-02
     -3.159  0.3348E+01  0.8060E-01
     -3.137  0.1835E+02  0.4955E+00
     -3.114  0.3555E+02  0.1299E+01
     -3.091  0.2453E+02  0.1854E+01
     -3.069  0.7058E+01  0.2013E+01
     -3.046  0.1168E+02  0.2277E+01
     -3.024  0.4574E+02  0.3311E+01
     -3.001  0.8305E+02  0.5189E+01
     -2.978  0.7710E+02  0.6932E+01
     -2.956  0.3835E+02  0.7799E+01
     -2.933  0.1543E+02  0.8148E+01
     -2.911  0.3512E+02  0.8942E+01
     -2.888  0.7383E+02  0.1061E+02
     -2.865  0.7980E+02  0.1241E+02
     -2.843  0.5078E+02  0.1356E+02
     -2.820  0.2184E+02  0.1406E+02
     -2.798  0.3383E+02  0.1482E+02
     -2.775  0.8661E+02  0.1678E+02
     -2.752  0.1141E+03  0.1936E+02
     -2.730  0.8137E+02  0.2120E+02
     -2.707  0.3631E+02  0.2202E+02
     -2.684  0.4161E+02  0.2296E+02
     -2.662  0.9902E+02  0.2520E+02
     -2.639  0.1418E+03  0.2840E+02
     -2.617  0.1306E+03  0.3136E+02
     -2.594  0.8193E+02  0.3321E+02
     -2.571  0.3517E+02  0.3400E+02
     -2.549  0.3540E+02  0.3480E+02
     -2.526  0.7689E+02  0.3654E+02
     -2.504  0.9024E+02  0.3858E+02
     -2.481  0.5153E+02  0.3975E+02
     -2.458  0.2971E+02  0.4042E+02
     -2.436  0.6891E+02  0.4198E+02
     -2.413  0.1298E+03  0.4491E+02
     -2.391  0.1524E+03  0.4836E+02
     -2.368  0.1123E+03  0.5089E+02
     -2.345  0.6004E+02  0.5225E+02
     -2.323  0.7598E+02  0.5397E+02
     -2.300  0.1479E+03  0.5731E+02
     -2.278  0.2008E+03  0.6185E+02
     -2.255  0.1856E+03  0.6605E+02
     -2.232  0.1188E+03  0.6873E+02
     -2.210  0.5467E+02  0.6997E+02
     -2.187  0.4407E+02  0.7097E+02
     -2.165  0.6862E+02  0.7252E+02
     -2.142  0.7589E+02  0.7423E+02
     -2.119  0.5884E+02  0.7556E+02
     -2.097  0.5368E+02  0.7678E+02
     -2.074  0.9755E+02  0.7898E+02
     -2.051  0.1564E+03  0.8252E+02
     -2.029  0.1696E+03  0.8635E+02
     -2.006  0.1160E+03  0.8898E+02
     -1.984  0.6366E+02  0.9041E+02
     -1.961  0.8738E+02  0.9239E+02
     -1.938  0.1632E+03  0.9608E+02
     -1.916  0.2075E+03  0.1008E+03
     -1.893  0.1808E+03  0.1049E+03
     -1.871  0.1088E+03  0.1073E+03
     -1.848  0.6733E+02  0.1088E+03
     -1.825  0.9276E+02  0.1109E+03
     -1.803  0.1321E+03  0.1139E+03
     -1.780  0.1390E+03  0.1171E+03
     -1.758  0.1038E+03  0.1194E+03
     -1.735  0.8675E+02  0.1214E+03
     -1.712  0.1375E+03  0.1245E+03
     -1.690  0.1967E+03  0.1289E+03
     -1.667  0.1997E+03  0.1334E+03
     -1.645  0.1376E+03  0.1366E+03
     -1.622  0.8133E+02  0.1384E+03
     -1.599  0.1052E+03  0.1408E+03
     -1.577  0.1707E+03  0.1446E+03
     -1.554  0.1967E+03  0.1491E+03
     -1.532  0.1691E+03  0.1529E+03
     -1.509  0.1092E+03  0.1554E+03
     -1.486  0.7565E+02  0.1571E+03
     -1.464  0.1023E+03  0.1594E+03
     -1.441  0.1353E+03  0.1624E+03
     -1.419  0.1276E+03  0.1653E+03
     -1.396  0.9705E+02  0.1675E+03
     -1.373  0.9682E+02  0.1697E+03
     -1.351  0.1331E+03  0.1727E+03
     -1.328  0.1497E+03  0.1761E+03
     -1.305  0.1163E+03  0.1787E+03
     -1.283  0.8562E+02  0.1807E+03
     -1.260  0.1324E+03  0.1837E+03
     -1.238  0.2203E+03  0.1886E+03
     -1.215  0.2703E+03  0.1948E+03
     -1.192  0.2731E+03  0.2009E+03
     -1.170  0.2285E+03  0.2061E+03
     -1.147  0.1529E+03  0.2096E+03
     -1.125  0.1251E+03  0.2124E+03
     -1.102  0.1673E+03  0.2162E+03
     -1.079  0.2027E+03  0.2207E+03
     -1.057  0.1778E+03  0.2248E+03
     -1.034  0.1213E+03  0.2275E+03
     -1.012  0.1039E+03  0.2299E+03
     -0.989  0.1382E+03  0.2330E+03
     -0.966  0.1633E+03  0.2367E+03
     -0.944  0.1494E+03  0.2400E+03
     -0.921  0.1372E+03  0.2431E+03
     -0.899  0.1639E+03  0.2469E+03
     -0.876  0.2046E+03  0.2515E+03
     -0.853  0.2251E+03  0.2566E+03
     -0.831  0.2038E+03  0.2612E+03
     -0.808  0.1431E+03  0.2644E+03
     -0.786  0.8817E+02  0.2664E+03
     -0.763  0.8014E+02  0.2682E+03
     -0.740  0.8298E+02  0.2701E+03
     -0.718  0.7553E+02  0.2718E+03
     -0.695  0.1050E+03  0.2742E+03
     -0.672  0.1824E+03  0.2783E+03
     -0.650  0.2422E+03  0.2838E+03
     -0.627  0.2640E+03  0.2897E+03
     -0.605  0.2541E+03  0.2955E+03
     -0.582  0.2264E+03  0.3006E+03
     -0.559  0.2170E+03  0.3055E+03
     -0.537  0.2302E+03  0.3107E+03
     -0.514  0.2423E+03  0.3162E+03
     -0.492  0.2462E+03  0.3218E+03
     -0.469  0.2362E+03  0.3271E+03
     -0.446  0.1989E+03  0.3316E+03
     -0.424  0.1581E+03  0.3352E+03
     -0.401  0.1433E+03  0.3384E+03
     -0.379  0.1485E+03  0.3418E+03
     -0.356  0.1501E+03  0.3452E+03
     -0.333  0.1565E+03  0.3487E+03
     -0.311  0.1805E+03  0.3528E+03
     -0.288  0.1992E+03  0.3573E+03
     -0.266  0.1991E+03  0.3618E+03
     -0.243  0.1840E+03  0.3659E+03
     -0.220  0.1751E+03  0.3699E+03
     -0.198  0.1927E+03  0.3743E+03
     -0.175  0.2315E+03  0.3795E+03
     -0.153  0.2560E+03  0.3853E+03
     -0.130  0.2525E+03  0.3910E+03
     -0.107  0.2295E+03  0.3962E+03
     -0.085  0.2055E+03  0.4008E+03
     -0.062  0.1949E+03  0.4052E+03
     -0.040  0.1895E+03  0.4095E+03
     -0.017  0.1731E+03  0.4134E+03
      0.006  0.1633E+03  0.4171E+03
      0.028  0.1809E+03  0.4212E+03
      0.051  0.2155E+03  0.4261E+03
      0.074  0.2329E+03  0.4313E+03
      0.096  0.2298E+03  0.4365E+03
      0.119  0.2157E+03  0.4414E+03
      0.141  0.2072E+03  0.4461E+03
      0.164  0.2106E+03  0.4509E+03
      0.187  0.2094E+03  0.4556E+03
      0.209  0.2092E+03  0.4603E+03
      0.232  0.2125E+03  0.4651E+03
      0.254  0.2116E+03  0.4699E+03
      0.277  0.2131E+03  0.4747E+03
      0.300  0.2240E+03  0.4798E+03
      0.322  0.2355E+03  0.4851E+03
      0.345  0.2358E+03  0.4904E+03
      0.367  0.2306E+03  0.4957E+03
      0.390  0.2297E+03  0.5009E+03
      0.413  0.2237E+03  0.5059E+03
      0.435  0.2287E+03  0.5111E+03
      0.458  0.2500E+03  0.5167E+03
      0.480  0.2585E+03  0.5226E+03
      0.503  0.2519E+03  0.5283E+03
      0.526  0.2587E+03  0.5341E+03
      0.548  0.2758E+03  0.5404E+03
      0.571  0.2842E+03  0.5468E+03
      0.593  0.2782E+03  0.5531E+03
      0.616  0.2645E+03  0.5590E+03
      0.639  0.2563E+03  0.5648E+03
      0.661  0.2566E+03  0.5706E+03
      0.684  0.2591E+03  0.5765E+03
      0.707  0.2488E+03  0.5821E+03
      0.729  0.2335E+03  0.5874E+03
      0.752  0.2171E+03  0.5923E+03
      0.774  0.1942E+03  0.5967E+03
      0.797  0.1907E+03  0.6010E+03
      0.820  0.2070E+03  0.6057E+03
      0.842  0.2110E+03  0.6105E+03
      0.865  0.2075E+03  0.6152E+03
      0.887  0.2178E+03  0.6201E+03
      0.910  0.2226E+03  0.6251E+03
      0.933  0.2021E+03  0.6297E+03
      0.955  0.1823E+03  0.6338E+03
      0.978  0.1898E+03  0.6381E+03
      1.000  0.2144E+03  0.6429E+03
      1.023  0.2255E+03  0.6480E+03
      1.046  0.2240E+03  0.6531E+03
      1.068  0.2228E+03  0.6581E+03
      1.091  0.2245E+03  0.6632E+03
      1.113  0.2294E+03  0.6684E+03
      1.136  0.2314E+03  0.6736E+03
      1.159  0.2282E+03  0.6788E+03
      1.181  0.2222E+03  0.6838E+03
      1.204  0.2185E+03  0.6888E+03
      1.226  0.2200E+03  0.6937E+03
      1.249  0.2243E+03  0.6988E+03
      1.272  0.2213E+03  0.7038E+03
      1.294  0.2133E+03  0.7086E+03
      1.317  0.2116E+03  0.7134E+03
      1.339  0.2147E+03  0.7183E+03
      1.362  0.2120E+03  0.7231E+03
      1.385  0.2155E+03  0.7279E+03
      1.407  0.2137E+03  0.7328E+03
      1.430  0.1999E+03  0.7373E+03
      1.453  0.1950E+03  0.7417E+03
      1.475  0.2011E+03  0.7462E+03
      1.498  0.2109E+03  0.7510E+03
      1.520  0.2114E+03  0.7558E+03
      1.543  0.1926E+03  0.7601E+03
      1.566  0.1738E+03  0.7641E+03
      1.588  0.1728E+03  0.7680E+03
      1.611  0.1753E+03  0.7719E+03
      1.633  0.1659E+03  0.7757E+03
      1.656  0.1570E+03  0.7792E+03
      1.679  0.1591E+03  0.7828E+03
      1.701  0.1588E+03  0.7864E+03
      1.724  0.1550E+03  0.7899E+03
      1.746  0.1614E+03  0.7936E+03
      1.769  0.1678E+03  0.7974E+03
      1.792  0.1729E+03  0.8013E+03
      1.814  0.1931E+03  0.8056E+03
      1.837  0.1993E+03  0.8101E+03
      1.859  0.1850E+03  0.8143E+03
      1.882  0.1862E+03  0.8185E+03
      1.905  0.1968E+03  0.8230E+03
      1.927  0.1997E+03  0.8275E+03
      1.950  0.1930E+03  0.8319E+03
      1.972  0.1858E+03  0.8361E+03
      1.995  0.1862E+03  0.8403E+03
      2.018  0.1911E+03  0.8446E+03
      2.040  0.1892E+03  0.8489E+03
      2.063  0.1776E+03  0.8529E+03
      2.086  0.1726E+03  0.8568E+03
      2.108  0.1688E+03  0.8606E+03
      2.131  0.1530E+03  0.8641E+03
      2.153  0.1454E+03  0.8673E+03
      2.176  0.1513E+03  0.8708E+03
      2.199  0.1484E+03  0.8741E+03
      2.221  0.1466E+03  0.8774E+03
      2.244  0.1556E+03  0.8809E+03
      2.266  0.1614E+03  0.8846E+03
      2.289  0.1578E+03  0.8882E+03
      2.312  0.1571E+03  0.8917E+03
      2.334  0.1611E+03  0.8954E+03
      2.357  0.1674E+03  0.8991E+03
      2.379  0.1663E+03  0.9029E+03
      2.402  0.1617E+03  0.9066E+03
      2.425  0.1513E+03  0.9100E+03
      2.447  0.1349E+03  0.9130E+03
      2.470  0.1287E+03  0.9159E+03
      2.492  0.1327E+03  0.9189E+03
      2.515  0.1493E+03  0.9223E+03
      2.538  0.1691E+03  0.9261E+03
      2.560  0.1680E+03  0.9299E+03
      2.583  0.1533E+03  0.9334E+03
      2.605  0.1477E+03  0.9367E+03
      2.628  0.1504E+03  0.9401E+03
      2.651  0.1500E+03  0.9435E+03
      2.673  0.1476E+03  0.9469E+03
      2.696  0.1490E+03  0.9502E+03
      2.718  0.1489E+03  0.9536E+03
      2.741  0.1478E+03  0.9569E+03
      2.764  0.1569E+03  0.9605E+03
      2.786  0.1671E+03  0.9643E+03
      2.809  0.1690E+03  0.9681E+03
      2.832  0.1602E+03  0.9717E+03
      2.854  0.1477E+03  0.9750E+03
      2.877  0.1409E+03  0.9782E+03
      2.899  0.1363E+03  0.9813E+03
      2.922  0.1456E+03  0.9846E+03
      2.945  0.1534E+03  0.9881E+03
      2.967  0.1504E+03  0.9915E+03
      2.990  0.1484E+03  0.9948E+03
      3.012  0.1361E+03  0.9979E+03
      3.035  0.1060E+03  0.1000E+04
      3.058  0.5708E+02  0.1002E+04
      3.080  0.1626E+02  0.1002E+04
      3.103  0.2046E+01  0.1002E+04
      3.125  0.1021E+00  0.1002E+04
      3.148  0.1889E-02  0.1002E+04
      3.171  0.1237E-04  0.1002E+04
      3.193  0.2783E-07  0.1002E+04
      3.216  0.2110E-10  0.1002E+04
      3.238  0.4911E-14  0.1002E+04
      3.261  0.0000E+00  0.1002E+04
      3.284  0.0000E+00  0.1002E+04
      3.306  0.0000E+00  0.1002E+04
      3.329  0.0000E+00  0.1002E+04
      3.351  0.0000E+00  0.1002E+04
