 running on   64 total cores
 distrk:  each k-point on   32 cores,    2 groups
 distr:  one band on   32 cores,    1 groups
 vasp.6.2.1 16May21 (build Nov 23 2021 15:40:41) complex                        
  
 POSCAR found type information on POSCAR Li
 POSCAR found :  1 types and     500 ions
 scaLAPACK will be used
 -----------------------------------------------------------------------------
|                                                                             |
|           W    W    AA    RRRRR   N    N  II  N    N   GGGG   !!!           |
|           W    W   A  A   R    R  NN   N  II  NN   N  G    G  !!!           |
|           W    W  A    A  R    R  N N  N  II  N N  N  G       !!!           |
|           W WW W  AAAAAA  RRRRR   N  N N  II  N  N N  G  GGG   !            |
|           WW  WW  A    A  R   R   N   NN  II  N   NN  G    G                |
|           W    W  A    A  R    R  N    N  II  N    N   GGGG   !!!           |
|                                                                             |
|     For optimal performance we recommend to set                             |
|       NCORE = 2 up to number-of-cores-per-socket                            |
|     NCORE specifies how many cores store one orbital (NPAR=cpu/NCORE).      |
|     This setting can greatly improve the performance of VASP for DFT.       |
|     The default, NCORE=1 might be grossly inefficient on modern             |
|     multi-core architectures or massively parallel machines. Do your        |
|     own testing! More info at https://www.vasp.at/wiki/index.php/NCORE      |
|     Unfortunately you need to use the default for GW and RPA                |
|     calculations (for HF NCORE is supported but not extensively tested      |
|     yet).                                                                   |
|                                                                             |
 -----------------------------------------------------------------------------

 -----------------------------------------------------------------------------
|                                                                             |
|               ----> ADVICE to this user running VASP <----                  |
|                                                                             |
|     You have a (more or less) 'large supercell' and for larger cells it     |
|     might be more efficient to use real-space projection operators.         |
|     Therefore, try LREAL= Auto in the INCAR file.                           |
|     Mind: If you want to do very accurate calculations, keep the            |
|     reciprocal projection scheme (i.e. LREAL=.FALSE.).                      |
|                                                                             |
 -----------------------------------------------------------------------------

 LDA part: xc-table for Pade appr. of Perdew
 POSCAR found type information on POSCAR Li
 POSCAR found :  1 types and     500 ions
 POSCAR, INCAR and KPOINTS ok, starting setup
 FFT: planning ...
 WAVECAR not read
 entering main loop
       N       E                     dE             d eps       ncg     rms          rms(c)
DAV:   1    -0.250969282488E+03   -0.25097E+03   -0.12141E+05  4008   0.656E+02
DAV:   2    -0.860936876528E+03   -0.60997E+03   -0.55738E+03  4596   0.677E+01
DAV:   3    -0.906157668176E+03   -0.45221E+02   -0.41384E+02  5240   0.145E+01
DAV:   4    -0.907731952486E+03   -0.15743E+01   -0.15514E+01  4752   0.296E+00
DAV:   5    -0.907771305026E+03   -0.39353E-01   -0.39270E-01  4944   0.485E-01    0.117E+01
DAV:   6    -0.909135498201E+03   -0.13642E+01   -0.18400E+01  4968   0.681E+00    0.113E+01
DAV:   7    -0.890324420657E+03    0.18811E+02   -0.19780E+01  5224   0.638E+00    0.600E+00
DAV:   8    -0.886381448789E+03    0.39430E+01   -0.98952E+00  4856   0.320E+00    0.319E+00
DAV:   9    -0.885672333804E+03    0.70911E+00   -0.48078E+00  4552   0.179E+00    0.161E+00
DAV:  10    -0.885820538981E+03   -0.14821E+00   -0.10613E+00  4880   0.108E+00    0.154E+00
DAV:  11    -0.885552541707E+03    0.26800E+00   -0.48509E-01  4856   0.730E-01    0.709E-01
DAV:  12    -0.885540116743E+03    0.12425E-01   -0.13583E-01  4520   0.306E-01    0.389E-01
DAV:  13    -0.885541315776E+03   -0.11990E-02   -0.37956E-02  4816   0.209E-01    0.299E-01
DAV:  14    -0.885534901315E+03    0.64145E-02   -0.13959E-02  4872   0.145E-01    0.179E-01
DAV:  15    -0.885532447001E+03    0.24543E-02   -0.43328E-03  4664   0.730E-02    0.739E-02
DAV:  16    -0.885532650586E+03   -0.20359E-03   -0.18625E-03  4680   0.411E-02    0.505E-02
DAV:  17    -0.885532386743E+03    0.26384E-03   -0.74248E-04  4776   0.288E-02    0.267E-02
DAV:  18    -0.885532339463E+03    0.47280E-04   -0.14291E-04  4616   0.123E-02    0.152E-02
DAV:  19    -0.885532323936E+03    0.15528E-04   -0.54146E-05  4608   0.795E-03    0.958E-03
DAV:  20    -0.885532317646E+03    0.62895E-05   -0.20706E-05  3464   0.570E-03
   1 F= -.88553232E+03 E0= -.88548085E+03  d E =-.102942E+00
