Li                                      
           1
    21.650000    0.000000    0.000000
     0.000000   21.650000    0.000000
    -0.000000   -0.000000   21.650000
   Li
   500
Direct configuration=     1
   0.00376956  0.00219900  0.00594278
   0.01153672  0.11256579  0.05995966
   0.98823505  0.21743524  0.18704545
   0.01769047  0.28985416  0.30818643
   0.01103286  0.37186495  0.40372333
   0.00565719  0.49351310  0.51810381
   0.99890907  0.60824873  0.59835396
   0.00914181  0.69872273  0.69896996
   0.00238687  0.79784733  0.83052355
   0.01375147  0.90789728  0.93951271
   0.09183943  0.00350071  0.10436566
   0.08595331  0.12488954  0.17745741
   0.08122948  0.20192093  0.28644999
   0.11168032  0.28651014  0.41246237
   0.08953208  0.39645967  0.51015871
   0.10669177  0.48235274  0.62227168
   0.09825713  0.60988106  0.71633547
   0.11089602  0.67367068  0.81530234
   0.12278959  0.81218476  0.91472458
   0.12238913  0.90219467  0.01443697
   0.19439881  0.98616749  0.21109586
   0.17372326  0.13177816  0.33359889
   0.21250511  0.20855784  0.40733079
   0.18214049  0.31216373  0.51903130
   0.20063181  0.40377040  0.61575033
   0.20211684  0.49390042  0.72821767
   0.23293855  0.60712170  0.83007155
   0.23546883  0.72400891  0.92398553
   0.22521024  0.79242653  0.00697154
   0.21304236  0.91668773  0.09334389
   0.27303105  0.01001043  0.28609716
   0.28683775  0.09785646  0.39601044
   0.29299159  0.18976932  0.49033798
   0.30451179  0.28563496  0.59305327
   0.30243941  0.38938565  0.69676211
   0.30701642  0.51071413  0.78745973
   0.32055639  0.61240324  0.92057472
   0.31793753  0.73247866  0.02304106
   0.29816883  0.81848497  0.11770606
   0.30411322  0.91244149  0.20852394
   0.37360473  0.00565485  0.40169292
   0.35841363  0.10058487  0.48787648
   0.40033573  0.19871829  0.56160546
   0.40223366  0.26936751  0.71576032
   0.41391539  0.39598131  0.80919033
   0.41042211  0.49873936  0.89708826
   0.42044856  0.61057391  0.99772486
   0.39549341  0.71100200  0.12455211
   0.39052171  0.82517769  0.23435646
   0.37025615  0.90662479  0.35755424
   0.48114062  0.01646214  0.49697667
   0.48227942  0.09306622  0.59774677
   0.48541825  0.21539383  0.70326135
   0.50517652  0.28074942  0.82082229
   0.48293779  0.35769593  0.89177279
   0.50875428  0.51353035  0.98098282
   0.50096695  0.61108969  0.08311038
   0.47746815  0.72160802  0.20601986
   0.49523098  0.78334491  0.31061616
   0.47740083  0.89250675  0.41300484
   0.59067596  0.98721887  0.57386279
   0.58704087  0.10857946  0.69712543
   0.59457481  0.19190328  0.81179759
   0.60630782  0.27459039  0.93114420
   0.60651536  0.40220932  0.00194794
   0.58599381  0.50958963  0.09022187
   0.59826355  0.61018730  0.20709581
   0.61877580  0.69673914  0.31072403
   0.59543630  0.77269859  0.39248360
   0.58232347  0.87280111  0.50309544
   0.70518617  0.98983043  0.69260027
   0.70918297  0.09599017  0.80493609
   0.69443486  0.19376016  0.90730086
   0.70259342  0.29226004  0.01067971
   0.69135706  0.42186277  0.12061435
   0.66738249  0.51303233  0.22374474
   0.68210023  0.61747041  0.31264881
   0.69821219  0.70700464  0.41653112
   0.70702724  0.80696277  0.51784335
   0.71360545  0.90713221  0.60187732
   0.78827224  0.98775796  0.80755713
   0.80806475  0.10910796  0.90054028
   0.84352010  0.19160331  0.98322610
   0.76968700  0.29326492  0.09071499
   0.77540518  0.39479654  0.19421205
   0.77734230  0.50672772  0.27825765
   0.78517841  0.60020372  0.37910773
   0.80047119  0.72460911  0.52695864
   0.80460686  0.82261665  0.62289355
   0.84220776  0.90601053  0.68079036
   0.89258034  0.00202237  0.91774730
   0.90477526  0.10899521  0.97905038
   0.91603472  0.21973897  0.07757492
   0.89505351  0.32145732  0.20125904
   0.88081480  0.37636051  0.31610706
   0.86198229  0.50813939  0.37539889
   0.87586366  0.60394557  0.51746783
   0.89457636  0.69110947  0.61031146
   0.91925542  0.81356044  0.71132378
   0.92329227  0.88690573  0.81724705
   0.09183134  0.10468813  0.97399400
   0.12476013  0.19779800  0.08125886
   0.09792077  0.29044790  0.17071792
   0.12497896  0.39427749  0.30127210
   0.12584545  0.48060529  0.42055907
   0.10116234  0.60520260  0.49927487
   0.09079286  0.71358456  0.60492619
   0.09173969  0.78943311  0.70488927
   0.10596522  0.89630163  0.80036864
   0.10737255  0.99141019  0.90932197
   0.18495156  0.10418581  0.07801004
   0.20178757  0.20222879  0.20901706
   0.19237145  0.27365497  0.30175960
   0.20999634  0.39835221  0.42443933
   0.17493739  0.50101281  0.52667610
   0.19760890  0.61460652  0.62534334
   0.20412742  0.69006003  0.70315332
   0.21498311  0.79235746  0.78636790
   0.21130845  0.89855015  0.92005140
   0.21182212  0.01031635  0.99725098
   0.27837932  0.10020957  0.19349417
   0.29640837  0.20558452  0.29647692
   0.28893266  0.30921729  0.40197264
   0.31409055  0.38460987  0.52667219
   0.32469153  0.48551992  0.61485237
   0.31375288  0.60758972  0.66400377
   0.30929213  0.68218862  0.79037999
   0.30840541  0.83025134  0.87270174
   0.30660101  0.89981906  0.00188358
   0.30666685  0.01374294  0.10257493
   0.38825799  0.09048821  0.31018522
   0.39116229  0.19838678  0.39192766
   0.39482978  0.30225573  0.47326266
   0.39395533  0.39577864  0.61998837
   0.43728553  0.50378864  0.68563422
   0.39697584  0.60362320  0.78854588
   0.38744376  0.72678864  0.87624677
   0.42350608  0.80691205  0.98870499
   0.38908318  0.90202732  0.07818842
   0.38762026  0.99435377  0.21337165
   0.47278302  0.08875644  0.42512126
   0.47122422  0.19305295  0.48751309
   0.48538838  0.27643051  0.56841865
   0.49882871  0.37319648  0.70233306
   0.50298276  0.50192248  0.77482118
   0.50008927  0.63483043  0.87596012
   0.52291467  0.73765392  0.99081676
   0.50663475  0.82244355  0.11751735
   0.46804102  0.90293727  0.23985096
   0.47730901  0.99154203  0.29739355
   0.57154527  0.10704057  0.49867279
   0.61128954  0.19697075  0.59447716
   0.59398140  0.29376487  0.68214736
   0.59139818  0.37229911  0.78201770
   0.57645938  0.49339663  0.86085923
   0.59969098  0.60983021  0.98257140
   0.60124387  0.70261641  0.10632341
   0.58904295  0.80404018  0.22285216
   0.59716820  0.89875172  0.29409178
   0.60917340  0.99626785  0.41046844
   0.71448933  0.08685039  0.59787718
   0.71933835  0.18760701  0.71556142
   0.69027808  0.28918882  0.80662295
   0.68649304  0.40853413  0.87901932
   0.67885321  0.52178645  0.97176625
   0.69804321  0.59308130  0.07892438
   0.71097692  0.72686512  0.19910407
   0.71676264  0.79602076  0.32182591
   0.70631114  0.89716087  0.41688938
   0.66180288  0.99721174  0.51775664
   0.81141727  0.06536401  0.71237411
   0.84817746  0.18651993  0.81825069
   0.80494668  0.28153818  0.91156862
   0.77508305  0.38558204  0.00097897
   0.79770962  0.50621492  0.07885913
   0.80022347  0.60650520  0.17580200
   0.81001853  0.70681848  0.29063644
   0.81607897  0.79873485  0.40724686
   0.80863433  0.90005727  0.50716792
   0.81526618  0.99833316  0.56224572
   0.90927368  0.08361464  0.82278748
   0.93876806  0.20112796  0.89223743
   0.91593883  0.30266199  0.01004078
   0.89461639  0.40252806  0.09787574
   0.90172862  0.50098784  0.17164290
   0.90279221  0.58374818  0.29108481
   0.87540709  0.69296398  0.38797294
   0.91192967  0.81479970  0.51161804
   0.93243913  0.91972390  0.59619039
   0.89262474  0.99473401  0.71358231
   0.99537624  0.10273235  0.91417148
   0.99515246  0.20066761  0.99347928
   0.03773781  0.30183756  0.07215045
   0.01391922  0.39519305  0.21289094
   0.99248627  0.47796261  0.30203031
   0.00435671  0.60169280  0.41736003
   0.97954770  0.71754699  0.50052968
   0.98110602  0.81339458  0.58967833
   0.99950916  0.86732715  0.73884889
   0.98990233  0.97738057  0.83105043
   0.19483637  0.20680810  0.00814369
   0.19683946  0.30174113  0.10159881
   0.18900138  0.41244048  0.19962742
   0.22872128  0.49431970  0.31941552
   0.21584659  0.60523525  0.40512326
   0.18255534  0.70501074  0.49563881
   0.20065240  0.79504335  0.61632056
   0.20614833  0.89478506  0.69189495
   0.18876759  0.99461137  0.78554336
   0.19905241  0.11116911  0.89080173
   0.28046281  0.18178643  0.09080600
   0.30112049  0.29694796  0.21028221
   0.29005330  0.39864624  0.29038745
   0.30861508  0.46824692  0.43946297
   0.29618361  0.58075100  0.50467995
   0.29978009  0.70326793  0.57492175
   0.31890868  0.79952676  0.67235292
   0.28950609  0.89198260  0.78563881
   0.29939201  0.00670023  0.87527408
   0.30910373  0.09596893  0.99014195
   0.39180055  0.18600944  0.15668249
   0.39138038  0.30172713  0.27236452
   0.40716022  0.38354603  0.38282363
   0.41517511  0.45879310  0.50902780
   0.43502956  0.60640333  0.57398538
   0.40860159  0.69343591  0.66922495
   0.38116633  0.82334412  0.79403981
   0.40654809  0.93739415  0.88273504
   0.40264184  0.00795762  0.98502078
   0.39883043  0.08982685  0.09953242
   0.48000525  0.19149395  0.30442498
   0.50756310  0.28210683  0.38650839
   0.49052995  0.37787404  0.48966830
   0.52811018  0.49006055  0.58653236
   0.53901438  0.59889757  0.68520059
   0.50724445  0.69708260  0.78447157
   0.52912493  0.82072738  0.86665536
   0.51292601  0.91698215  0.98631890
   0.46733046  0.97982551  0.09901099
   0.48491478  0.07720168  0.19271195
   0.55892817  0.19257443  0.36608770
   0.59332003  0.27379864  0.47530681
   0.58383163  0.36732239  0.60190796
   0.58702359  0.48058902  0.70021467
   0.63246533  0.60259438  0.78524306
   0.62440439  0.71535147  0.87651797
   0.59632574  0.81967372  0.99935388
   0.61646943  0.91804154  0.12334935
   0.58442663  0.01954247  0.18458616
   0.59732599  0.06268746  0.28841694
   0.69335795  0.18845530  0.48476004
   0.67571456  0.28196348  0.60815917
   0.70164467  0.39605294  0.71966432
   0.69328568  0.49383406  0.82180618
   0.72408586  0.61417193  0.89658783
   0.71028080  0.71254358  0.98170033
   0.68551448  0.81119854  0.10380382
   0.70647123  0.90272169  0.22985311
   0.70398760  0.00698826  0.31960482
   0.69559846  0.10309827  0.39933270
   0.80514287  0.19754349  0.58839474
   0.81433438  0.30486795  0.70704940
   0.80580568  0.40029699  0.79937597
   0.79743790  0.52468802  0.91605606
   0.83315074  0.60642205  0.00344906
   0.78973753  0.69591370  0.09130458
   0.81719958  0.80810301  0.20365721
   0.80451368  0.90669359  0.32740359
   0.77496095  0.98598657  0.41543724
   0.81088667  0.09983302  0.48407252
   0.88358267  0.17313896  0.69953377
   0.90241461  0.32458222  0.79435938
   0.88621875  0.41092246  0.91201130
   0.92155225  0.49413836  0.01871076
   0.93302119  0.58916015  0.08631719
   0.88346154  0.68847316  0.18042268
   0.90450474  0.78946480  0.28787767
   0.88645633  0.88979854  0.38825592
   0.91949261  0.99152767  0.48326399
   0.92591003  0.09189674  0.60687500
   0.97414296  0.22124871  0.80021763
   0.00239670  0.32356860  0.89074530
   0.01103532  0.39570574  0.01535496
   0.01338775  0.49807629  0.09216534
   0.02320432  0.59156473  0.18865100
   0.98092846  0.67847640  0.28903765
   0.99675527  0.78454649  0.39534180
   0.01438755  0.89272890  0.47820401
   0.99192624  0.99264044  0.62498009
   0.99298663  0.08454574  0.72692127
   0.10483559  0.22878797  0.87649725
   0.11836308  0.28967365  0.97743408
   0.12808813  0.42465657  0.08019352
   0.12605510  0.50302219  0.22588950
   0.12681683  0.61098212  0.33124207
   0.10195512  0.69419451  0.39620948
   0.08008133  0.79047032  0.47644660
   0.08325171  0.87592585  0.62351943
   0.09501652  0.99246746  0.70171888
   0.10438728  0.12251168  0.79505073
   0.29786226  0.27645037  0.97993605
   0.33451763  0.39776163  0.09247626
   0.29351212  0.49119173  0.19012563
   0.29874211  0.60088497  0.30354669
   0.27529637  0.69838406  0.40027820
   0.26444919  0.79462504  0.49190930
   0.29800302  0.89207942  0.56832527
   0.31772121  0.99799028  0.68657336
   0.27399752  0.08600057  0.78760789
   0.29943100  0.17331067  0.90359961
   0.38330851  0.29461738  0.08733120
   0.38469284  0.43506219  0.20337201
   0.39172843  0.53531469  0.29991848
   0.39771978  0.59865567  0.42244408
   0.40024570  0.70267010  0.48816559
   0.41078938  0.80178787  0.58044021
   0.40513741  0.90572204  0.68747815
   0.41355524  0.01157631  0.78186388
   0.38886660  0.11102755  0.89699712
   0.41396744  0.18219358  0.00018824
   0.47633053  0.32310271  0.20911762
   0.49657804  0.43004129  0.29461616
   0.49032518  0.50632265  0.40047678
   0.50193057  0.58901091  0.49963982
   0.50418994  0.68143595  0.60498213
   0.48411117  0.78807766  0.71193127
   0.49796891  0.90347401  0.78906072
   0.52320101  0.01443982  0.88935742
   0.49106568  0.06521513  0.00606457
   0.49713816  0.18785959  0.09897118
   0.57056343  0.29897914  0.29329547
   0.59108884  0.41337365  0.40035347
   0.60037587  0.49532108  0.48732664
   0.62006772  0.60641827  0.62074872
   0.60378314  0.71350170  0.71341544
   0.61712518  0.80487565  0.77456555
   0.62304268  0.89790193  0.86239932
   0.59498707  0.01567842  0.03673668
   0.59577465  0.09867196  0.10740805
   0.58615540  0.17039299  0.18845717
   0.66484851  0.26593309  0.37918560
   0.67984206  0.37566090  0.47601921
   0.67815303  0.49443554  0.59302023
   0.68137969  0.59088164  0.70564882
   0.74161005  0.71949069  0.79735741
   0.72289295  0.81612323  0.89949159
   0.70045080  0.88653174  0.01723623
   0.71817526  0.98821600  0.09206996
   0.69704650  0.09500819  0.16012775
   0.68446540  0.17848220  0.27307612
   0.77975305  0.27561563  0.46984360
   0.77803603  0.39782947  0.58230665
   0.78678511  0.51716305  0.67403800
   0.80577919  0.61271800  0.78695299
   0.82852817  0.70557675  0.91453879
   0.79240094  0.80789085  0.01724994
   0.80442046  0.88285431  0.09107586
   0.79667713  0.01123087  0.20785736
   0.80890036  0.08481005  0.29504752
   0.79654983  0.18354862  0.35432252
   0.90339217  0.29025687  0.57592676
   0.87510789  0.40504479  0.69772792
   0.89936735  0.50762790  0.79162475
   0.92566162  0.61464465  0.91465235
   0.91245421  0.70117008  0.00954483
   0.89864094  0.77934773  0.07495211
   0.89691565  0.88756506  0.20695399
   0.87297044  0.01060551  0.29643184
   0.92569381  0.10601861  0.38002153
   0.89120792  0.19281132  0.51889500
   0.96713293  0.29864708  0.69325427
   0.98024429  0.40634774  0.81080780
   0.00850810  0.49795507  0.92447712
   0.03278057  0.59700505  0.99467193
   0.02014582  0.68375614  0.10310925
   0.99592721  0.77767893  0.17385006
   0.98494162  0.90219826  0.28385966
   0.98589162  0.00090970  0.37969213
   0.97583633  0.09066141  0.51577718
   0.02902323  0.19940016  0.62570738
   0.08841810  0.31609870  0.78603242
   0.11719457  0.39708013  0.90157505
   0.12162319  0.49988450  0.98797583
   0.12271881  0.56924950  0.11851623
   0.13050962  0.70486927  0.20039315
   0.08479155  0.80326034  0.28879973
   0.08161089  0.88339830  0.37662502
   0.07304407  0.99114651  0.50943639
   0.09453081  0.07495538  0.58750207
   0.09623851  0.20748215  0.70157072
   0.22569176  0.28589898  0.88563590
   0.24744729  0.38975708  0.98445763
   0.22250287  0.49216299  0.10145934
   0.22616391  0.58817688  0.21711565
   0.19647379  0.71344458  0.30038076
   0.20257936  0.80203876  0.39769930
   0.17543204  0.89680799  0.51231937
   0.21636157  0.99956573  0.60242555
   0.19603948  0.10401300  0.68495570
   0.21685334  0.21578668  0.76511217
   0.41611814  0.41195384  0.00718968
   0.42222444  0.52293395  0.07498756
   0.40829790  0.61424167  0.20355496
   0.40562418  0.71347327  0.30080294
   0.38001247  0.80118430  0.41020786
   0.38121067  0.90770977  0.50242154
   0.39823810  0.00778770  0.59175588
   0.38243957  0.11473667  0.68798885
   0.40214053  0.19348001  0.80333493
   0.38372977  0.29076911  0.91807741
   0.50053091  0.41790598  0.11233119
   0.49159922  0.50642747  0.20825759
   0.49933646  0.61672273  0.31933839
   0.49230471  0.69328545  0.41232634
   0.49315797  0.80099477  0.51341196
   0.46927999  0.91745116  0.61600041
   0.50018941  0.02801137  0.72105157
   0.50790988  0.10906972  0.81256208
   0.49737344  0.17503327  0.90911981
   0.48971938  0.30111372  0.02669505
   0.55641827  0.40475849  0.20171265
   0.57783306  0.51618787  0.31148757
   0.60114487  0.61213337  0.39712566
   0.59373517  0.70988822  0.52427508
   0.59224622  0.82356524  0.62066455
   0.58317937  0.91005461  0.71949288
   0.62213931  0.01062517  0.80087836
   0.59373886  0.11013058  0.91540006
   0.59077226  0.19327883  0.02443240
   0.60228215  0.29406934  0.11033670
   0.65045341  0.42342162  0.27634261
   0.69923544  0.49799735  0.38339430
   0.71165464  0.60320442  0.48781581
   0.70490412  0.71630731  0.62732890
   0.70164062  0.84637098  0.70629603
   0.72606885  0.89907305  0.79129543
   0.72166883  0.00175694  0.91598636
   0.70833407  0.08217569  0.01976460
   0.71763056  0.19728829  0.09480997
   0.67099837  0.28064950  0.19450688
   0.75934602  0.37524561  0.37687893
   0.78882839  0.47351290  0.49165845
   0.77266653  0.58827411  0.62360423
   0.82494408  0.68665446  0.71587511
   0.83443330  0.80905004  0.79834382
   0.81893154  0.90272150  0.90219599
   0.82505598  0.99152089  0.00482279
   0.83375747  0.09550976  0.08256768
   0.81785680  0.17506188  0.18843062
   0.74338103  0.28554256  0.29454369
   0.88916619  0.39928868  0.46830622
   0.88461025  0.49609764  0.58541308
   0.90515694  0.59734268  0.70674973
   0.91703545  0.70640289  0.80736476
   0.92155033  0.79655625  0.92042567
   0.91840259  0.90139484  0.00957914
   0.91328911  0.99297508  0.10177020
   0.91513134  0.10359597  0.18317747
   0.91408052  0.21991485  0.28279870
   0.88133069  0.27905314  0.40359720
   0.99559578  0.39300748  0.60555960
   0.99851162  0.51174848  0.68875903
   0.00931799  0.60002205  0.83284128
   0.01183533  0.70408304  0.92990529
   0.03063514  0.79722480  0.01457100
   0.00253352  0.90573135  0.10267097
   0.00363718  0.02945559  0.18585706
   0.97552201  0.10295164  0.30283249
   0.99421764  0.21957340  0.40794896
   0.99431922  0.30852350  0.50917600
   0.08670888  0.41639887  0.71940249
   0.08178612  0.51380490  0.82065266
   0.10674895  0.61524964  0.92533688
   0.12379767  0.70002736  0.02087371
   0.11534772  0.80324850  0.09723684
   0.06371670  0.87552907  0.18856210
   0.08592185  0.00919834  0.30461757
   0.06751906  0.13795385  0.42515450
   0.07982293  0.19146566  0.52207789
   0.09983175  0.29560014  0.64473302
   0.19660613  0.41079381  0.80703138
   0.20367616  0.50220159  0.90509335
   0.22247745  0.59855395  0.02404299
   0.21064464  0.70071998  0.11744171
   0.18157022  0.81275758  0.20484369
   0.18674905  0.90932032  0.28634079
   0.15429931  0.99967017  0.37854399
   0.19206089  0.09419398  0.50736913
   0.19008714  0.18541614  0.59374403
   0.21211757  0.29976000  0.70913775
   0.33126251  0.40259915  0.88039502
   0.31198860  0.49141986  0.00444165
   0.30383658  0.60772905  0.11965976
   0.29533719  0.71921748  0.21010147
   0.29973371  0.83861999  0.28855928
   0.26887619  0.90617392  0.41727056
   0.29306235  0.00493200  0.48190528
   0.28325902  0.11262455  0.59203205
   0.32564953  0.19943027  0.68812314
   0.31605168  0.29521245  0.79885662
