 500 500   0   0
  0.1852332E+02  0.2100050E-08  0.2100050E-08  0.2100050E-08  0.5000000E-15
  1.000000000000000E-004
  CAR 
 Li                                      
      4.02048573     -3.33082798  301      0.64283949      1.00000000
     -3.331  0.0000E+00  0.0000E+00
     -3.306  0.0000E+00  0.0000E+00
     -3.282  0.0000E+00  0.0000E+00
     -3.257  0.0000E+00  0.0000E+00
     -3.233  0.0000E+00  0.0000E+00
     -3.208  0.0000E+00  0.0000E+00
     -3.184  0.0000E+00  0.0000E+00
     -3.159  0.7079E-12  0.1735E-13
     -3.135  0.2989E-08  0.7326E-10
     -3.110  0.3418E-05  0.8383E-07
     -3.086  0.1069E-02  0.2628E-04
     -3.061  0.9281E-01  0.2301E-02
     -3.037  0.2286E+01  0.5832E-01
     -3.012  0.1641E+02  0.4604E+00
     -2.988  0.3521E+02  0.1323E+01
     -2.963  0.2289E+02  0.1884E+01
     -2.939  0.5019E+01  0.2007E+01
     -2.914  0.9142E+01  0.2231E+01
     -2.890  0.4889E+02  0.3429E+01
     -2.865  0.9690E+02  0.5804E+01
     -2.841  0.7016E+02  0.7523E+01
     -2.816  0.1844E+02  0.7975E+01
     -2.792  0.9858E+01  0.8216E+01
     -2.767  0.4628E+02  0.9350E+01
     -2.743  0.9497E+02  0.1168E+02
     -2.718  0.7286E+02  0.1346E+02
     -2.694  0.2051E+02  0.1397E+02
     -2.669  0.1111E+02  0.1424E+02
     -2.645  0.5753E+02  0.1565E+02
     -2.620  0.1256E+03  0.1873E+02
     -2.596  0.1008E+03  0.2120E+02
     -2.571  0.3063E+02  0.2195E+02
     -2.547  0.1802E+02  0.2239E+02
     -2.522  0.8122E+02  0.2438E+02
     -2.498  0.1737E+03  0.2864E+02
     -2.473  0.1549E+03  0.3243E+02
     -2.449  0.5619E+02  0.3381E+02
     -2.424  0.1208E+02  0.3411E+02
     -2.400  0.3781E+02  0.3503E+02
     -2.375  0.9790E+02  0.3743E+02
     -2.351  0.8148E+02  0.3943E+02
     -2.326  0.2224E+02  0.3997E+02
     -2.302  0.1284E+02  0.4029E+02
     -2.277  0.6722E+02  0.4193E+02
     -2.253  0.1657E+03  0.4600E+02
     -2.228  0.1683E+03  0.5012E+02
     -2.204  0.6790E+02  0.5178E+02
     -2.179  0.2728E+02  0.5245E+02
     -2.155  0.1018E+03  0.5495E+02
     -2.130  0.2357E+03  0.6072E+02
     -2.106  0.2441E+03  0.6670E+02
     -2.081  0.1125E+03  0.6946E+02
     -2.057  0.2482E+02  0.7007E+02
     -2.032  0.2975E+02  0.7080E+02
     -2.008  0.7804E+02  0.7271E+02
     -1.983  0.8788E+02  0.7486E+02
     -1.959  0.4012E+02  0.7585E+02
     -1.934  0.1719E+02  0.7627E+02
     -1.910  0.7207E+02  0.7803E+02
     -1.885  0.1847E+03  0.8256E+02
     -1.861  0.1978E+03  0.8740E+02
     -1.836  0.8979E+02  0.8960E+02
     -1.812  0.2858E+02  0.9030E+02
     -1.787  0.8416E+02  0.9237E+02
     -1.763  0.2165E+03  0.9767E+02
     -1.738  0.2532E+03  0.1039E+03
     -1.714  0.1356E+03  0.1072E+03
     -1.689  0.3292E+02  0.1080E+03
     -1.665  0.3243E+02  0.1088E+03
     -1.640  0.1189E+03  0.1117E+03
     -1.616  0.1848E+03  0.1162E+03
     -1.591  0.1195E+03  0.1192E+03
     -1.567  0.4362E+02  0.1202E+03
     -1.542  0.8458E+02  0.1223E+03
     -1.518  0.2147E+03  0.1276E+03
     -1.493  0.2556E+03  0.1338E+03
     -1.468  0.1383E+03  0.1372E+03
     -1.444  0.3981E+02  0.1382E+03
     -1.419  0.6886E+02  0.1399E+03
     -1.395  0.1877E+03  0.1445E+03
     -1.370  0.2503E+03  0.1506E+03
     -1.346  0.1643E+03  0.1546E+03
     -1.321  0.5382E+02  0.1560E+03
     -1.297  0.4569E+02  0.1571E+03
     -1.272  0.1305E+03  0.1603E+03
     -1.248  0.1772E+03  0.1646E+03
     -1.223  0.1079E+03  0.1673E+03
     -1.199  0.4425E+02  0.1684E+03
     -1.174  0.7434E+02  0.1702E+03
     -1.150  0.1262E+03  0.1733E+03
     -1.125  0.1344E+03  0.1766E+03
     -1.101  0.1030E+03  0.1791E+03
     -1.076  0.5515E+02  0.1804E+03
     -1.052  0.1013E+03  0.1829E+03
     -1.027  0.2480E+03  0.1890E+03
     -1.003  0.3693E+03  0.1980E+03
     -0.978  0.3163E+03  0.2058E+03
     -0.954  0.1499E+03  0.2095E+03
     -0.929  0.9245E+02  0.2117E+03
     -0.905  0.1841E+03  0.2162E+03
     -0.880  0.2408E+03  0.2221E+03
     -0.856  0.1732E+03  0.2264E+03
     -0.831  0.7589E+02  0.2282E+03
     -0.807  0.5246E+02  0.2295E+03
     -0.782  0.8542E+02  0.2316E+03
     -0.758  0.1639E+03  0.2356E+03
     -0.733  0.1824E+03  0.2401E+03
     -0.709  0.1481E+03  0.2437E+03
     -0.684  0.1861E+03  0.2483E+03
     -0.660  0.2326E+03  0.2540E+03
     -0.635  0.2485E+03  0.2601E+03
     -0.611  0.1780E+03  0.2645E+03
     -0.586  0.5692E+02  0.2658E+03
     -0.562  0.1508E+02  0.2662E+03
     -0.537  0.4995E+02  0.2674E+03
     -0.513  0.9910E+02  0.2699E+03
     -0.488  0.7144E+02  0.2716E+03
     -0.464  0.4727E+02  0.2728E+03
     -0.439  0.1412E+03  0.2762E+03
     -0.415  0.2776E+03  0.2830E+03
     -0.390  0.3363E+03  0.2913E+03
     -0.366  0.3295E+03  0.2994E+03
     -0.341  0.2500E+03  0.3055E+03
     -0.317  0.1570E+03  0.3093E+03
     -0.292  0.1767E+03  0.3137E+03
     -0.268  0.2608E+03  0.3200E+03
     -0.243  0.3025E+03  0.3275E+03
     -0.219  0.2381E+03  0.3333E+03
     -0.194  0.1318E+03  0.3365E+03
     -0.170  0.6548E+02  0.3381E+03
     -0.145  0.8774E+02  0.3403E+03
     -0.121  0.1566E+03  0.3441E+03
     -0.096  0.1882E+03  0.3487E+03
     -0.072  0.1792E+03  0.3531E+03
     -0.047  0.1303E+03  0.3563E+03
     -0.023  0.1387E+03  0.3597E+03
      0.002  0.1823E+03  0.3642E+03
      0.026  0.1821E+03  0.3686E+03
      0.051  0.1807E+03  0.3731E+03
      0.075  0.2234E+03  0.3785E+03
      0.100  0.2976E+03  0.3858E+03
      0.124  0.2987E+03  0.3932E+03
      0.149  0.2195E+03  0.3985E+03
      0.173  0.2082E+03  0.4036E+03
      0.198  0.2435E+03  0.4096E+03
      0.222  0.1802E+03  0.4140E+03
      0.247  0.7480E+02  0.4159E+03
      0.271  0.6017E+02  0.4173E+03
      0.296  0.1568E+03  0.4212E+03
      0.320  0.2575E+03  0.4275E+03
      0.345  0.2841E+03  0.4344E+03
      0.369  0.2658E+03  0.4410E+03
      0.394  0.2084E+03  0.4461E+03
      0.418  0.1606E+03  0.4500E+03
      0.443  0.1899E+03  0.4546E+03
      0.467  0.2261E+03  0.4602E+03
      0.492  0.2371E+03  0.4660E+03
      0.516  0.2278E+03  0.4716E+03
      0.541  0.1852E+03  0.4761E+03
      0.565  0.1722E+03  0.4803E+03
      0.590  0.2224E+03  0.4858E+03
      0.614  0.2751E+03  0.4925E+03
      0.639  0.2662E+03  0.4991E+03
      0.663  0.2253E+03  0.5046E+03
      0.688  0.2173E+03  0.5099E+03
      0.712  0.2266E+03  0.5155E+03
      0.737  0.2212E+03  0.5209E+03
      0.761  0.2121E+03  0.5261E+03
      0.786  0.2359E+03  0.5318E+03
      0.810  0.2898E+03  0.5390E+03
      0.835  0.3315E+03  0.5471E+03
      0.859  0.3539E+03  0.5557E+03
      0.884  0.3497E+03  0.5643E+03
      0.908  0.3133E+03  0.5720E+03
      0.933  0.2874E+03  0.5790E+03
      0.957  0.2920E+03  0.5862E+03
      0.982  0.3019E+03  0.5936E+03
      1.006  0.2966E+03  0.6009E+03
      1.031  0.2789E+03  0.6077E+03
      1.055  0.2117E+03  0.6129E+03
      1.080  0.1019E+03  0.6154E+03
      1.104  0.2994E+02  0.6161E+03
      1.129  0.4550E+02  0.6172E+03
      1.153  0.1049E+03  0.6198E+03
      1.178  0.1192E+03  0.6227E+03
      1.202  0.1432E+03  0.6262E+03
      1.227  0.1917E+03  0.6309E+03
      1.251  0.2076E+03  0.6360E+03
      1.276  0.2292E+03  0.6416E+03
      1.300  0.2567E+03  0.6479E+03
      1.325  0.2426E+03  0.6539E+03
      1.350  0.2104E+03  0.6590E+03
      1.374  0.2164E+03  0.6643E+03
      1.399  0.2420E+03  0.6702E+03
      1.423  0.2684E+03  0.6768E+03
      1.448  0.2977E+03  0.6841E+03
      1.472  0.2969E+03  0.6914E+03
      1.497  0.2731E+03  0.6981E+03
      1.521  0.2354E+03  0.7039E+03
      1.546  0.2070E+03  0.7089E+03
      1.570  0.1824E+03  0.7134E+03
      1.595  0.1623E+03  0.7174E+03
      1.619  0.1679E+03  0.7215E+03
      1.644  0.1848E+03  0.7260E+03
      1.668  0.2005E+03  0.7309E+03
      1.693  0.2085E+03  0.7360E+03
      1.717  0.2220E+03  0.7415E+03
      1.742  0.2254E+03  0.7470E+03
      1.766  0.2133E+03  0.7522E+03
      1.791  0.1901E+03  0.7569E+03
      1.815  0.1664E+03  0.7610E+03
      1.840  0.1536E+03  0.7647E+03
      1.864  0.1420E+03  0.7682E+03
      1.889  0.1380E+03  0.7716E+03
      1.913  0.1461E+03  0.7752E+03
      1.938  0.1648E+03  0.7792E+03
      1.962  0.1788E+03  0.7836E+03
      1.987  0.1534E+03  0.7874E+03
      2.011  0.9467E+02  0.7897E+03
      2.036  0.7943E+02  0.7916E+03
      2.060  0.1211E+03  0.7946E+03
      2.085  0.1623E+03  0.7986E+03
      2.109  0.1771E+03  0.8029E+03
      2.134  0.1973E+03  0.8077E+03
      2.158  0.2192E+03  0.8131E+03
      2.183  0.2310E+03  0.8188E+03
      2.207  0.2512E+03  0.8249E+03
      2.232  0.2586E+03  0.8313E+03
      2.256  0.2540E+03  0.8375E+03
      2.281  0.2369E+03  0.8433E+03
      2.305  0.2178E+03  0.8486E+03
      2.330  0.2017E+03  0.8536E+03
      2.354  0.1859E+03  0.8581E+03
      2.379  0.1751E+03  0.8624E+03
      2.403  0.1586E+03  0.8663E+03
      2.428  0.1299E+03  0.8695E+03
      2.452  0.1307E+03  0.8727E+03
      2.477  0.1332E+03  0.8760E+03
      2.501  0.1118E+03  0.8787E+03
      2.526  0.1017E+03  0.8812E+03
      2.550  0.1308E+03  0.8844E+03
      2.575  0.1601E+03  0.8883E+03
      2.599  0.1714E+03  0.8925E+03
      2.624  0.1632E+03  0.8965E+03
      2.648  0.1412E+03  0.9000E+03
      2.673  0.1224E+03  0.9030E+03
      2.697  0.1258E+03  0.9061E+03
      2.722  0.1270E+03  0.9092E+03
      2.746  0.1201E+03  0.9121E+03
      2.771  0.1281E+03  0.9152E+03
      2.795  0.1332E+03  0.9185E+03
      2.820  0.1276E+03  0.9216E+03
      2.844  0.1323E+03  0.9249E+03
      2.869  0.1579E+03  0.9287E+03
      2.893  0.1694E+03  0.9329E+03
      2.918  0.1516E+03  0.9366E+03
      2.942  0.1347E+03  0.9399E+03
      2.967  0.1238E+03  0.9429E+03
      2.991  0.8711E+02  0.9451E+03
      3.016  0.4556E+02  0.9462E+03
      3.040  0.6040E+02  0.9477E+03
      3.065  0.1077E+03  0.9503E+03
      3.089  0.1332E+03  0.9536E+03
      3.114  0.1434E+03  0.9571E+03
      3.138  0.1561E+03  0.9609E+03
      3.163  0.1601E+03  0.9648E+03
      3.187  0.1591E+03  0.9687E+03
      3.212  0.1580E+03  0.9726E+03
      3.236  0.1565E+03  0.9765E+03
      3.261  0.1521E+03  0.9802E+03
      3.285  0.1420E+03  0.9837E+03
      3.310  0.1107E+03  0.9864E+03
      3.334  0.5355E+02  0.9877E+03
      3.359  0.1179E+02  0.9880E+03
      3.383  0.9632E+00  0.9880E+03
      3.408  0.2577E-01  0.9880E+03
      3.432  0.3033E-03  0.9880E+03
      3.457  0.1138E-01  0.9880E+03
      3.481  0.4184E+00  0.9880E+03
      3.506  0.5247E+01  0.9881E+03
      3.530  0.2685E+02  0.9888E+03
      3.555  0.6884E+02  0.9905E+03
      3.579  0.1041E+03  0.9930E+03
      3.604  0.1114E+03  0.9958E+03
      3.628  0.9903E+02  0.9982E+03
      3.653  0.6763E+02  0.9998E+03
      3.677  0.4606E+02  0.1001E+04
      3.702  0.3112E+02  0.1002E+04
      3.726  0.9609E+01  0.1002E+04
      3.751  0.1012E+01  0.1002E+04
      3.775  0.3379E-01  0.1002E+04
      3.800  0.3416E-03  0.1002E+04
      3.824  0.1005E-05  0.1002E+04
      3.849  0.8354E-09  0.1002E+04
      3.873  0.1903E-12  0.1002E+04
      3.898  0.0000E+00  0.1002E+04
      3.922  0.0000E+00  0.1002E+04
      3.947  0.0000E+00  0.1002E+04
      3.971  0.0000E+00  0.1002E+04
      3.996  0.0000E+00  0.1002E+04
      4.020  0.0000E+00  0.1002E+04
