Li                                      
           1
    21.000500    0.000000    0.000000
     0.000000   21.000500    0.000000
     0.000000    0.000000   21.000500
   Li
   500
Direct configuration=     1
   0.00662560  0.99392755  0.99595954
   0.00322334  0.08533238  0.08588574
   0.99368841  0.19477763  0.18741198
   0.99787590  0.30287497  0.30331011
   0.00463557  0.40925361  0.40718707
   0.99301359  0.49879801  0.51720542
   0.98287091  0.60042084  0.61071859
   0.97943806  0.71917659  0.70141984
   0.98227370  0.81361236  0.78831860
   0.00649886  0.89189288  0.89559605
   0.09530401  0.98868908  0.11210999
   0.11092171  0.09764620  0.20494409
   0.10278268  0.19797135  0.30399016
   0.09443467  0.29777252  0.40003493
   0.08867863  0.39611380  0.49946599
   0.08930243  0.48776797  0.61016802
   0.07815917  0.61247977  0.69003029
   0.08856208  0.70954602  0.80603382
   0.11180976  0.79852336  0.89703753
   0.10450660  0.90735489  0.99281541
   0.21211361  0.99233337  0.19983740
   0.20008402  0.10265908  0.30118002
   0.18465249  0.20093449  0.41223087
   0.19379469  0.30826398  0.49903527
   0.19834989  0.40094683  0.61144587
   0.19461016  0.50760506  0.70342008
   0.18022063  0.61131533  0.78300250
   0.18870439  0.69584667  0.88376308
   0.19799349  0.80644298  0.99672819
   0.19558102  0.89765369  0.11318306
   0.29714471  0.98308116  0.31222203
   0.28588652  0.09360810  0.40777675
   0.28216191  0.19889112  0.50550954
   0.29692024  0.30091178  0.59778904
   0.30377744  0.39397790  0.71842887
   0.30368843  0.49602622  0.79249335
   0.28806722  0.60876685  0.90062805
   0.30306321  0.70088411  0.99515952
   0.30285215  0.80580595  0.09830636
   0.30875034  0.88983098  0.20600606
   0.39928702  0.00667051  0.41750794
   0.39977499  0.09132606  0.50599603
   0.40875926  0.19267492  0.59764588
   0.40810262  0.30124388  0.68684289
   0.40226563  0.40061068  0.79271694
   0.40341800  0.50693868  0.89196970
   0.40318549  0.59697561  0.99906940
   0.39041127  0.68577119  0.10376240
   0.39923361  0.78337167  0.20059698
   0.40935126  0.91670696  0.31250822
   0.50207060  0.99988858  0.50358864
   0.50179684  0.12214201  0.60499371
   0.50213608  0.21228956  0.70236230
   0.50856368  0.29884308  0.80290263
   0.49977062  0.39498811  0.91679595
   0.48733485  0.47916018  0.99769995
   0.49911812  0.60014450  0.10058553
   0.49173320  0.70160287  0.21272058
   0.49328865  0.79060144  0.30993682
   0.49985131  0.90122757  0.39433101
   0.60684442  0.02338797  0.61168885
   0.59587887  0.10787229  0.70707271
   0.59004757  0.19648783  0.80713595
   0.59720603  0.29153385  0.91563035
   0.59003879  0.37972966  0.00996916
   0.60090394  0.49056399  0.08912245
   0.62333041  0.59766731  0.20377909
   0.61843770  0.69263369  0.31230880
   0.60913293  0.79696939  0.40907176
   0.60184201  0.90133416  0.51671072
   0.69829025  0.01120075  0.70750707
   0.69567120  0.10866856  0.80882369
   0.69472032  0.21194220  0.90530868
   0.69822881  0.30001351  0.01765906
   0.70902813  0.40147633  0.10436814
   0.70013194  0.50210386  0.18449178
   0.71414727  0.59422913  0.30263103
   0.71852985  0.68326348  0.39251089
   0.70299726  0.80295711  0.49677304
   0.69686512  0.91005538  0.61335650
   0.79376730  0.00374378  0.80669436
   0.80087843  0.09258041  0.90619923
   0.79909125  0.20751803  0.99348055
   0.81653228  0.27590254  0.08214188
   0.79987195  0.39848456  0.18101500
   0.80809785  0.48969165  0.30354937
   0.81490455  0.59753263  0.38375728
   0.81549362  0.70174868  0.49877266
   0.80587515  0.80390952  0.60445151
   0.81550558  0.92657950  0.69922928
   0.89221632  0.99280945  0.90387025
   0.90182700  0.08715073  0.98825527
   0.91052283  0.18615855  0.08301413
   0.89323705  0.30186646  0.19051842
   0.90007009  0.40211834  0.30708511
   0.89783493  0.48856561  0.40502826
   0.90117751  0.58710887  0.49635397
   0.89793447  0.69925725  0.60275219
   0.88315156  0.81965571  0.69302943
   0.91017380  0.91616668  0.79933011
   0.11459214  0.09292048  0.99810803
   0.11693264  0.19851017  0.09541533
   0.09397257  0.31676751  0.19929290
   0.08639744  0.41365869  0.31534327
   0.10272961  0.51068863  0.41172828
   0.08635309  0.60529707  0.51973872
   0.08728073  0.70453837  0.60929717
   0.10539624  0.78782634  0.70055524
   0.10895134  0.88140020  0.79099172
   0.10801218  0.99504507  0.89770094
   0.20410728  0.09663025  0.11495499
   0.20770604  0.20999948  0.18784008
   0.19546671  0.31208822  0.30856205
   0.20528200  0.40633341  0.40913139
   0.19250506  0.50210521  0.50798436
   0.18448817  0.59161168  0.60149866
   0.19505558  0.68384107  0.69383491
   0.21563108  0.77871655  0.80291909
   0.20562728  0.90305359  0.89625176
   0.19526898  0.98851904  0.00440452
   0.29530296  0.10477671  0.20182124
   0.30474869  0.19801794  0.31985161
   0.30365969  0.29631895  0.41708881
   0.28345236  0.39494123  0.50328659
   0.29075543  0.50805626  0.60917447
   0.29577898  0.59063746  0.69567012
   0.30012344  0.68691104  0.80757066
   0.30219698  0.80079019  0.90594954
   0.29997195  0.89260225  0.01715223
   0.29193339  0.98481148  0.10077897
   0.39114411  0.11354040  0.30648526
   0.38468707  0.18230353  0.41394076
   0.40556837  0.30314149  0.50762568
   0.39893154  0.39739500  0.60126541
   0.40453331  0.49061641  0.69391850
   0.41648796  0.59444991  0.78352537
   0.39855765  0.69821522  0.88783107
   0.39254524  0.80054112  0.00540121
   0.41101151  0.89513466  0.11733330
   0.38779466  0.00916915  0.20029280
   0.51117384  0.10244133  0.39985667
   0.50129704  0.19084398  0.50212314
   0.51044878  0.30615421  0.60207536
   0.51206781  0.39613695  0.70727086
   0.51493836  0.49387072  0.80202993
   0.49776996  0.60464129  0.90793491
   0.49470530  0.70128110  0.99574384
   0.49922776  0.79723657  0.10290225
   0.47688310  0.89640647  0.20766122
   0.48172275  0.02647611  0.30970258
   0.60630751  0.10591635  0.50435365
   0.61084797  0.19753059  0.59856982
   0.60114971  0.29973522  0.70977334
   0.60512445  0.38882168  0.81192295
   0.59689443  0.49828923  0.90405568
   0.59766112  0.59766223  0.99137778
   0.58727032  0.69829367  0.11313191
   0.58738380  0.78809304  0.20421881
   0.58500307  0.90127202  0.29838758
   0.60325754  0.00255782  0.39011419
   0.69896642  0.10675082  0.60175623
   0.69517302  0.20585483  0.70566496
   0.70042931  0.29605442  0.81578294
   0.69835404  0.39423137  0.91780608
   0.69714504  0.49476261  0.99111495
   0.70822326  0.59986374  0.08976397
   0.70186477  0.69443296  0.18701806
   0.69519281  0.80245654  0.29567076
   0.69548193  0.90738213  0.39755401
   0.69130801  0.00896875  0.49740717
   0.79683442  0.10409411  0.71004014
   0.81039549  0.20386038  0.82067075
   0.81151841  0.31240777  0.90744014
   0.81564942  0.40465708  0.01095059
   0.80377786  0.49611945  0.08816280
   0.80550655  0.59143182  0.19544645
   0.80959550  0.70505256  0.28588046
   0.79785335  0.79850112  0.40050187
   0.80181330  0.90323480  0.49734741
   0.79420074  0.00439238  0.59228818
   0.91051021  0.08066155  0.80291866
   0.89661039  0.19745904  0.90636630
   0.90316435  0.30006275  0.99772075
   0.92129716  0.39064860  0.09817092
   0.91291877  0.48399106  0.18869792
   0.89837898  0.59430614  0.28686452
   0.90265923  0.69172626  0.38179660
   0.88834112  0.80091955  0.48824725
   0.89937316  0.90808748  0.58414393
   0.90081071  0.99923093  0.70262044
   0.01397573  0.09054008  0.90872624
   0.01477300  0.20032351  0.00083734
   0.01185931  0.29673606  0.09701981
   0.00058819  0.39191031  0.20542935
   0.98563564  0.49934036  0.30248501
   0.00231089  0.58250924  0.39924514
   0.99692502  0.69939074  0.49949567
   0.99494014  0.80194358  0.58607843
   0.00070623  0.91287094  0.68883118
   0.01936071  0.99900100  0.80871263
   0.20537605  0.22468102  0.00898262
   0.20277703  0.32346198  0.11822666
   0.19583731  0.42453339  0.21323027
   0.19548310  0.50816617  0.30779785
   0.18774433  0.61004057  0.39050462
   0.19300145  0.69667731  0.50471597
   0.19582232  0.78461196  0.57929768
   0.20500950  0.89246819  0.70164525
   0.17698775  0.00374952  0.81266586
   0.21603712  0.10938806  0.90195929
   0.30057558  0.20931432  0.10082467
   0.30003552  0.30929045  0.21898456
   0.30736097  0.40148899  0.31794069
   0.30894241  0.51592541  0.39469554
   0.29542103  0.59462404  0.49080809
   0.29981454  0.68477605  0.59345254
   0.29049265  0.79301176  0.69079146
   0.31020896  0.89463705  0.78517949
   0.29408438  0.99130812  0.91574755
   0.29975522  0.09050659  0.01164345
   0.38414569  0.21283542  0.20095168
   0.40506184  0.30280297  0.32190975
   0.39676858  0.41774666  0.40916896
   0.38684808  0.49735199  0.50355962
   0.40163767  0.58862100  0.58706759
   0.39627579  0.69045673  0.70229840
   0.39828815  0.79167870  0.78973495
   0.39744314  0.89700559  0.90573305
   0.41109042  0.99516217  0.01409202
   0.39231711  0.09344705  0.10606641
   0.48619168  0.19618027  0.30215643
   0.49413597  0.31107011  0.40023591
   0.51520416  0.39206033  0.51428937
   0.51009915  0.49331079  0.59481260
   0.50066475  0.58930779  0.68477790
   0.51388210  0.70655337  0.79471219
   0.49880083  0.80169387  0.89040987
   0.49395374  0.88933987  0.01372137
   0.49849554  0.01175693  0.11554592
   0.47348174  0.11722997  0.20654921
   0.59624494  0.19941222  0.39308270
   0.61664228  0.30059677  0.49283325
   0.61221775  0.40133682  0.60675585
   0.61405643  0.50819912  0.70664735
   0.59721294  0.60329335  0.80039719
   0.60329577  0.71089920  0.89331674
   0.58497367  0.80892679  0.01133310
   0.59720925  0.90678896  0.10734979
   0.58860827  0.01100523  0.20572295
   0.60073204  0.11225117  0.29577597
   0.69863860  0.20983803  0.50086111
   0.69256702  0.29858545  0.60553378
   0.68975321  0.39651136  0.72002128
   0.69264462  0.50677571  0.81411465
   0.69566651  0.60900528  0.90997599
   0.68405787  0.71204042  0.00425395
   0.69608788  0.80528142  0.09693813
   0.68795504  0.92173944  0.19438108
   0.69788213  0.00016783  0.30589120
   0.69757356  0.11633402  0.39580200
   0.80046762  0.19368968  0.61154480
   0.78717999  0.30199849  0.70905992
   0.78401177  0.40762756  0.80691110
   0.79639495  0.49511702  0.90329663
   0.78877277  0.60103793  0.99699114
   0.80086513  0.70494379  0.09290485
   0.79394630  0.80111746  0.20476440
   0.80387924  0.90208895  0.29049998
   0.79887014  0.00317053  0.41354105
   0.80440758  0.10261733  0.50185311
   0.89454850  0.20105340  0.69675626
   0.89516553  0.31161046  0.81184034
   0.90106631  0.41310110  0.89889546
   0.91182667  0.50751336  0.99390364
   0.90592631  0.58917027  0.09401119
   0.90390683  0.70320401  0.19004258
   0.90657864  0.79482796  0.30009508
   0.90474385  0.90684910  0.39557732
   0.90915941  0.99859011  0.49608038
   0.90949771  0.09980976  0.59447416
   0.99840193  0.20124835  0.79634972
   0.99911951  0.29865248  0.90632477
   0.00159607  0.41714456  0.99131970
   0.01096489  0.50170121  0.09532457
   0.01279107  0.59336628  0.19846882
   0.01230307  0.69045324  0.29824290
   0.00226802  0.79185258  0.40021328
   0.00099101  0.90842623  0.48453176
   0.01060464  0.98823490  0.59632015
   0.99398413  0.09075127  0.70172141
   0.11449343  0.20752543  0.90168455
   0.10515109  0.32044625  0.00438609
   0.10217233  0.41799121  0.10457328
   0.09051745  0.50700075  0.21199231
   0.09613045  0.59409512  0.31104747
   0.09576377  0.70749542  0.41432995
   0.10323880  0.79617650  0.49286053
   0.10042846  0.89169436  0.59796102
   0.10028397  0.00068623  0.70505092
   0.10065654  0.11522089  0.79540589
   0.29930132  0.31291336  0.98665735
   0.29877969  0.41916193  0.09902594
   0.30844165  0.50908690  0.22892202
   0.29140877  0.60822397  0.29865197
   0.29928492  0.70261143  0.39422197
   0.30157355  0.79150640  0.50364613
   0.29696677  0.88337036  0.59797583
   0.29213788  0.99477809  0.70515255
   0.28861965  0.08576194  0.80630994
   0.29686887  0.20302750  0.89554450
   0.39251279  0.31256284  0.10687757
   0.40561132  0.40091664  0.20984648
   0.40822290  0.51953184  0.30199955
   0.41065836  0.60288868  0.40316924
   0.40716107  0.69072898  0.49682976
   0.40395208  0.78611912  0.59578947
   0.40604437  0.90590091  0.70526381
   0.40320000  0.99746579  0.80606571
   0.39668844  0.10695007  0.89997631
   0.39054553  0.19413710  0.00780289
   0.48948340  0.28552510  0.19582485
   0.50941918  0.39917155  0.28974582
   0.51108130  0.49552354  0.39711980
   0.51429510  0.59124403  0.49957485
   0.51148123  0.69287308  0.59541650
   0.50217002  0.77949558  0.68870650
   0.49198478  0.89106932  0.79606282
   0.49305014  0.99658454  0.88728375
   0.49160618  0.11221580  0.00157991
   0.49660943  0.20701694  0.11261389
   0.60953123  0.29124926  0.29071471
   0.60692758  0.40426028  0.39648597
   0.60877272  0.48756656  0.49972725
   0.62743026  0.59655458  0.58796043
   0.59145797  0.68635699  0.69173149
   0.61131029  0.80078296  0.78899250
   0.59360959  0.91405135  0.89145547
   0.58987876  0.02082792  0.00077568
   0.59115475  0.11894095  0.10314670
   0.60907431  0.20449858  0.19334354
   0.69389806  0.28151150  0.39316951
   0.68904367  0.38784591  0.48829464
   0.71180004  0.48118881  0.58868123
   0.69796791  0.59592892  0.70116246
   0.69924744  0.69691515  0.79879145
   0.68299299  0.81972310  0.91184047
   0.68370343  0.90753857  0.00241112
   0.69407906  0.01498300  0.09010655
   0.70820881  0.10166924  0.19801572
   0.71689600  0.18930710  0.28968468
   0.79317804  0.30243540  0.50670931
   0.78814301  0.39456831  0.60130218
   0.78761424  0.49898235  0.70501766
   0.79619342  0.58686966  0.80217335
   0.78466751  0.72105560  0.90818259
   0.79811250  0.80498680  0.99371161
   0.79669709  0.89931589  0.10506512
   0.79732561  0.00680367  0.18695580
   0.81851287  0.10235213  0.29740671
   0.80590252  0.21238575  0.39429324
   0.89893700  0.30200060  0.61581293
   0.89373781  0.39356099  0.71083699
   0.90346484  0.49935939  0.78829408
   0.88081661  0.61329997  0.90023052
   0.89151806  0.71645325  0.99516489
   0.89779565  0.80869637  0.10507212
   0.90739102  0.89472679  0.19542471
   0.90092860  0.99403095  0.29616789
   0.90069321  0.10797176  0.39309527
   0.90732539  0.20795657  0.50887065
   0.99642298  0.29757743  0.69501928
   0.01286632  0.38972515  0.79918875
   0.99072359  0.49939642  0.89564681
   0.99795722  0.61613935  0.98826932
   0.00679484  0.69226591  0.09909178
   0.01319707  0.80000033  0.19497951
   0.01461435  0.89987613  0.30721175
   0.00509302  0.00944434  0.38682341
   0.99051798  0.09746739  0.49165655
   0.98501704  0.19246891  0.60099012
   0.09607834  0.28161607  0.78738030
   0.09959091  0.39276846  0.88219201
   0.11098649  0.49969675  0.98862054
   0.09715053  0.60569272  0.09003237
   0.11719531  0.68736972  0.19401424
   0.09861055  0.79148717  0.30308913
   0.09478681  0.88744218  0.39369246
   0.10418672  0.99216819  0.49389694
   0.09325968  0.08638606  0.59374161
   0.10025044  0.18715830  0.68587671
   0.20203864  0.30253514  0.88398532
   0.20279327  0.41290889  0.98562830
   0.18908489  0.49227469  0.10236405
   0.19973130  0.60051648  0.19361864
   0.19390752  0.70333760  0.29918026
   0.21124298  0.80829160  0.40096340
   0.20231176  0.89535736  0.49179710
   0.20660554  0.98936118  0.60235251
   0.19970265  0.08462121  0.69535784
   0.20658189  0.18423854  0.77229902
   0.39156643  0.39641488  0.98819805
   0.40739007  0.50033106  0.09480620
   0.41342047  0.60772769  0.20728653
   0.38648799  0.71149523  0.29789555
   0.39931601  0.79615341  0.40390352
   0.41128903  0.88328784  0.50119389
   0.39316897  0.99694232  0.58372001
   0.41454122  0.10237730  0.70041616
   0.39034685  0.20208024  0.78649962
   0.40368629  0.29772331  0.89610939
   0.49545936  0.39245888  0.09959642
   0.51828010  0.50965018  0.18796530
   0.49597134  0.60152740  0.30912777
   0.51495633  0.69713586  0.40038400
   0.51063344  0.79452156  0.49606823
   0.50525310  0.88473139  0.58814751
   0.50216251  0.00129175  0.68590135
   0.49858880  0.10582860  0.79934848
   0.49976301  0.20517701  0.89487803
   0.48417363  0.27486317  0.00396125
   0.60328170  0.39935608  0.20115408
   0.60252640  0.49411053  0.29820798
   0.63068698  0.59077140  0.40553853
   0.61985097  0.68032692  0.49740274
   0.60627142  0.78485910  0.59905556
   0.59315954  0.89721179  0.69012269
   0.58843478  0.00370242  0.79006971
   0.57384631  0.10378699  0.89575470
   0.59924773  0.20038514  0.00083044
   0.60369446  0.30111423  0.10905214
   0.70268214  0.40601286  0.29092202
   0.72124695  0.49810261  0.39761029
   0.72135123  0.58731853  0.49583976
   0.71947000  0.70300154  0.58678059
   0.71667889  0.80188498  0.69852261
   0.69502206  0.90571152  0.78689017
   0.68763996  0.01208799  0.89676447
   0.67737758  0.11887122  0.99892338
   0.69544235  0.20251219  0.10309381
   0.71165579  0.29303806  0.20960409
   0.80197027  0.38921363  0.40086682
   0.81234108  0.48370395  0.49537661
   0.80176069  0.59903639  0.60108356
   0.79380827  0.69128771  0.69516290
   0.78381869  0.81328862  0.79770062
   0.79882699  0.91663205  0.88690800
   0.78646815  0.00000443  0.99631057
   0.79603668  0.10762840  0.08389994
   0.80517967  0.18918709  0.19109982
   0.80858461  0.31341304  0.30047656
   0.89604040  0.40088304  0.52245151
   0.89444897  0.50149363  0.61688547
   0.89648785  0.60310990  0.70403427
   0.87996496  0.70659223  0.80160994
   0.90416430  0.80639950  0.89702777
   0.90515266  0.91174744  0.00751728
   0.90411743  0.00134232  0.10230108
   0.90215191  0.10611897  0.19123653
   0.89862218  0.20301013  0.29029803
   0.91281984  0.30896104  0.40349285
   0.99849426  0.40875233  0.61150704
   0.00136353  0.48387788  0.70014921
   0.98800712  0.59466495  0.79124216
   0.99016970  0.71461260  0.88681202
   0.00994382  0.79835446  0.00213121
   0.00789651  0.90139217  0.10958969
   0.00051448  0.00194744  0.19923186
   0.99592993  0.09423062  0.28644621
   0.99850511  0.19905488  0.39450369
   0.00493706  0.29788155  0.50149779
   0.10062286  0.38977228  0.71175402
   0.09473315  0.51002928  0.79486474
   0.09537349  0.60064476  0.90345012
   0.10489731  0.69728903  0.98810237
   0.10003701  0.80208385  0.08737813
   0.11088928  0.89959295  0.21891982
   0.10218095  0.00758306  0.31018259
   0.08713843  0.09936407  0.40305788
   0.09456950  0.21121492  0.52278121
   0.10386298  0.31097756  0.59512507
   0.19566664  0.40066443  0.78972510
   0.20564829  0.49845633  0.87402049
   0.21003943  0.59569762  0.99417956
   0.20122850  0.69871501  0.09421255
   0.19319132  0.80586725  0.20256301
   0.19945203  0.90802261  0.30435546
   0.20218167  0.00498031  0.41080901
   0.18796468  0.10656695  0.50862608
   0.18153724  0.19184888  0.60253938
   0.20034057  0.28757609  0.69141181
   0.29914584  0.39170464  0.87339046
   0.28468671  0.51160747  0.98734521
   0.29098661  0.57822049  0.09622633
   0.27978374  0.70752728  0.18623167
   0.30186256  0.81207776  0.30166442
   0.31425504  0.89805687  0.40304898
   0.30437492  0.97535808  0.50408709
   0.29582826  0.08938266  0.60506269
   0.30017199  0.18617487  0.67606393
   0.30633915  0.28792084  0.78032806
