 500 500   0   0
  0.2153794E+02  0.2208300E-08  0.2208300E-08  0.2208300E-08  0.5000000E-15
  1.000000000000000E-004
  CAR 
 Li                                      
      3.08629076     -3.49119724  301      0.22999300      1.00000000
     -3.491  0.0000E+00  0.0000E+00
     -3.469  0.0000E+00  0.0000E+00
     -3.447  0.0000E+00  0.0000E+00
     -3.425  0.0000E+00  0.0000E+00
     -3.403  0.0000E+00  0.0000E+00
     -3.382  0.0000E+00  0.0000E+00
     -3.360  0.9115E-13  0.1998E-14
     -3.338  0.2231E-09  0.4893E-11
     -3.316  0.1925E-06  0.4226E-08
     -3.294  0.5857E-04  0.1288E-05
     -3.272  0.6332E-02  0.1401E-03
     -3.250  0.2458E+00  0.5530E-02
     -3.228  0.3474E+01  0.8171E-01
     -3.206  0.1814E+02  0.4794E+00
     -3.184  0.3541E+02  0.1256E+01
     -3.162  0.2605E+02  0.1827E+01
     -3.140  0.8107E+01  0.2005E+01
     -3.118  0.1061E+02  0.2237E+01
     -3.097  0.4381E+02  0.3198E+01
     -3.075  0.8835E+02  0.5135E+01
     -3.053  0.8484E+02  0.6995E+01
     -3.031  0.3837E+02  0.7836E+01
     -3.009  0.1388E+02  0.8141E+01
     -2.987  0.3429E+02  0.8893E+01
     -2.965  0.7893E+02  0.1062E+02
     -2.943  0.9016E+02  0.1260E+02
     -2.921  0.5031E+02  0.1370E+02
     -2.899  0.1719E+02  0.1408E+02
     -2.877  0.3142E+02  0.1477E+02
     -2.855  0.8637E+02  0.1666E+02
     -2.833  0.1205E+03  0.1930E+02
     -2.812  0.8641E+02  0.2120E+02
     -2.790  0.3625E+02  0.2199E+02
     -2.768  0.3710E+02  0.2281E+02
     -2.746  0.9472E+02  0.2488E+02
     -2.724  0.1553E+03  0.2829E+02
     -2.702  0.1519E+03  0.3162E+02
     -2.680  0.8341E+02  0.3345E+02
     -2.658  0.2837E+02  0.3407E+02
     -2.636  0.3561E+02  0.3485E+02
     -2.614  0.8102E+02  0.3663E+02
     -2.592  0.9150E+02  0.3863E+02
     -2.570  0.5039E+02  0.3974E+02
     -2.548  0.2568E+02  0.4030E+02
     -2.526  0.6014E+02  0.4162E+02
     -2.505  0.1296E+03  0.4446E+02
     -2.483  0.1629E+03  0.4803E+02
     -2.461  0.1213E+03  0.5069E+02
     -2.439  0.6047E+02  0.5202E+02
     -2.417  0.6589E+02  0.5346E+02
     -2.395  0.1426E+03  0.5659E+02
     -2.373  0.2139E+03  0.6128E+02
     -2.351  0.2107E+03  0.6590E+02
     -2.329  0.1315E+03  0.6878E+02
     -2.307  0.5346E+02  0.6995E+02
     -2.285  0.4193E+02  0.7087E+02
     -2.263  0.7725E+02  0.7257E+02
     -2.241  0.8826E+02  0.7450E+02
     -2.220  0.5427E+02  0.7569E+02
     -2.198  0.3472E+02  0.7645E+02
     -2.176  0.8155E+02  0.7824E+02
     -2.154  0.1581E+03  0.8171E+02
     -2.132  0.1804E+03  0.8566E+02
     -2.110  0.1310E+03  0.8854E+02
     -2.088  0.7056E+02  0.9008E+02
     -2.066  0.7811E+02  0.9180E+02
     -2.044  0.1482E+03  0.9504E+02
     -2.022  0.2058E+03  0.9956E+02
     -2.000  0.2008E+03  0.1040E+03
     -1.978  0.1298E+03  0.1068E+03
     -1.956  0.6382E+02  0.1082E+03
     -1.935  0.7968E+02  0.1100E+03
     -1.913  0.1441E+03  0.1131E+03
     -1.891  0.1589E+03  0.1166E+03
     -1.869  0.1119E+03  0.1190E+03
     -1.847  0.7758E+02  0.1207E+03
     -1.825  0.1185E+03  0.1233E+03
     -1.803  0.1910E+03  0.1275E+03
     -1.781  0.2129E+03  0.1322E+03
     -1.759  0.1641E+03  0.1358E+03
     -1.737  0.9347E+02  0.1378E+03
     -1.715  0.8234E+02  0.1397E+03
     -1.693  0.1456E+03  0.1428E+03
     -1.671  0.2115E+03  0.1475E+03
     -1.650  0.2074E+03  0.1520E+03
     -1.628  0.1324E+03  0.1549E+03
     -1.606  0.6876E+02  0.1564E+03
     -1.584  0.8951E+02  0.1584E+03
     -1.562  0.1426E+03  0.1615E+03
     -1.540  0.1465E+03  0.1647E+03
     -1.518  0.1037E+03  0.1670E+03
     -1.496  0.6957E+02  0.1685E+03
     -1.474  0.1003E+03  0.1707E+03
     -1.452  0.1548E+03  0.1741E+03
     -1.430  0.1523E+03  0.1775E+03
     -1.408  0.1031E+03  0.1797E+03
     -1.386  0.9709E+02  0.1819E+03
     -1.364  0.1727E+03  0.1856E+03
     -1.343  0.2634E+03  0.1914E+03
     -1.321  0.3001E+03  0.1980E+03
     -1.299  0.2659E+03  0.2038E+03
     -1.277  0.1863E+03  0.2079E+03
     -1.255  0.1258E+03  0.2107E+03
     -1.233  0.1526E+03  0.2140E+03
     -1.211  0.2130E+03  0.2187E+03
     -1.189  0.2104E+03  0.2233E+03
     -1.167  0.1480E+03  0.2265E+03
     -1.145  0.9147E+02  0.2285E+03
     -1.123  0.1016E+03  0.2308E+03
     -1.101  0.1543E+03  0.2342E+03
     -1.079  0.1791E+03  0.2381E+03
     -1.058  0.1513E+03  0.2414E+03
     -1.036  0.1473E+03  0.2446E+03
     -1.014  0.1964E+03  0.2489E+03
     -0.992  0.2246E+03  0.2539E+03
     -0.970  0.2211E+03  0.2587E+03
     -0.948  0.1862E+03  0.2628E+03
     -0.926  0.1133E+03  0.2653E+03
     -0.904  0.6488E+02  0.2667E+03
     -0.882  0.7720E+02  0.2684E+03
     -0.860  0.9006E+02  0.2704E+03
     -0.838  0.8343E+02  0.2722E+03
     -0.816  0.1186E+03  0.2748E+03
     -0.794  0.2003E+03  0.2792E+03
     -0.773  0.2617E+03  0.2849E+03
     -0.751  0.2812E+03  0.2911E+03
     -0.729  0.2646E+03  0.2969E+03
     -0.707  0.2337E+03  0.3020E+03
     -0.685  0.2172E+03  0.3068E+03
     -0.663  0.2216E+03  0.3116E+03
     -0.641  0.2519E+03  0.3172E+03
     -0.619  0.2732E+03  0.3231E+03
     -0.597  0.2490E+03  0.3286E+03
     -0.575  0.1947E+03  0.3329E+03
     -0.553  0.1513E+03  0.3362E+03
     -0.531  0.1396E+03  0.3393E+03
     -0.509  0.1386E+03  0.3423E+03
     -0.487  0.1357E+03  0.3453E+03
     -0.466  0.1627E+03  0.3488E+03
     -0.444  0.2075E+03  0.3534E+03
     -0.422  0.2199E+03  0.3582E+03
     -0.400  0.1971E+03  0.3625E+03
     -0.378  0.1691E+03  0.3662E+03
     -0.356  0.1668E+03  0.3699E+03
     -0.334  0.2098E+03  0.3745E+03
     -0.312  0.2530E+03  0.3800E+03
     -0.290  0.2632E+03  0.3858E+03
     -0.268  0.2463E+03  0.3912E+03
     -0.246  0.2190E+03  0.3960E+03
     -0.224  0.2024E+03  0.4004E+03
     -0.202  0.2016E+03  0.4049E+03
     -0.181  0.1957E+03  0.4092E+03
     -0.159  0.1769E+03  0.4130E+03
     -0.137  0.1710E+03  0.4168E+03
     -0.115  0.1901E+03  0.4210E+03
     -0.093  0.2157E+03  0.4257E+03
     -0.071  0.2364E+03  0.4309E+03
     -0.049  0.2393E+03  0.4361E+03
     -0.027  0.2275E+03  0.4411E+03
     -0.005  0.2193E+03  0.4459E+03
      0.017  0.2226E+03  0.4508E+03
      0.039  0.2293E+03  0.4558E+03
      0.061  0.2169E+03  0.4606E+03
      0.083  0.1941E+03  0.4648E+03
      0.104  0.1935E+03  0.4691E+03
      0.126  0.2177E+03  0.4738E+03
      0.148  0.2374E+03  0.4791E+03
      0.170  0.2483E+03  0.4845E+03
      0.192  0.2559E+03  0.4901E+03
      0.214  0.2609E+03  0.4958E+03
      0.236  0.2613E+03  0.5016E+03
      0.258  0.2437E+03  0.5069E+03
      0.280  0.2280E+03  0.5119E+03
      0.302  0.2271E+03  0.5169E+03
      0.324  0.2384E+03  0.5221E+03
      0.346  0.2601E+03  0.5278E+03
      0.368  0.2802E+03  0.5340E+03
      0.390  0.2882E+03  0.5403E+03
      0.411  0.2906E+03  0.5466E+03
      0.433  0.2874E+03  0.5529E+03
      0.455  0.2793E+03  0.5591E+03
      0.477  0.2787E+03  0.5652E+03
      0.499  0.2836E+03  0.5714E+03
      0.521  0.2716E+03  0.5774E+03
      0.543  0.2419E+03  0.5827E+03
      0.565  0.2235E+03  0.5876E+03
      0.587  0.2150E+03  0.5923E+03
      0.609  0.2045E+03  0.5968E+03
      0.631  0.1973E+03  0.6011E+03
      0.653  0.2114E+03  0.6057E+03
      0.675  0.2285E+03  0.6107E+03
      0.696  0.2249E+03  0.6157E+03
      0.718  0.2126E+03  0.6203E+03
      0.740  0.2111E+03  0.6249E+03
      0.762  0.2092E+03  0.6295E+03
      0.784  0.2021E+03  0.6340E+03
      0.806  0.1922E+03  0.6382E+03
      0.828  0.1946E+03  0.6424E+03
      0.850  0.2136E+03  0.6471E+03
      0.872  0.2345E+03  0.6523E+03
      0.894  0.2424E+03  0.6576E+03
      0.916  0.2364E+03  0.6628E+03
      0.938  0.2393E+03  0.6680E+03
      0.960  0.2483E+03  0.6735E+03
      0.981  0.2474E+03  0.6789E+03
      1.003  0.2372E+03  0.6841E+03
      1.025  0.2333E+03  0.6892E+03
      1.047  0.2454E+03  0.6946E+03
      1.069  0.2427E+03  0.6999E+03
      1.091  0.2261E+03  0.7049E+03
      1.113  0.2186E+03  0.7096E+03
      1.135  0.2189E+03  0.7144E+03
      1.157  0.2139E+03  0.7191E+03
      1.179  0.2036E+03  0.7236E+03
      1.201  0.1950E+03  0.7279E+03
      1.223  0.2045E+03  0.7324E+03
      1.245  0.2215E+03  0.7372E+03
      1.267  0.2202E+03  0.7420E+03
      1.288  0.2103E+03  0.7467E+03
      1.310  0.2038E+03  0.7511E+03
      1.332  0.2052E+03  0.7556E+03
      1.354  0.2009E+03  0.7600E+03
      1.376  0.1878E+03  0.7641E+03
      1.398  0.1752E+03  0.7680E+03
      1.420  0.1677E+03  0.7717E+03
      1.442  0.1711E+03  0.7754E+03
      1.464  0.1685E+03  0.7791E+03
      1.486  0.1534E+03  0.7825E+03
      1.508  0.1505E+03  0.7858E+03
      1.530  0.1615E+03  0.7893E+03
      1.552  0.1728E+03  0.7931E+03
      1.573  0.1759E+03  0.7970E+03
      1.595  0.1782E+03  0.8009E+03
      1.617  0.1883E+03  0.8050E+03
      1.639  0.1975E+03  0.8093E+03
      1.661  0.1953E+03  0.8136E+03
      1.683  0.1926E+03  0.8178E+03
      1.705  0.2046E+03  0.8223E+03
      1.727  0.2147E+03  0.8270E+03
      1.749  0.2128E+03  0.8317E+03
      1.771  0.2085E+03  0.8363E+03
      1.793  0.2097E+03  0.8409E+03
      1.815  0.2009E+03  0.8453E+03
      1.837  0.1849E+03  0.8493E+03
      1.858  0.1831E+03  0.8533E+03
      1.880  0.1837E+03  0.8574E+03
      1.902  0.1721E+03  0.8611E+03
      1.924  0.1610E+03  0.8647E+03
      1.946  0.1607E+03  0.8682E+03
      1.968  0.1662E+03  0.8718E+03
      1.990  0.1650E+03  0.8754E+03
      2.012  0.1602E+03  0.8790E+03
      2.034  0.1669E+03  0.8826E+03
      2.056  0.1679E+03  0.8863E+03
      2.078  0.1649E+03  0.8899E+03
      2.100  0.1717E+03  0.8937E+03
      2.122  0.1759E+03  0.8975E+03
      2.144  0.1726E+03  0.9013E+03
      2.165  0.1622E+03  0.9049E+03
      2.187  0.1501E+03  0.9082E+03
      2.209  0.1364E+03  0.9112E+03
      2.231  0.1391E+03  0.9142E+03
      2.253  0.1575E+03  0.9177E+03
      2.275  0.1596E+03  0.9212E+03
      2.297  0.1547E+03  0.9245E+03
      2.319  0.1593E+03  0.9280E+03
      2.341  0.1617E+03  0.9316E+03
      2.363  0.1597E+03  0.9351E+03
      2.385  0.1569E+03  0.9385E+03
      2.407  0.1529E+03  0.9419E+03
      2.429  0.1425E+03  0.9450E+03
      2.450  0.1403E+03  0.9481E+03
      2.472  0.1574E+03  0.9515E+03
      2.494  0.1672E+03  0.9552E+03
      2.516  0.1686E+03  0.9589E+03
      2.538  0.1747E+03  0.9627E+03
      2.560  0.1754E+03  0.9666E+03
      2.582  0.1697E+03  0.9703E+03
      2.604  0.1677E+03  0.9740E+03
      2.626  0.1670E+03  0.9776E+03
      2.648  0.1679E+03  0.9813E+03
      2.670  0.1665E+03  0.9850E+03
      2.692  0.1542E+03  0.9883E+03
      2.714  0.1469E+03  0.9916E+03
      2.735  0.1492E+03  0.9948E+03
      2.757  0.1387E+03  0.9979E+03
      2.779  0.1053E+03  0.1000E+04
      2.801  0.5981E+02  0.1001E+04
      2.823  0.1985E+02  0.1002E+04
      2.845  0.3002E+01  0.1002E+04
      2.867  0.1819E+00  0.1002E+04
      2.889  0.4173E-02  0.1002E+04
      2.911  0.3516E-04  0.1002E+04
      2.933  0.1069E-06  0.1002E+04
      2.955  0.1157E-09  0.1002E+04
      2.977  0.4304E-13  0.1002E+04
      2.999  0.0000E+00  0.1002E+04
      3.021  0.0000E+00  0.1002E+04
      3.042  0.0000E+00  0.1002E+04
      3.064  0.0000E+00  0.1002E+04
      3.086  0.0000E+00  0.1002E+04
