       N       E                     dE             d eps       ncg     rms          rms(c)
DAV:   1    -0.273374789048E+03   -0.27337E+03   -0.11962E+05  4008   0.651E+02
DAV:   2    -0.860556823144E+03   -0.58718E+03   -0.53693E+03  4596   0.658E+01
DAV:   3    -0.904122448178E+03   -0.43566E+02   -0.39914E+02  5240   0.141E+01
DAV:   4    -0.905657386935E+03   -0.15349E+01   -0.15123E+01  4736   0.290E+00
DAV:   5    -0.905695567820E+03   -0.38181E-01   -0.38106E-01  4936   0.473E-01    0.106E+01
DAV:   6    -0.897585308836E+03    0.81103E+01   -0.12972E+01  4808   0.474E+00    0.766E+00
DAV:   7    -0.893305854750E+03    0.42795E+01   -0.10885E+01  4984   0.457E+00    0.585E+00
DAV:   8    -0.889137582286E+03    0.41683E+01   -0.68443E+00  4832   0.287E+00    0.305E+00
DAV:   9    -0.888389382226E+03    0.74820E+00   -0.42419E+00  4560   0.161E+00    0.150E+00
DAV:  10    -0.888528762462E+03   -0.13938E+00   -0.10445E+00  4792   0.103E+00    0.144E+00
DAV:  11    -0.888292173482E+03    0.23659E+00   -0.44714E-01  4776   0.672E-01    0.664E-01
DAV:  12    -0.888292049403E+03    0.12408E-03   -0.10365E-01  4696   0.291E-01    0.435E-01
DAV:  13    -0.888283004938E+03    0.90445E-02   -0.46004E-02  4848   0.234E-01    0.297E-01
DAV:  14    -0.888277114531E+03    0.58904E-02   -0.13093E-02  4704   0.126E-01    0.150E-01
DAV:  15    -0.888276217222E+03    0.89731E-03   -0.49136E-03  4640   0.720E-02    0.863E-02
DAV:  16    -0.888276245798E+03   -0.28577E-04   -0.19410E-03  4912   0.515E-02    0.730E-02
DAV:  17    -0.888275639643E+03    0.60616E-03   -0.90142E-04  4816   0.319E-02    0.254E-02
DAV:  18    -0.888275630445E+03    0.91978E-05   -0.32458E-04  4528   0.149E-02    0.143E-02
DAV:  19    -0.888275625290E+03    0.51551E-05   -0.70334E-05  4872   0.862E-03
   1 F= -.88827563E+03 E0= -.88821716E+03  d E =-.116931E+00
