Li                                      
           1
    22.083000   -0.000000    0.000000
    -0.000000   22.083000    0.000000
     0.000000    0.000000   22.083000
   Li
   500
Direct configuration=     1
   0.98892820  0.99101727  0.02101698
   0.98441959  0.08370654  0.10679548
   0.98364509  0.19902072  0.21424655
   0.98888622  0.30310734  0.29695683
   0.00531514  0.39772555  0.40030710
   0.99174556  0.46252462  0.49680197
   0.99323232  0.53101665  0.58333413
   0.02066105  0.67765011  0.62945121
   0.02505216  0.78842935  0.77592940
   0.01501935  0.90569308  0.88757082
   0.09437216  0.99815130  0.09389651
   0.08393131  0.09318138  0.20981805
   0.10434000  0.22454470  0.30759664
   0.09827180  0.28917178  0.41267281
   0.12162372  0.37445932  0.53278974
   0.12475981  0.48339844  0.59568769
   0.10111237  0.55894001  0.69376157
   0.09923178  0.67149380  0.77566800
   0.10673066  0.77461017  0.90826332
   0.10420241  0.88240671  0.00838309
   0.18351820  0.99453414  0.21509543
   0.21577340  0.10225414  0.28777936
   0.21779446  0.19327376  0.38289117
   0.21841887  0.30676452  0.51630518
   0.22216504  0.37147294  0.61844275
   0.21499664  0.49454030  0.70798886
   0.20001822  0.60552509  0.78316443
   0.20513613  0.67524667  0.91023309
   0.18395140  0.79130694  0.99925631
   0.20754789  0.89362472  0.11234809
   0.31455774  0.00599279  0.32371149
   0.30816332  0.11485532  0.38241196
   0.30953111  0.19884937  0.50524946
   0.31341358  0.28680043  0.58919204
   0.31205124  0.39618929  0.69086312
   0.29302787  0.49950221  0.79549067
   0.29825653  0.60788418  0.89314905
   0.30312825  0.69186555  0.01637359
   0.30975477  0.80862398  0.11559920
   0.31327207  0.90342288  0.19899188
   0.41703949  0.02618107  0.42726195
   0.41642668  0.10227261  0.49865716
   0.40550223  0.20137797  0.60448597
   0.40078589  0.32837344  0.71378885
   0.42092770  0.40013972  0.81993311
   0.42837881  0.50905570  0.89369231
   0.40546357  0.60744359  0.99557420
   0.40136186  0.69499833  0.09872930
   0.41616280  0.81676722  0.21863976
   0.40092486  0.88938282  0.31437099
   0.50901659  0.00515371  0.51390258
   0.49399053  0.08498975  0.63235348
   0.51334410  0.19310207  0.71506379
   0.51783295  0.28216114  0.82801678
   0.50955144  0.40573247  0.90829635
   0.49381338  0.50963717  0.98849353
   0.51045325  0.60304674  0.09496925
   0.48623478  0.71751023  0.19289964
   0.49776392  0.82575855  0.32842988
   0.52717618  0.90827560  0.42042863
   0.61018917  0.99888433  0.61148287
   0.62653942  0.10755026  0.68248009
   0.62498084  0.18274484  0.82096646
   0.61198675  0.31016323  0.94416136
   0.59614334  0.40336729  0.00508223
   0.58311934  0.49582122  0.07476290
   0.58746545  0.62123008  0.20671766
   0.61427664  0.73483374  0.31151641
   0.57458962  0.78353322  0.41998434
   0.60861142  0.87820352  0.51758271
   0.70586791  0.99054902  0.70181766
   0.72056576  0.10227584  0.78742323
   0.71085951  0.20570284  0.91778653
   0.74707320  0.29860089  0.00705094
   0.70473499  0.40334683  0.09921580
   0.69406228  0.51662402  0.20498970
   0.69118448  0.62426135  0.29844057
   0.70132127  0.70864948  0.41157867
   0.71076621  0.79481867  0.49102663
   0.69561933  0.90175603  0.60110671
   0.79750941  0.01179853  0.82147431
   0.80231764  0.08595462  0.91107447
   0.80942906  0.17424118  0.00772821
   0.80818086  0.30452241  0.08994181
   0.80058675  0.41473285  0.20859088
   0.80220208  0.50372264  0.29846896
   0.81513165  0.59233514  0.38722145
   0.81556036  0.70950383  0.47352247
   0.80861578  0.80105268  0.59615801
   0.82118315  0.90739773  0.70317470
   0.91524441  0.00900705  0.91219993
   0.91565529  0.06079778  0.00456015
   0.90964000  0.19842545  0.09722924
   0.89505311  0.31267420  0.19001268
   0.87930462  0.41431768  0.29588846
   0.90286261  0.48707645  0.40368123
   0.88100297  0.57688855  0.49167889
   0.89373617  0.68890084  0.59837077
   0.92864163  0.81588065  0.69981591
   0.93648131  0.90801590  0.80443723
   0.09337436  0.08843947  0.02278150
   0.08001995  0.18426843  0.10045733
   0.08884640  0.29277226  0.18361373
   0.11319637  0.40644053  0.29445355
   0.11027087  0.49200866  0.39170999
   0.08488329  0.58136912  0.47988506
   0.09401329  0.68151321  0.55397834
   0.08411010  0.78755459  0.69319878
   0.12886628  0.88645686  0.81357663
   0.10194368  0.98801114  0.92409609
   0.17395214  0.08776968  0.11320401
   0.18688566  0.21005188  0.20964599
   0.19379327  0.31753025  0.28500853
   0.20800958  0.40293114  0.41801944
   0.19053437  0.47580138  0.49855020
   0.19956254  0.59794555  0.58641084
   0.17087390  0.67929922  0.69412761
   0.20456938  0.79424865  0.78572270
   0.17976483  0.91297101  0.90911705
   0.20832017  0.99435613  0.01553122
   0.29058862  0.11434635  0.20678282
   0.30486950  0.21970864  0.28270742
   0.29650917  0.32192252  0.38528952
   0.30419350  0.41018956  0.52081928
   0.27793366  0.50102630  0.63265492
   0.29018981  0.59794853  0.68662863
   0.28452930  0.70006832  0.77139534
   0.25098460  0.78153565  0.90087792
   0.27177641  0.89558717  0.01659846
   0.30939069  0.01745762  0.11600934
   0.43869416  0.10986664  0.29743281
   0.38460700  0.19470831  0.38247821
   0.38693353  0.30250559  0.49207034
   0.38857880  0.37999296  0.59754301
   0.38377165  0.49978386  0.68631472
   0.39987339  0.60789376  0.78284448
   0.38613508  0.69921523  0.88438871
   0.38645799  0.81414821  0.96266957
   0.38425162  0.91113975  0.08045534
   0.38527184  0.99584521  0.19741019
   0.49865583  0.09773228  0.39134058
   0.47450816  0.21866169  0.51150986
   0.48587728  0.29668348  0.60507718
   0.52124027  0.41430224  0.70584028
   0.52205821  0.52432785  0.79104157
   0.49295454  0.59624571  0.88590976
   0.47622426  0.69674156  0.98896388
   0.45253365  0.81504480  0.08899985
   0.50189091  0.89217371  0.21288786
   0.48825877  0.98420014  0.29715262
   0.59297025  0.10698460  0.50809297
   0.59687318  0.18202154  0.60319822
   0.58910055  0.31380605  0.70109276
   0.61577225  0.41962020  0.80552774
   0.61232661  0.50955516  0.91056400
   0.60536022  0.62254498  0.98104937
   0.57361894  0.71087470  0.08542473
   0.58832308  0.79491828  0.19308411
   0.58083788  0.88020497  0.32203140
   0.57870853  0.01074849  0.38825369
   0.71677906  0.10955944  0.60213341
   0.70348347  0.19543968  0.68887102
   0.69800515  0.27876791  0.80746441
   0.72183914  0.39975387  0.89877303
   0.69405732  0.50773800  0.00925659
   0.68056536  0.63665428  0.11627320
   0.67057142  0.72859670  0.20485910
   0.69252707  0.80872318  0.32250738
   0.68703690  0.89039198  0.40947479
   0.71364871  0.01776005  0.48360865
   0.81515992  0.11744644  0.70624917
   0.81017490  0.21072087  0.82816684
   0.80702158  0.32583681  0.90406538
   0.79807216  0.40925494  0.01347428
   0.79067659  0.51213482  0.10743444
   0.77683440  0.62891575  0.19441295
   0.78345341  0.69388291  0.30608614
   0.80394288  0.80474460  0.41063258
   0.82000861  0.88664088  0.51462635
   0.78620226  0.02338837  0.62256477
   0.90103267  0.08953863  0.82008362
   0.89498243  0.20015951  0.90016855
   0.88871974  0.31497422  0.00858974
   0.90455779  0.41458808  0.10339621
   0.89914290  0.49336751  0.19768679
   0.91519191  0.57878289  0.28085728
   0.90870946  0.69850332  0.37378119
   0.93444636  0.79653678  0.49252625
   0.90962949  0.93331751  0.61692621
   0.89601625  0.01411868  0.72914189
   0.00221532  0.09990936  0.91838135
   0.98230508  0.19094183  0.01389725
   0.97785437  0.31635196  0.09545332
   0.00849660  0.41968413  0.19985346
   0.00138173  0.51481321  0.28622519
   0.98068265  0.59992532  0.38697129
   0.99795881  0.65949606  0.51937560
   0.98767370  0.79273437  0.59287463
   0.02223572  0.89964255  0.68936361
   0.02087619  0.98976367  0.79295841
   0.19174641  0.19361547  0.00509360
   0.18808870  0.29076374  0.10561302
   0.18375271  0.39986438  0.18470891
   0.22051310  0.49911940  0.28602460
   0.20460087  0.56471193  0.40502838
   0.20386845  0.70052452  0.49492612
   0.20014212  0.77187346  0.60607344
   0.20167648  0.89952443  0.69504250
   0.19477013  0.97309920  0.80383329
   0.18660312  0.09011807  0.90885645
   0.30046675  0.20166476  0.11099174
   0.27531269  0.30121275  0.19637780
   0.29483505  0.39906974  0.27218361
   0.30245171  0.52319343  0.38919939
   0.30936067  0.59030292  0.51626772
   0.28811177  0.72421742  0.58205871
   0.28376737  0.77568965  0.70502726
   0.30576924  0.88362045  0.81327172
   0.30908863  0.98125662  0.90983368
   0.29064393  0.10012720  0.01239232
   0.40469581  0.21341269  0.20130338
   0.40943247  0.32968179  0.31301291
   0.40003828  0.42569330  0.41760471
   0.36753767  0.50424489  0.49924663
   0.39740303  0.59752624  0.60763744
   0.39244014  0.69913465  0.68922093
   0.40339222  0.78699283  0.79597158
   0.38849155  0.88430536  0.90768679
   0.39793054  0.01820253  0.96702647
   0.39412668  0.07706579  0.09740944
   0.50086458  0.22749611  0.29583776
   0.49770629  0.30011622  0.40798258
   0.49503423  0.39058129  0.51353854
   0.48239512  0.50107622  0.59451024
   0.53744133  0.61707718  0.70315054
   0.50139542  0.69488687  0.79838500
   0.51629894  0.78972076  0.90312020
   0.49393366  0.89622700  0.00137888
   0.50995425  0.00319588  0.10602559
   0.49481276  0.11938274  0.19479588
   0.60499732  0.18919959  0.38515070
   0.59403522  0.30378753  0.51473255
   0.59969110  0.40415495  0.60472809
   0.61540497  0.52765100  0.68681530
   0.63703255  0.64714229  0.82804203
   0.60015385  0.70946421  0.89187550
   0.60763640  0.78627456  0.00511323
   0.59541151  0.89418707  0.09565212
   0.58867786  0.99535462  0.20872435
   0.56985087  0.10743500  0.25534352
   0.70818998  0.19564783  0.49552966
   0.68782669  0.28384848  0.59104672
   0.68864324  0.40482129  0.71430186
   0.71286929  0.51220595  0.79699364
   0.72757616  0.62046786  0.88786880
   0.70481011  0.70100703  0.97397536
   0.71591027  0.79859941  0.08813718
   0.69880119  0.88634145  0.19730535
   0.68332816  0.98328559  0.30432633
   0.67923856  0.10416673  0.36699835
   0.79134546  0.17993078  0.59392979
   0.79057353  0.28895644  0.71038134
   0.80224232  0.39702791  0.76752694
   0.79217508  0.52444582  0.88658153
   0.79387019  0.61872127  0.00814890
   0.80655029  0.70889923  0.09287695
   0.80921639  0.80391399  0.19945058
   0.81107963  0.88701915  0.32591795
   0.82316801  0.99004251  0.39222175
   0.80969684  0.08179506  0.45866756
   0.88120291  0.19595712  0.70764121
   0.88559265  0.31456223  0.81817773
   0.88369710  0.41721387  0.91883531
   0.87646820  0.50446245  0.99211935
   0.89689612  0.61314400  0.10735169
   0.88465714  0.69159939  0.22344462
   0.91149693  0.79067416  0.32213833
   0.91423928  0.88252422  0.42122394
   0.87133773  0.97887060  0.51097406
   0.91067667  0.06917100  0.60856369
   0.99824838  0.20045229  0.79543586
   0.99015503  0.30067843  0.92015169
   0.99156341  0.42986630  0.98331888
   0.00279965  0.53353456  0.08315270
   0.02520884  0.62693900  0.19845783
   0.01892134  0.70996137  0.28153535
   0.03383873  0.78485390  0.40523865
   0.02975467  0.93953335  0.51319628
   0.02828172  0.00687446  0.59146234
   0.98380463  0.08761323  0.70595946
   0.09302769  0.19610951  0.93586036
   0.09451451  0.32417358  0.00712051
   0.07994743  0.40975687  0.08769648
   0.10224508  0.49761369  0.19981494
   0.11106259  0.59102575  0.30696565
   0.09810233  0.68795319  0.39418807
   0.11290084  0.80095678  0.49632321
   0.11618333  0.89342494  0.59645628
   0.10349872  0.00927530  0.71107441
   0.10280789  0.09874445  0.83996437
   0.30248303  0.30311679  0.03763530
   0.28190541  0.39395938  0.08084532
   0.27678293  0.49539779  0.18515309
   0.32748765  0.58708314  0.29704572
   0.31551347  0.65772001  0.43351881
   0.29424365  0.79052096  0.50737673
   0.27787200  0.88011603  0.60592316
   0.29522100  0.98378574  0.70368809
   0.28522943  0.10277102  0.79399688
   0.29221214  0.21391521  0.89461271
   0.38430419  0.29163893  0.10427198
   0.37308906  0.38488465  0.18482125
   0.38826497  0.50050539  0.24354400
   0.41253876  0.57580448  0.38415326
   0.42498549  0.67426878  0.48327157
   0.39002218  0.80182878  0.59094025
   0.41369247  0.89872671  0.69365033
   0.40986254  0.01208552  0.81850938
   0.38926497  0.11459569  0.88379675
   0.38267888  0.17066009  0.99507783
   0.51626168  0.29631472  0.21442490
   0.48327746  0.40333343  0.29476710
   0.46506420  0.47473535  0.37535724
   0.48035715  0.58897743  0.49367048
   0.49297588  0.72839503  0.60217208
   0.50840152  0.79423716  0.69306078
   0.51414593  0.90167840  0.79553506
   0.52971171  0.98648754  0.89052551
   0.51201282  0.07802493  0.99807315
   0.50703409  0.19042896  0.09887408
   0.60878397  0.31320702  0.29482078
   0.57191310  0.40923848  0.38437459
   0.58683529  0.49226310  0.48348092
   0.59297548  0.60791757  0.58712259
   0.58088315  0.68495844  0.66960959
   0.60733282  0.78312008  0.79407101
   0.60643687  0.88349130  0.87637150
   0.60541458  0.98172336  0.00819352
   0.62443269  0.10256510  0.11236232
   0.59358314  0.20917450  0.17996719
   0.70347147  0.29261813  0.40675509
   0.67817648  0.38420827  0.49794621
   0.70345875  0.51024999  0.59277953
   0.70552500  0.60169357  0.70540597
   0.72743607  0.72904697  0.76687813
   0.71379234  0.81032861  0.89863186
   0.69345649  0.90108188  0.00465992
   0.69784733  0.97668372  0.11366678
   0.69992253  0.08228373  0.21628768
   0.69181547  0.19651990  0.27470169
   0.79225936  0.29259514  0.50338729
   0.76844354  0.38384702  0.61551123
   0.79627395  0.48256189  0.68093030
   0.81363573  0.59156222  0.76754732
   0.78958180  0.69684308  0.87410941
   0.82880963  0.80794633  0.98474573
   0.79922305  0.90269958  0.09555897
   0.80341330  0.00331640  0.23110977
   0.80170112  0.08017999  0.31461455
   0.78318679  0.17694076  0.38918459
   0.86948730  0.29273539  0.58914293
   0.90630880  0.39688732  0.68588921
   0.87608370  0.49622559  0.78675075
   0.90031422  0.61240105  0.88973690
   0.92557397  0.72739504  0.97854530
   0.89569961  0.79755064  0.12228173
   0.90452080  0.88949448  0.21953941
   0.92960997  0.98887044  0.29809288
   0.92362765  0.08315807  0.40971208
   0.89050400  0.19899971  0.49522382
   0.98041445  0.30469909  0.67404028
   0.98453387  0.38421464  0.78359871
   0.97668953  0.50931901  0.87566448
   0.00105006  0.61299955  0.99459560
   0.99392985  0.68933619  0.08353709
   0.00520287  0.79276572  0.18994380
   0.01946615  0.88510212  0.31229739
   0.99080467  0.97990240  0.43380873
   0.00960703  0.12477437  0.49597099
   0.99764746  0.20995326  0.58712636
   0.07800615  0.28034051  0.78401094
   0.08897462  0.40303603  0.87727958
   0.09274714  0.50164205  0.00420828
   0.11543778  0.62409196  0.10029042
   0.11565141  0.72775657  0.21598854
   0.14462599  0.79587346  0.30756419
   0.12400491  0.90840652  0.40242274
   0.13145297  0.00682762  0.51686442
   0.10294816  0.09389798  0.59569417
   0.09104700  0.17977388  0.71218674
   0.19744824  0.28915559  0.90387044
   0.17098559  0.39643132  0.99385503
   0.18260993  0.49176047  0.08279150
   0.21032974  0.60768908  0.18470290
   0.21195273  0.66172613  0.28910781
   0.20768177  0.76541416  0.41423841
   0.20858424  0.90771737  0.49834136
   0.20361348  0.00043898  0.63872799
   0.20273742  0.09000349  0.70240692
   0.18558843  0.20374879  0.81930778
   0.41086169  0.41383706  0.01791928
   0.39550550  0.51921081  0.09988250
   0.40199118  0.62213474  0.17192529
   0.40254135  0.70320644  0.31675345
   0.41153486  0.79210473  0.41219092
   0.39369595  0.90294435  0.50099808
   0.36662816  0.99045821  0.61599152
   0.36481362  0.10888082  0.72835381
   0.38982497  0.23163692  0.82847714
   0.39797730  0.28176098  0.93217959
   0.49300760  0.39192339  0.07777265
   0.50835037  0.49707222  0.18509028
   0.50528080  0.60041286  0.28829719
   0.50207357  0.69877767  0.40729712
   0.48157694  0.82362463  0.49375996
   0.50314916  0.91727888  0.59358514
   0.48085083  0.01815541  0.70363419
   0.51224436  0.13536660  0.79103855
   0.51968612  0.19145955  0.90754991
   0.50280368  0.28844386  0.01717915
   0.61110691  0.39677511  0.19518644
   0.59263901  0.48823163  0.29173106
   0.57116167  0.61968735  0.39720149
   0.58998179  0.72164720  0.51646966
   0.59785191  0.79209378  0.59105618
   0.55897637  0.92332224  0.68837660
   0.61509961  0.00418246  0.79143248
   0.63654139  0.09101695  0.91172272
   0.61568825  0.19536799  0.00134373
   0.61141057  0.30773243  0.10192106
   0.68203688  0.40456899  0.28241124
   0.69299411  0.52040422  0.37936367
   0.69781904  0.60842872  0.49479833
   0.68419937  0.69710784  0.60696403
   0.69877170  0.81916857  0.68198034
   0.67492752  0.90883494  0.78196354
   0.68620786  0.99810098  0.91171320
   0.71035863  0.06889054  0.01274460
   0.69636611  0.20018513  0.10970088
   0.71746301  0.30274775  0.20280596
   0.77788910  0.40883232  0.39592314
   0.79425864  0.49852294  0.47487242
   0.78159329  0.61674282  0.58410851
   0.80547056  0.70806291  0.68818935
   0.81208536  0.84136843  0.80394039
   0.77987630  0.92813703  0.87888097
   0.80969168  0.99261064  0.00404579
   0.80920091  0.09215864  0.13065748
   0.79650046  0.19466901  0.21611284
   0.80319460  0.31094187  0.31860746
   0.86730433  0.39958828  0.51533114
   0.87565102  0.52070010  0.60100674
   0.89042111  0.59224840  0.67751001
   0.93210158  0.70322377  0.77634206
   0.89611107  0.81950413  0.88122183
   0.90558497  0.88929536  0.99407773
   0.88014403  0.98366130  0.10691780
   0.91034642  0.10239080  0.19951819
   0.89564687  0.19548695  0.29598687
   0.88682493  0.30807354  0.42265782
   0.98702702  0.42928394  0.60493977
   0.98743723  0.48624989  0.70993074
   0.99677167  0.59788944  0.78924858
   0.01105910  0.70562222  0.89934220
   0.01411875  0.81668706  0.98802606
   0.00912783  0.89688596  0.10282617
   0.00610703  0.97158855  0.19016112
   0.99806110  0.08754685  0.29137879
   0.01454991  0.21288802  0.39495157
   0.97966469  0.29900364  0.52713512
   0.08704872  0.40469032  0.68948869
   0.07492990  0.51628635  0.76675353
   0.12499543  0.59726688  0.88047262
   0.10399106  0.69549214  0.98677204
   0.11573511  0.79112882  0.10216467
   0.12340745  0.87180303  0.19475399
   0.09929979  0.01097872  0.29429935
   0.08038584  0.11020845  0.40048522
   0.08623366  0.20354431  0.49854596
   0.09181697  0.28671955  0.62627135
   0.19331179  0.38703694  0.80000854
   0.19149263  0.51042290  0.89623810
   0.18822217  0.61399893  0.01050554
   0.22005665  0.70900376  0.12533493
   0.23877135  0.80968901  0.22386064
   0.22076478  0.89178968  0.31101271
   0.21128227  0.03263413  0.39436129
   0.20739850  0.12090680  0.52060173
   0.18472258  0.18701895  0.61597401
   0.19598205  0.30375439  0.71163623
   0.30931811  0.38282936  0.92420824
   0.30674795  0.51056271  0.97494093
   0.28085571  0.58276777  0.10079732
   0.33603144  0.70095993  0.19439104
   0.30909901  0.77752555  0.31544711
   0.30659892  0.89685254  0.38843647
   0.28514732  0.02286871  0.48308099
   0.31323677  0.08747147  0.59080334
   0.28680303  0.21305199  0.69002056
   0.31404290  0.32957786  0.78460276
