 504 504   0   0
  0.2235424E+02  0.2214114E-08  0.2191405E-08  0.2322030E-08  0.5000000E-15
  1.000000000000000E-004
  CAR 
 Li                                      
      3.03951208     -3.54342931  301      0.15837678      1.00000000
     -3.543  0.0000E+00  0.0000E+00
     -3.521  0.0000E+00  0.0000E+00
     -3.500  0.0000E+00  0.0000E+00
     -3.478  0.0000E+00  0.0000E+00
     -3.456  0.0000E+00  0.0000E+00
     -3.434  0.0000E+00  0.0000E+00
     -3.412  0.9360E-13  0.2054E-14
     -3.390  0.2282E-09  0.5010E-11
     -3.368  0.1973E-06  0.4334E-08
     -3.346  0.6003E-04  0.1321E-05
     -3.324  0.6478E-02  0.1435E-03
     -3.302  0.2507E+00  0.5645E-02
     -3.280  0.3527E+01  0.8304E-01
     -3.258  0.1830E+02  0.4846E+00
     -3.236  0.3546E+02  0.1263E+01
     -3.214  0.2584E+02  0.1830E+01
     -3.192  0.7827E+01  0.2002E+01
     -3.170  0.1006E+02  0.2222E+01
     -3.148  0.4453E+02  0.3199E+01
     -3.127  0.9031E+02  0.5181E+01
     -3.105  0.8363E+02  0.7016E+01
     -3.083  0.3714E+02  0.7831E+01
     -3.061  0.1330E+02  0.8123E+01
     -3.039  0.3310E+02  0.8849E+01
     -3.017  0.7988E+02  0.1060E+02
     -2.995  0.9181E+02  0.1262E+02
     -2.973  0.5100E+02  0.1374E+02
     -2.951  0.2345E+02  0.1425E+02
     -2.929  0.4414E+02  0.1522E+02
     -2.907  0.8527E+02  0.1709E+02
     -2.885  0.1045E+03  0.1938E+02
     -2.863  0.8057E+02  0.2115E+02
     -2.841  0.4641E+02  0.2217E+02
     -2.819  0.5888E+02  0.2346E+02
     -2.797  0.1084E+03  0.2584E+02
     -2.775  0.1450E+03  0.2902E+02
     -2.753  0.1347E+03  0.3198E+02
     -2.732  0.7314E+02  0.3358E+02
     -2.710  0.2947E+02  0.3423E+02
     -2.688  0.4652E+02  0.3525E+02
     -2.666  0.8630E+02  0.3714E+02
     -2.644  0.8774E+02  0.3907E+02
     -2.622  0.5853E+02  0.4035E+02
     -2.600  0.5500E+02  0.4156E+02
     -2.578  0.7285E+02  0.4316E+02
     -2.556  0.1033E+03  0.4542E+02
     -2.534  0.1322E+03  0.4832E+02
     -2.512  0.1304E+03  0.5119E+02
     -2.490  0.1094E+03  0.5359E+02
     -2.468  0.1088E+03  0.5597E+02
     -2.446  0.1347E+03  0.5893E+02
     -2.424  0.1727E+03  0.6272E+02
     -2.402  0.1753E+03  0.6657E+02
     -2.380  0.1238E+03  0.6928E+02
     -2.358  0.7331E+02  0.7089E+02
     -2.337  0.5148E+02  0.7202E+02
     -2.315  0.5610E+02  0.7325E+02
     -2.293  0.7031E+02  0.7480E+02
     -2.271  0.6736E+02  0.7627E+02
     -2.249  0.8028E+02  0.7804E+02
     -2.227  0.1156E+03  0.8057E+02
     -2.205  0.1471E+03  0.8380E+02
     -2.183  0.1561E+03  0.8723E+02
     -2.161  0.1381E+03  0.9026E+02
     -2.139  0.1118E+03  0.9271E+02
     -2.117  0.1130E+03  0.9519E+02
     -2.095  0.1368E+03  0.9819E+02
     -2.073  0.1764E+03  0.1021E+03
     -2.051  0.1974E+03  0.1064E+03
     -2.029  0.1573E+03  0.1098E+03
     -2.007  0.8002E+02  0.1116E+03
     -1.985  0.4176E+02  0.1125E+03
     -1.964  0.7733E+02  0.1142E+03
     -1.942  0.1319E+03  0.1171E+03
     -1.920  0.1482E+03  0.1204E+03
     -1.898  0.1440E+03  0.1235E+03
     -1.876  0.1515E+03  0.1268E+03
     -1.854  0.1573E+03  0.1303E+03
     -1.832  0.1694E+03  0.1340E+03
     -1.810  0.1810E+03  0.1380E+03
     -1.788  0.1533E+03  0.1414E+03
     -1.766  0.1229E+03  0.1440E+03
     -1.744  0.1314E+03  0.1469E+03
     -1.722  0.1529E+03  0.1503E+03
     -1.700  0.1733E+03  0.1541E+03
     -1.678  0.1629E+03  0.1577E+03
     -1.656  0.1231E+03  0.1604E+03
     -1.634  0.9875E+02  0.1625E+03
     -1.612  0.1045E+03  0.1648E+03
     -1.590  0.1109E+03  0.1673E+03
     -1.569  0.1011E+03  0.1695E+03
     -1.547  0.1088E+03  0.1719E+03
     -1.525  0.1452E+03  0.1750E+03
     -1.503  0.1543E+03  0.1784E+03
     -1.481  0.1474E+03  0.1817E+03
     -1.459  0.1679E+03  0.1854E+03
     -1.437  0.1802E+03  0.1893E+03
     -1.415  0.1690E+03  0.1930E+03
     -1.393  0.1732E+03  0.1968E+03
     -1.371  0.2033E+03  0.2013E+03
     -1.349  0.2318E+03  0.2064E+03
     -1.327  0.2357E+03  0.2115E+03
     -1.305  0.2160E+03  0.2163E+03
     -1.283  0.1871E+03  0.2204E+03
     -1.261  0.1646E+03  0.2240E+03
     -1.239  0.1507E+03  0.2273E+03
     -1.217  0.1298E+03  0.2301E+03
     -1.196  0.1052E+03  0.2325E+03
     -1.174  0.1180E+03  0.2350E+03
     -1.152  0.1530E+03  0.2384E+03
     -1.130  0.1628E+03  0.2420E+03
     -1.108  0.1600E+03  0.2455E+03
     -1.086  0.1625E+03  0.2490E+03
     -1.064  0.1709E+03  0.2528E+03
     -1.042  0.1974E+03  0.2571E+03
     -1.020  0.2105E+03  0.2617E+03
     -0.998  0.1911E+03  0.2659E+03
     -0.976  0.1575E+03  0.2694E+03
     -0.954  0.1288E+03  0.2722E+03
     -0.932  0.1450E+03  0.2754E+03
     -0.910  0.1738E+03  0.2792E+03
     -0.888  0.1598E+03  0.2827E+03
     -0.866  0.1436E+03  0.2859E+03
     -0.844  0.1494E+03  0.2892E+03
     -0.822  0.1799E+03  0.2931E+03
     -0.801  0.2266E+03  0.2981E+03
     -0.779  0.2453E+03  0.3035E+03
     -0.757  0.2306E+03  0.3085E+03
     -0.735  0.2163E+03  0.3133E+03
     -0.713  0.2162E+03  0.3180E+03
     -0.691  0.2285E+03  0.3230E+03
     -0.669  0.2380E+03  0.3282E+03
     -0.647  0.2252E+03  0.3332E+03
     -0.625  0.1954E+03  0.3375E+03
     -0.603  0.1587E+03  0.3410E+03
     -0.581  0.1500E+03  0.3443E+03
     -0.559  0.1828E+03  0.3483E+03
     -0.537  0.1959E+03  0.3526E+03
     -0.515  0.1714E+03  0.3563E+03
     -0.493  0.1585E+03  0.3598E+03
     -0.471  0.1834E+03  0.3638E+03
     -0.449  0.2050E+03  0.3683E+03
     -0.428  0.2010E+03  0.3727E+03
     -0.406  0.1921E+03  0.3769E+03
     -0.384  0.1943E+03  0.3812E+03
     -0.362  0.2023E+03  0.3857E+03
     -0.340  0.2283E+03  0.3907E+03
     -0.318  0.2529E+03  0.3962E+03
     -0.296  0.2656E+03  0.4020E+03
     -0.274  0.2780E+03  0.4081E+03
     -0.252  0.2666E+03  0.4140E+03
     -0.230  0.2238E+03  0.4189E+03
     -0.208  0.1952E+03  0.4232E+03
     -0.186  0.2006E+03  0.4276E+03
     -0.164  0.2104E+03  0.4322E+03
     -0.142  0.2149E+03  0.4369E+03
     -0.120  0.2186E+03  0.4417E+03
     -0.098  0.2062E+03  0.4462E+03
     -0.076  0.1983E+03  0.4506E+03
     -0.054  0.2015E+03  0.4550E+03
     -0.033  0.1946E+03  0.4593E+03
     -0.011  0.1911E+03  0.4635E+03
      0.011  0.1957E+03  0.4678E+03
      0.033  0.1985E+03  0.4721E+03
      0.055  0.2006E+03  0.4765E+03
      0.077  0.2175E+03  0.4813E+03
      0.099  0.2411E+03  0.4866E+03
      0.121  0.2711E+03  0.4925E+03
      0.143  0.3036E+03  0.4992E+03
      0.165  0.3108E+03  0.5060E+03
      0.187  0.2957E+03  0.5125E+03
      0.209  0.2917E+03  0.5189E+03
      0.231  0.3064E+03  0.5256E+03
      0.253  0.3114E+03  0.5325E+03
      0.275  0.3078E+03  0.5392E+03
      0.297  0.3078E+03  0.5460E+03
      0.319  0.2991E+03  0.5525E+03
      0.341  0.2761E+03  0.5586E+03
      0.362  0.2569E+03  0.5642E+03
      0.384  0.2512E+03  0.5697E+03
      0.406  0.2541E+03  0.5753E+03
      0.428  0.2548E+03  0.5809E+03
      0.450  0.2404E+03  0.5862E+03
      0.472  0.2151E+03  0.5909E+03
      0.494  0.2062E+03  0.5954E+03
      0.516  0.2210E+03  0.6003E+03
      0.538  0.2337E+03  0.6054E+03
      0.560  0.2260E+03  0.6104E+03
      0.582  0.2075E+03  0.6149E+03
      0.604  0.1984E+03  0.6193E+03
      0.626  0.1973E+03  0.6236E+03
      0.648  0.1989E+03  0.6280E+03
      0.670  0.2107E+03  0.6326E+03
      0.692  0.2266E+03  0.6376E+03
      0.714  0.2432E+03  0.6429E+03
      0.735  0.2593E+03  0.6486E+03
      0.757  0.2669E+03  0.6544E+03
      0.779  0.2666E+03  0.6603E+03
      0.801  0.2654E+03  0.6661E+03
      0.823  0.2634E+03  0.6719E+03
      0.845  0.2582E+03  0.6776E+03
      0.867  0.2524E+03  0.6831E+03
      0.889  0.2403E+03  0.6884E+03
      0.911  0.2296E+03  0.6934E+03
      0.933  0.2326E+03  0.6985E+03
      0.955  0.2383E+03  0.7038E+03
      0.977  0.2339E+03  0.7089E+03
      0.999  0.2298E+03  0.7139E+03
      1.021  0.2398E+03  0.7192E+03
      1.043  0.2419E+03  0.7245E+03
      1.065  0.2264E+03  0.7295E+03
      1.087  0.2039E+03  0.7339E+03
      1.109  0.1931E+03  0.7382E+03
      1.130  0.1989E+03  0.7425E+03
      1.152  0.2095E+03  0.7471E+03
      1.174  0.2161E+03  0.7519E+03
      1.196  0.2193E+03  0.7567E+03
      1.218  0.2304E+03  0.7618E+03
      1.240  0.2405E+03  0.7670E+03
      1.262  0.2372E+03  0.7722E+03
      1.284  0.2298E+03  0.7773E+03
      1.306  0.2306E+03  0.7823E+03
      1.328  0.2419E+03  0.7876E+03
      1.350  0.2522E+03  0.7932E+03
      1.372  0.2503E+03  0.7987E+03
      1.394  0.2452E+03  0.8041E+03
      1.416  0.2431E+03  0.8094E+03
      1.438  0.2485E+03  0.8148E+03
      1.460  0.2497E+03  0.8203E+03
      1.482  0.2398E+03  0.8256E+03
      1.503  0.2321E+03  0.8307E+03
      1.525  0.2228E+03  0.8356E+03
      1.547  0.2198E+03  0.8404E+03
      1.569  0.2192E+03  0.8452E+03
      1.591  0.2070E+03  0.8497E+03
      1.613  0.1992E+03  0.8541E+03
      1.635  0.1986E+03  0.8585E+03
      1.657  0.1970E+03  0.8628E+03
      1.679  0.2015E+03  0.8672E+03
      1.701  0.2093E+03  0.8718E+03
      1.723  0.2103E+03  0.8764E+03
      1.745  0.2080E+03  0.8810E+03
      1.767  0.2047E+03  0.8855E+03
      1.789  0.1994E+03  0.8899E+03
      1.811  0.1919E+03  0.8941E+03
      1.833  0.1782E+03  0.8980E+03
      1.855  0.1678E+03  0.9017E+03
      1.877  0.1665E+03  0.9053E+03
      1.898  0.1638E+03  0.9089E+03
      1.920  0.1645E+03  0.9125E+03
      1.942  0.1642E+03  0.9161E+03
      1.964  0.1579E+03  0.9196E+03
      1.986  0.1560E+03  0.9230E+03
      2.008  0.1630E+03  0.9266E+03
      2.030  0.1617E+03  0.9301E+03
      2.052  0.1453E+03  0.9333E+03
      2.074  0.1357E+03  0.9363E+03
      2.096  0.1373E+03  0.9393E+03
      2.118  0.1425E+03  0.9424E+03
      2.140  0.1473E+03  0.9457E+03
      2.162  0.1483E+03  0.9489E+03
      2.184  0.1515E+03  0.9522E+03
      2.206  0.1571E+03  0.9557E+03
      2.228  0.1635E+03  0.9593E+03
      2.250  0.1645E+03  0.9629E+03
      2.272  0.1500E+03  0.9662E+03
      2.293  0.1356E+03  0.9692E+03
      2.315  0.1332E+03  0.9721E+03
      2.337  0.1297E+03  0.9749E+03
      2.359  0.1305E+03  0.9778E+03
      2.381  0.1332E+03  0.9807E+03
      2.403  0.1285E+03  0.9835E+03
      2.425  0.1267E+03  0.9863E+03
      2.447  0.1264E+03  0.9891E+03
      2.469  0.1248E+03  0.9918E+03
      2.491  0.1209E+03  0.9945E+03
      2.513  0.1150E+03  0.9970E+03
      2.535  0.1039E+03  0.9993E+03
      2.557  0.8797E+02  0.1001E+04
      2.579  0.7483E+02  0.1003E+04
      2.601  0.6387E+02  0.1004E+04
      2.623  0.5146E+02  0.1005E+04
      2.645  0.4269E+02  0.1006E+04
      2.666  0.3927E+02  0.1007E+04
      2.688  0.2921E+02  0.1008E+04
      2.710  0.2175E+02  0.1008E+04
      2.732  0.3205E+02  0.1009E+04
      2.754  0.3091E+02  0.1010E+04
      2.776  0.1259E+02  0.1010E+04
      2.798  0.2056E+01  0.1010E+04
      2.820  0.1304E+00  0.1010E+04
      2.842  0.3115E-02  0.1010E+04
      2.864  0.2731E-04  0.1010E+04
      2.886  0.8614E-07  0.1010E+04
      2.908  0.9647E-10  0.1010E+04
      2.930  0.4048E-13  0.1010E+04
      2.952  0.0000E+00  0.1010E+04
      2.974  0.0000E+00  0.1010E+04
      2.996  0.0000E+00  0.1010E+04
      3.018  0.0000E+00  0.1010E+04
      3.040  0.0000E+00  0.1010E+04
