       N       E                     dE             d eps       ncg     rms          rms(c)
DAV:   1    -0.333113945851E+03   -0.33311E+03   -0.11888E+05  4040   0.647E+02
DAV:   2    -0.898576354471E+03   -0.56546E+03   -0.51807E+03  4644   0.643E+01
DAV:   3    -0.938708031811E+03   -0.40132E+02   -0.36689E+02  5160   0.136E+01
DAV:   4    -0.940109052203E+03   -0.14010E+01   -0.13776E+01  4672   0.276E+00
DAV:   5    -0.940141224893E+03   -0.32173E-01   -0.32101E-01  4872   0.445E-01    0.729E+00
DAV:   6    -0.941457161998E+03   -0.13159E+01   -0.64400E+00  4704   0.397E+00    0.721E+00
DAV:   7    -0.933655024281E+03    0.78021E+01   -0.68147E+00  4744   0.371E+00    0.382E+00
DAV:   8    -0.932585872775E+03    0.10692E+01   -0.32597E+00  4576   0.187E+00    0.254E+00
DAV:   9    -0.932449643444E+03    0.13623E+00   -0.19216E+00  4600   0.149E+00    0.209E+00
DAV:  10    -0.931893664970E+03    0.55598E+00   -0.96994E-01  4560   0.993E-01    0.943E-01
DAV:  11    -0.931876803609E+03    0.16861E-01   -0.32807E-01  4312   0.422E-01    0.550E-01
DAV:  12    -0.931885969102E+03   -0.91655E-02   -0.64588E-02  4800   0.282E-01    0.485E-01
DAV:  13    -0.931864436473E+03    0.21533E-01   -0.31513E-02  4608   0.211E-01    0.274E-01
DAV:  14    -0.931863127634E+03    0.13088E-02   -0.10143E-02  4632   0.126E-01    0.188E-01
DAV:  15    -0.931860238111E+03    0.28895E-02   -0.65067E-03  4624   0.990E-02    0.109E-01
DAV:  16    -0.931859146360E+03    0.10918E-02   -0.25979E-03  4480   0.524E-02    0.457E-02
DAV:  17    -0.931859172962E+03   -0.26602E-04   -0.75730E-04  4480   0.267E-02    0.338E-02
DAV:  18    -0.931859069003E+03    0.10396E-03   -0.29077E-04  4464   0.186E-02    0.206E-02
DAV:  19    -0.931859029807E+03    0.39196E-04   -0.78339E-05  4440   0.967E-03    0.116E-02
DAV:  20    -0.931859012710E+03    0.17097E-04   -0.37398E-05  4256   0.562E-03    0.469E-03
DAV:  21    -0.931859009917E+03    0.27932E-05   -0.92828E-06  2128   0.269E-03
   1 F= -.93185901E+03 E0= -.93178939E+03  d E =-.139241E+00
