Li                                      
           1
   -11.070570   19.174790    0.000000
   -18.978120  -10.957023    0.000000
     0.000000    0.000000   23.220300
   Li
   504
Direct configuration=     1
   0.01630173  0.01635910  0.01474815
   0.92711804  0.04058739  0.67326908
   0.86021742  0.06552919  0.34079798
   0.78054666  0.11853488  0.99912980
   0.71388239  0.14081934  0.66074230
   0.64822812  0.20523170  0.33717315
   0.58663246  0.24980729  0.00416842
   0.50514971  0.30069795  0.64727450
   0.44566036  0.34087196  0.32480131
   0.34658418  0.39121212  0.99148314
   0.27361960  0.41937865  0.65646607
   0.21441156  0.46210685  0.33186484
   0.07505347  0.02483601  0.67519752
   0.00828302  0.09419028  0.31949014
   0.92708820  0.11874259  0.00891027
   0.86928034  0.16443066  0.66828164
   0.80511677  0.20655750  0.34988747
   0.72790333  0.23938851  0.99976752
   0.64057988  0.29146021  0.65852560
   0.58870562  0.33719941  0.33540881
   0.50552869  0.37825952  0.00311629
   0.41656616  0.41122988  0.66085880
   0.37115235  0.45953374  0.33386092
   0.25797777  0.50296013  0.98881787
   0.14906939  0.08216706  0.33062323
   0.07794509  0.11597903  0.01054823
   0.01619843  0.16365581  0.65818984
   0.92621861  0.21752633  0.33780527
   0.87976272  0.24849422  0.01195890
   0.77360125  0.30870948  0.67247736
   0.70898076  0.33656086  0.33770954
   0.63727297  0.38645952  0.99496369
   0.57442407  0.42308974  0.65765092
   0.50923619  0.46829485  0.33833777
   0.40606155  0.50047541  0.00398931
   0.35853006  0.54858452  0.65441067
   0.21676351  0.12509361  0.01433889
   0.16140571  0.15105296  0.66700690
   0.08250622  0.21461816  0.33148031
   0.02323142  0.25932053  0.99778064
   0.93478298  0.29220441  0.66211820
   0.85836295  0.33456667  0.33925360
   0.78852840  0.36362395  0.00975788
   0.70785402  0.42666024  0.67232559
   0.63416295  0.44581521  0.33840165
   0.55868621  0.50528896  0.99831825
   0.50979232  0.52975669  0.67024604
   0.43479322  0.58874631  0.31481503
   0.28351945  0.17984257  0.66948638
   0.22114123  0.21124042  0.34562300
   0.15043380  0.25986255  0.99725265
   0.07483075  0.29294869  0.65182413
   0.00489880  0.33410803  0.34156249
   0.93447008  0.38420973  0.98081261
   0.85793951  0.41658302  0.67862225
   0.78469123  0.45806101  0.34471765
   0.69979390  0.51267519  0.99961603
   0.64159137  0.54806441  0.68148518
   0.56111580  0.58843832  0.33779269
   0.48956971  0.62631600  0.01028485
   0.35751042  0.20952515  0.32985942
   0.29363801  0.26284334  0.00472546
   0.21873882  0.31358021  0.66673252
   0.15610808  0.35371709  0.32297927
   0.07093170  0.38043245  0.00714824
   0.98774147  0.42938929  0.66362393
   0.93286875  0.46168457  0.32291251
   0.83492677  0.47726453  0.99608405
   0.80139367  0.54879324  0.66397929
   0.72630841  0.57311213  0.33593801
   0.65230688  0.62943504  0.99945773
   0.58041519  0.66250207  0.67952396
   0.41925294  0.24783937  0.02027545
   0.35745799  0.29367884  0.67005590
   0.28951245  0.34359167  0.32708611
   0.20644520  0.37951055  0.99321950
   0.13472923  0.43083415  0.65097382
   0.06651489  0.45406136  0.33459562
   0.99877316  0.50090066  0.00609365
   0.92431398  0.55624758  0.66708456
   0.85974765  0.58593508  0.34212567
   0.78943132  0.61528473  0.99672566
   0.72220424  0.67076145  0.65386899
   0.65948307  0.71091137  0.34205004
   0.12946565  0.50493188  0.98345482
   0.06858646  0.55673116  0.65243199
   0.98967061  0.60787041  0.33112478
   0.93103327  0.60956894  0.98613875
   0.85260533  0.67483727  0.67266882
   0.78744787  0.70071535  0.33032926
   0.71973261  0.75550090  0.99398541
   0.20914312  0.54989569  0.64428186
   0.13377690  0.58955684  0.32871775
   0.06025712  0.61933178  0.98738591
   0.00384954  0.67865414  0.67010925
   0.93416831  0.74543980  0.34030708
   0.84297848  0.73871041  0.00122429
   0.78963665  0.78869266  0.66293279
   0.27404369  0.58859711  0.33273923
   0.21404777  0.63431621  0.00871711
   0.13853467  0.66400003  0.66823496
   0.05719338  0.71204787  0.33635401
   0.00213020  0.75535250  0.00155606
   0.93766700  0.79467512  0.67062518
   0.85045182  0.84575576  0.34469238
   0.33275465  0.63136894  0.98594153
   0.27670340  0.65755350  0.66937461
   0.20960994  0.70984718  0.33038843
   0.14787795  0.75947297  0.00236739
   0.07826011  0.78606834  0.67479507
   0.99718586  0.84922213  0.34636462
   0.92926638  0.86744401  0.00986639
   0.43080931  0.64748474  0.66230153
   0.35482550  0.71003056  0.32652966
   0.30099792  0.73944589  0.01903084
   0.22570026  0.78685828  0.66926387
   0.14081744  0.82177148  0.34675771
   0.07983198  0.86931482  0.00558091
   0.00785825  0.91355488  0.68039352
   0.91539344  0.96091140  0.35101714
   0.87051699  0.00584837  0.99218579
   0.80506083  0.04850752  0.65425349
   0.72387840  0.08375171  0.33705859
   0.64292540  0.11974112  0.00022866
   0.57401491  0.15615385  0.66578578
   0.52120299  0.20613424  0.33362740
   0.07170924  0.95492082  0.34472573
   0.14823839  0.98627834  0.01945515
   0.21539904  0.02757310  0.65334401
   0.29160555  0.07863637  0.31274558
   0.36901952  0.12423934  0.01147973
   0.42808048  0.17478617  0.67036509
   0.84814102  0.90786746  0.67690333
   0.78417678  0.95722911  0.33756826
   0.73224025  0.00070076  0.00658440
   0.64180569  0.03360594  0.66687115
   0.56985884  0.07389410  0.34156562
   0.50977013  0.11294493  0.97926908
   0.15490359  0.90504837  0.66948060
   0.22322345  0.95405741  0.33225734
   0.29391709  0.99029353  0.02199024
   0.36440959  0.04238154  0.67387462
   0.43483167  0.08753563  0.33386999
   0.78730284  0.88808674  0.98886651
   0.70781040  0.91698167  0.66651444
   0.64809738  0.96291512  0.32506994
   0.57821255  0.99906130  0.99475345
   0.50364804  0.04407689  0.66820333
   0.20693900  0.86918888  0.99407795
   0.29066282  0.91476794  0.65157595
   0.35332173  0.95677783  0.33442192
   0.42767984  0.99651126  0.99383377
   0.70861434  0.83888294  0.32467472
   0.63977124  0.87449269  0.99244397
   0.56076935  0.91057532  0.65690862
   0.49577118  0.95560656  0.33082987
   0.27505717  0.82014803  0.33061785
   0.36127989  0.86750751  0.00002812
   0.42751523  0.90957089  0.66920572
   0.64735583  0.78722380  0.64966026
   0.56010255  0.84388236  0.34764689
   0.50043812  0.87178235  0.99223281
   0.36150461  0.78118439  0.68063396
   0.40068733  0.83368428  0.33299043
   0.58768952  0.75069156  0.99189367
   0.49892004  0.78652844  0.66171660
   0.43420852  0.74035035  0.99039790
   0.49625846  0.70245942  0.34063444
   0.00758271  0.99995983  0.78298647
   0.92799102  0.04506069  0.44523572
   0.87935344  0.08620936  0.12587605
   0.79014738  0.11954837  0.78242405
   0.71954657  0.16321849  0.46191863
   0.64506808  0.19864181  0.11156465
   0.56237270  0.24640955  0.76169676
   0.49616135  0.27426991  0.44178124
   0.42188398  0.36397257  0.11860366
   0.34164898  0.38844140  0.77362446
   0.26784613  0.41984772  0.44452900
   0.19946712  0.46154585  0.10450072
   0.06421284  0.04673884  0.45098914
   0.99068209  0.06879131  0.13497858
   0.93184789  0.13999208  0.78578934
   0.85074269  0.15110011  0.44369964
   0.80177027  0.21007508  0.10852609
   0.71513017  0.25173402  0.77843580
   0.63945093  0.29033747  0.45001271
   0.58346382  0.33580805  0.11277763
   0.50119125  0.37781453  0.77055260
   0.41787444  0.41436670  0.43914292
   0.33508668  0.46295288  0.11323159
   0.27539230  0.50215630  0.77158174
   0.14300494  0.06512421  0.12744245
   0.06747640  0.11519911  0.78186815
   0.99734625  0.17420641  0.44695150
   0.94155734  0.20160059  0.12014701
   0.84639558  0.23583901  0.79423129
   0.78389527  0.28630359  0.43160274
   0.72524935  0.31814946  0.11085065
   0.64302811  0.37000402  0.77478519
   0.56744846  0.41625109  0.44491693
   0.50807994  0.46208185  0.10693621
   0.43170576  0.49209118  0.76267288
   0.36101617  0.55104584  0.44233383
   0.21433992  0.11890949  0.79207877
   0.14859088  0.18670368  0.44238290
   0.07092276  0.20612855  0.11313354
   0.00180190  0.23564643  0.77246616
   0.93396138  0.29527887  0.44317852
   0.86487661  0.32852079  0.11975969
   0.78540621  0.36917804  0.78536384
   0.72614893  0.40628617  0.46461990
   0.64556903  0.47012370  0.09589528
   0.56922955  0.48375358  0.77424378
   0.48365139  0.54591535  0.43690291
   0.43308433  0.58291324  0.11215982
   0.29797085  0.16433712  0.44348790
   0.22164024  0.20604088  0.12713928
   0.14869687  0.25633629  0.77537687
   0.08202629  0.29809139  0.44440451
   0.99735722  0.32875077  0.11011114
   0.93464251  0.36813295  0.77193452
   0.86263786  0.41713230  0.43242725
   0.79107917  0.43863588  0.10503026
   0.72128060  0.48950056  0.77701497
   0.64209258  0.53570325  0.44344728
   0.58771086  0.58433158  0.10008876
   0.49853652  0.62144699  0.77348174
   0.36613338  0.21619809  0.10856235
   0.28941534  0.24700389  0.79073002
   0.21275319  0.29368219  0.44499583
   0.13952552  0.33674863  0.11511515
   0.08730610  0.37163817  0.76438809
   0.98368914  0.41506324  0.43674320
   0.92771622  0.46329855  0.10198092
   0.86327368  0.50163578  0.78630871
   0.78782608  0.54891543  0.44781526
   0.72783239  0.59326908  0.10827091
   0.64347392  0.62769305  0.78336696
   0.56675961  0.67004022  0.45053784
   0.42145023  0.25418164  0.78424165
   0.35606948  0.28629932  0.44752238
   0.27506007  0.34048807  0.10331215
   0.20169885  0.37374769  0.75370040
   0.13090168  0.42148503  0.44059363
   0.07621496  0.46549848  0.10726344
   0.97933403  0.49395564  0.77310932
   0.92537636  0.54374819  0.45287524
   0.84634998  0.57309113  0.09498918
   0.79494072  0.63272852  0.77238332
   0.72158756  0.67169290  0.44743365
   0.66119710  0.71904889  0.11687025
   0.14060673  0.49644387  0.76974257
   0.05369609  0.54368513  0.44155608
   0.99463290  0.59124609  0.10160656
   0.93200980  0.64017087  0.77869757
   0.86451819  0.67951764  0.44673102
   0.79286667  0.69852961  0.10229153
   0.71012051  0.74589676  0.75301099
   0.21477775  0.55700825  0.44325832
   0.14417812  0.57637421  0.09317012
   0.08294352  0.61519814  0.77069099
   0.99244256  0.68541138  0.45809276
   0.92813255  0.70591164  0.09631791
   0.86993659  0.75805806  0.78588671
   0.78874617  0.79007386  0.43608967
   0.27751293  0.57782048  0.10496228
   0.20654045  0.61976499  0.77739699
   0.12400380  0.67706171  0.43855303
   0.07751105  0.70588882  0.11245991
   0.00240390  0.74490895  0.77908991
   0.93695024  0.80293976  0.45259403
   0.84230322  0.82290428  0.10956876
   0.36183576  0.62761287  0.77191464
   0.27861355  0.67915341  0.44988614
   0.20229741  0.70841325  0.11979453
   0.14147007  0.73904004  0.77724562
   0.06662289  0.80170220  0.45754036
   0.99624510  0.83004271  0.12143267
   0.94446729  0.87089234  0.79640354
   0.42974266  0.65365318  0.43291623
   0.34633275  0.70641466  0.11909841
   0.27624988  0.73067506  0.77444583
   0.21720351  0.78858980  0.44389460
   0.13943545  0.83283490  0.11251770
   0.06248489  0.87171727  0.78690483
   0.01129979  0.91991834  0.45452669
   0.92484476  0.95267918  0.11097062
   0.87337514  0.99663089  0.78419464
   0.77456430  0.02937884  0.45269234
   0.73871396  0.08079266  0.11026569
   0.64560589  0.13410166  0.76925944
   0.57673779  0.16811675  0.44112463
   0.49029288  0.20940189  0.10259382
   0.07142064  0.94577570  0.12456289
   0.12814396  0.00113319  0.77727404
   0.20092590  0.05180020  0.44696176
   0.30126788  0.09739466  0.12340064
   0.35314871  0.12833786  0.76512566
   0.43590642  0.15882170  0.43216922
   0.86325469  0.91110864  0.45309876
   0.79531068  0.95198167  0.10471477
   0.72598762  0.99295979  0.75876571
   0.64879403  0.03610816  0.43981035
   0.56477267  0.08093696  0.09433667
   0.49818685  0.12798525  0.77667490
   0.14772047  0.92325756  0.44923954
   0.21839203  0.95323084  0.12930998
   0.28833491  0.98103901  0.77171396
   0.35251972  0.04497756  0.44277938
   0.44944826  0.07676571  0.10237251
   0.78249500  0.86772073  0.77251771
   0.72333394  0.90145131  0.42922086
   0.64275122  0.95582295  0.10922930
   0.56572719  0.99347908  0.78625109
   0.50220941  0.03469525  0.43486556
   0.21138376  0.86912601  0.78068854
   0.28840079  0.93038144  0.45116509
   0.36046333  0.94482880  0.10263847
   0.42017220  0.99488792  0.77442903
   0.71790524  0.85091375  0.09414597
   0.63368136  0.86629260  0.76346960
   0.57503586  0.92400830  0.44396587
   0.50343873  0.94720063  0.11827617
   0.26907921  0.82462628  0.10837474
   0.35316356  0.86898270  0.77951001
   0.42913729  0.90111002  0.45231447
   0.64432774  0.78579990  0.44376470
   0.57967169  0.82906101  0.10631652
   0.50348209  0.86483935  0.78275091
   0.34137019  0.78391242  0.45230642
   0.42211736  0.81100673  0.10357537
   0.57606307  0.75644855  0.76642419
   0.48733363  0.79035790  0.44736586
   0.43896085  0.75366261  0.75979801
   0.51301008  0.72137732  0.12201687
   0.97566706  0.97946555  0.23918567
   0.93018732  0.04063351  0.89201482
   0.87029689  0.08243149  0.54390054
   0.79134299  0.12125342  0.22344909
   0.71175848  0.16310030  0.89229014
   0.65271329  0.20520062  0.54368469
   0.55763623  0.25686438  0.22844087
   0.51732037  0.28850161  0.88440901
   0.43564349  0.33089606  0.55709326
   0.35593420  0.37743599  0.22831474
   0.28326803  0.41370248  0.88119039
   0.21816606  0.47572878  0.54698016
   0.08960361  0.04322298  0.89248146
   0.00491395  0.09644971  0.56036551
   0.91701159  0.12792954  0.23349408
   0.85492552  0.15952645  0.90615543
   0.79566609  0.21116489  0.56300443
   0.71103897  0.25191464  0.22805970
   0.65290573  0.28557755  0.89586628
   0.57001299  0.33821840  0.54359032
   0.50274149  0.36982499  0.22702103
   0.43350598  0.40611928  0.88987349
   0.35152791  0.44975007  0.54441364
   0.28020629  0.47671801  0.23758625
   0.14176068  0.09402397  0.55939607
   0.05765654  0.12211527  0.22303400
   0.02152631  0.16403289  0.89794873
   0.94412411  0.21107781  0.56342190
   0.86694060  0.25159600  0.22800912
   0.79065279  0.27512279  0.90024940
   0.70375597  0.34039688  0.56432404
   0.65240105  0.37316490  0.22231253
   0.57059123  0.41866208  0.89499617
   0.48973173  0.45650986  0.55436206
   0.42541574  0.47953793  0.21203720
   0.34506539  0.53926995  0.87982463
   0.19478756  0.13137481  0.22845034
   0.14237910  0.17765420  0.87895571
   0.07851280  0.22409949  0.55647266
   0.00774178  0.26379663  0.22918384
   0.92135611  0.27258481  0.88291228
   0.86775884  0.33539467  0.55687886
   0.79431473  0.37231429  0.23591220
   0.71613152  0.41174055  0.88989714
   0.65827146  0.44527435  0.55089481
   0.55796520  0.48981994  0.22208149
   0.48830337  0.52660832  0.89423520
   0.43475850  0.57891786  0.55524010
   0.28419922  0.16106647  0.91043856
   0.21682268  0.22061427  0.56760837
   0.14230641  0.25443558  0.22872251
   0.07667581  0.29531333  0.88459366
   0.99674485  0.35262715  0.53830580
   0.93357238  0.38764814  0.21737992
   0.85231305  0.42347511  0.88708108
   0.79019919  0.46204967  0.54985247
   0.71760465  0.50888759  0.23630771
   0.63452544  0.53105542  0.87932116
   0.57475232  0.57997886  0.56205714
   0.49409503  0.59043528  0.21782377
   0.37560441  0.20781804  0.54773879
   0.28318011  0.24881368  0.22201902
   0.20079093  0.31127360  0.88729586
   0.15643404  0.35681157  0.53979164
   0.07136621  0.37585907  0.22581477
   0.00536689  0.41006480  0.88188520
   0.91859229  0.47307236  0.56139277
   0.84105911  0.49915233  0.22783625
   0.77948010  0.54363589  0.89205755
   0.71233651  0.57207588  0.55291475
   0.62819650  0.61511212  0.22403664
   0.56476305  0.67291010  0.87622382
   0.42399192  0.25046296  0.23270098
   0.34970855  0.30442611  0.89311338
   0.29608153  0.33416312  0.54972001
   0.21249310  0.37058039  0.21550183
   0.14785121  0.42557757  0.87298281
   0.05772956  0.47758278  0.54579865
   0.00021754  0.51308512  0.20613559
   0.91209553  0.53416643  0.89525689
   0.84445888  0.58706852  0.55765425
   0.78626302  0.63022812  0.22132451
   0.71623082  0.67570381  0.88809682
   0.63374949  0.70050112  0.55645570
   0.14177186  0.49687656  0.21683803
   0.07550884  0.53550196  0.88043922
   0.98154918  0.60109912  0.55803289
   0.92775482  0.63318452  0.21862470
   0.84910387  0.66955822  0.89707330
   0.77101161  0.72222838  0.56003201
   0.72187837  0.73320468  0.21291942
   0.20311048  0.54246326  0.88680494
   0.12499094  0.59740585  0.55219467
   0.06094283  0.62281179  0.21757268
   0.99992016  0.67180597  0.87861647
   0.91521428  0.71728555  0.56727287
   0.85792709  0.76071562  0.21993600
   0.77021315  0.79460439  0.87660656
   0.28829069  0.58934379  0.54847008
   0.20971372  0.60814624  0.21834448
   0.13229582  0.65762782  0.88780518
   0.06246852  0.71756676  0.57629061
   0.99313056  0.75164940  0.22763144
   0.92230019  0.79406317  0.90637922
   0.86058891  0.83526035  0.56894775
   0.34013822  0.62003973  0.22791670
   0.28149782  0.66086433  0.89222925
   0.20617478  0.70932666  0.55876762
   0.13259864  0.75583272  0.21618516
   0.07783502  0.79322987  0.88925189
   0.99660496  0.83058276  0.56604021
   0.92702796  0.86482771  0.23314823
   0.42870612  0.66127343  0.88188294
   0.34098446  0.70525148  0.56695870
   0.27773119  0.75670760  0.23837452
   0.22364777  0.78429155  0.88818906
   0.14858060  0.83625130  0.55425560
   0.06348062  0.86806714  0.23476116
   0.99368344  0.92426112  0.90134817
   0.93700558  0.95004001  0.57928313
   0.84566568  0.98264668  0.21790341
   0.78921581  0.02837362  0.88380712
   0.72348799  0.08398720  0.54105740
   0.64892916  0.11159367  0.22401314
   0.57109988  0.17175978  0.88269078
   0.51847822  0.20020552  0.56938763
   0.07764353  0.96617925  0.55287460
   0.13648561  0.01099530  0.22625779
   0.21636283  0.03981304  0.89358272
   0.28528103  0.10453135  0.55944322
   0.34990520  0.12666165  0.21702930
   0.43397717  0.17859123  0.89942847
   0.85801228  0.91562530  0.88630727
   0.78498657  0.95278145  0.56782957
   0.71731779  0.98895410  0.20493672
   0.64982331  0.04285369  0.88051836
   0.57824089  0.08422058  0.54756353
   0.49446092  0.12866507  0.21560440
   0.12834457  0.91764917  0.88488258
   0.21268608  0.96601280  0.54608590
   0.27989521  0.00758368  0.21255571
   0.34238356  0.04472814  0.89716191
   0.42722144  0.09684938  0.53959230
   0.78161564  0.88751532  0.23144166
   0.70973017  0.91599886  0.88125823
   0.64611270  0.97442100  0.54269167
   0.57054133  0.99105722  0.22434347
   0.48804222  0.04421524  0.87622217
   0.20413818  0.87541069  0.22511279
   0.29017776  0.91855589  0.90103228
   0.34974420  0.96635165  0.55291377
   0.41726619  0.00405466  0.22020101
   0.70926069  0.83586862  0.55147834
   0.64112086  0.86778190  0.21700187
   0.57734542  0.91815021  0.88846752
   0.49814915  0.96913662  0.55663031
   0.28387609  0.84454185  0.56286410
   0.34166922  0.87342377  0.20835772
   0.43527984  0.90768950  0.87695717
   0.63714428  0.79040920  0.87873385
   0.57139572  0.84313095  0.54757395
   0.49393262  0.86471678  0.21543748
   0.37195588  0.77440010  0.89271498
   0.41546076  0.84215751  0.56728198
   0.59490516  0.73660410  0.24489408
   0.50623247  0.80468798  0.88870491
   0.43818185  0.73954385  0.22259675
   0.49153634  0.71173296  0.56643673
