 500 500   0   0
  0.2029568E+02  0.2165000E-08  0.2165000E-08  0.2165000E-08  0.5000000E-15
  1.000000000000000E-004
  CAR 
 Li                                      
      3.53196955     -3.44567384  301      0.39442526      1.00000000
     -3.446  0.0000E+00  0.0000E+00
     -3.422  0.0000E+00  0.0000E+00
     -3.399  0.0000E+00  0.0000E+00
     -3.376  0.0000E+00  0.0000E+00
     -3.353  0.0000E+00  0.0000E+00
     -3.329  0.0000E+00  0.0000E+00
     -3.306  0.1193E-14  0.2776E-16
     -3.283  0.1447E-10  0.3365E-12
     -3.260  0.2711E-07  0.6310E-09
     -3.236  0.1569E-04  0.3656E-06
     -3.213  0.2829E-02  0.6618E-04
     -3.190  0.1611E+00  0.3813E-02
     -3.167  0.2948E+01  0.7237E-01
     -3.143  0.1769E+02  0.4837E+00
     -3.120  0.3544E+02  0.1308E+01
     -3.097  0.2393E+02  0.1865E+01
     -3.074  0.5858E+01  0.2001E+01
     -3.050  0.7947E+01  0.2186E+01
     -3.027  0.4518E+02  0.3237E+01
     -3.004  0.9836E+02  0.5524E+01
     -2.980  0.7966E+02  0.7377E+01
     -2.957  0.2432E+02  0.7943E+01
     -2.934  0.8157E+01  0.8132E+01
     -2.911  0.3764E+02  0.9008E+01
     -2.887  0.9335E+02  0.1118E+02
     -2.864  0.8687E+02  0.1320E+02
     -2.841  0.3062E+02  0.1391E+02
     -2.818  0.9625E+01  0.1414E+02
     -2.794  0.4193E+02  0.1511E+02
     -2.771  0.1140E+03  0.1776E+02
     -2.748  0.1215E+03  0.2059E+02
     -2.725  0.5197E+02  0.2180E+02
     -2.701  0.1577E+02  0.2216E+02
     -2.678  0.5266E+02  0.2339E+02
     -2.655  0.1516E+03  0.2691E+02
     -2.632  0.1835E+03  0.3118E+02
     -2.608  0.9625E+02  0.3342E+02
     -2.585  0.2401E+02  0.3398E+02
     -2.562  0.1936E+02  0.3443E+02
     -2.539  0.6950E+02  0.3605E+02
     -2.515  0.1028E+03  0.3844E+02
     -2.492  0.5579E+02  0.3973E+02
     -2.469  0.1463E+02  0.4007E+02
     -2.446  0.3425E+02  0.4087E+02
     -2.422  0.1201E+03  0.4366E+02
     -2.399  0.1862E+03  0.4800E+02
     -2.376  0.1292E+03  0.5100E+02
     -2.353  0.4344E+02  0.5201E+02
     -2.329  0.4738E+02  0.5311E+02
     -2.306  0.1530E+03  0.5667E+02
     -2.283  0.2523E+03  0.6254E+02
     -2.259  0.2116E+03  0.6746E+02
     -2.236  0.9047E+02  0.6957E+02
     -2.213  0.2430E+02  0.7013E+02
     -2.190  0.4192E+02  0.7111E+02
     -2.166  0.9285E+02  0.7327E+02
     -2.143  0.8356E+02  0.7521E+02
     -2.120  0.3145E+02  0.7594E+02
     -2.097  0.2371E+02  0.7649E+02
     -2.073  0.9182E+02  0.7863E+02
     -2.050  0.1930E+03  0.8312E+02
     -2.027  0.1921E+03  0.8759E+02
     -2.004  0.8812E+02  0.8963E+02
     -1.980  0.3562E+02  0.9046E+02
     -1.957  0.9655E+02  0.9271E+02
     -1.934  0.2182E+03  0.9778E+02
     -1.911  0.2510E+03  0.1036E+03
     -1.887  0.1443E+03  0.1070E+03
     -1.864  0.4290E+02  0.1080E+03
     -1.841  0.3819E+02  0.1089E+03
     -1.818  0.1191E+03  0.1116E+03
     -1.794  0.1847E+03  0.1159E+03
     -1.771  0.1302E+03  0.1190E+03
     -1.748  0.5336E+02  0.1202E+03
     -1.725  0.8258E+02  0.1221E+03
     -1.701  0.1977E+03  0.1267E+03
     -1.678  0.2524E+03  0.1326E+03
     -1.655  0.1704E+03  0.1366E+03
     -1.631  0.5958E+02  0.1379E+03
     -1.608  0.5135E+02  0.1391E+03
     -1.585  0.1619E+03  0.1429E+03
     -1.562  0.2610E+03  0.1490E+03
     -1.538  0.2034E+03  0.1537E+03
     -1.515  0.8393E+02  0.1557E+03
     -1.492  0.4170E+02  0.1566E+03
     -1.469  0.9924E+02  0.1589E+03
     -1.445  0.1738E+03  0.1630E+03
     -1.422  0.1479E+03  0.1664E+03
     -1.399  0.6386E+02  0.1679E+03
     -1.376  0.4915E+02  0.1690E+03
     -1.352  0.1098E+03  0.1716E+03
     -1.329  0.1525E+03  0.1751E+03
     -1.306  0.1320E+03  0.1782E+03
     -1.283  0.7069E+02  0.1799E+03
     -1.259  0.7022E+02  0.1815E+03
     -1.236  0.1927E+03  0.1860E+03
     -1.213  0.3376E+03  0.1938E+03
     -1.190  0.3577E+03  0.2021E+03
     -1.166  0.2363E+03  0.2076E+03
     -1.143  0.1074E+03  0.2101E+03
     -1.120  0.1167E+03  0.2128E+03
     -1.097  0.2204E+03  0.2180E+03
     -1.073  0.2405E+03  0.2236E+03
     -1.050  0.1468E+03  0.2270E+03
     -1.027  0.6577E+02  0.2285E+03
     -1.003  0.6273E+02  0.2300E+03
     -0.980  0.1191E+03  0.2327E+03
     -0.957  0.1908E+03  0.2372E+03
     -0.934  0.1643E+03  0.2410E+03
     -0.910  0.1312E+03  0.2441E+03
     -0.887  0.2008E+03  0.2487E+03
     -0.864  0.2582E+03  0.2547E+03
     -0.841  0.2540E+03  0.2606E+03
     -0.817  0.1687E+03  0.2646E+03
     -0.794  0.5626E+02  0.2659E+03
     -0.771  0.2400E+02  0.2664E+03
     -0.748  0.6487E+02  0.2679E+03
     -0.724  0.9808E+02  0.2702E+03
     -0.701  0.6537E+02  0.2717E+03
     -0.678  0.5671E+02  0.2731E+03
     -0.655  0.1552E+03  0.2767E+03
     -0.631  0.2847E+03  0.2833E+03
     -0.608  0.3362E+03  0.2911E+03
     -0.585  0.3179E+03  0.2985E+03
     -0.562  0.2553E+03  0.3044E+03
     -0.538  0.1807E+03  0.3086E+03
     -0.515  0.2000E+03  0.3133E+03
     -0.492  0.2876E+03  0.3200E+03
     -0.469  0.3004E+03  0.3270E+03
     -0.445  0.2275E+03  0.3323E+03
     -0.422  0.1486E+03  0.3357E+03
     -0.399  0.9099E+02  0.3378E+03
     -0.376  0.9085E+02  0.3399E+03
     -0.352  0.1334E+03  0.3430E+03
     -0.329  0.1601E+03  0.3468E+03
     -0.306  0.1949E+03  0.3513E+03
     -0.282  0.1825E+03  0.3555E+03
     -0.259  0.1672E+03  0.3594E+03
     -0.236  0.1813E+03  0.3637E+03
     -0.213  0.1518E+03  0.3672E+03
     -0.189  0.1465E+03  0.3706E+03
     -0.166  0.2268E+03  0.3759E+03
     -0.143  0.3074E+03  0.3830E+03
     -0.120  0.3203E+03  0.3905E+03
     -0.096  0.2417E+03  0.3961E+03
     -0.073  0.1793E+03  0.4003E+03
     -0.050  0.2182E+03  0.4053E+03
     -0.027  0.2372E+03  0.4109E+03
     -0.003  0.1583E+03  0.4145E+03
      0.020  0.6913E+02  0.4161E+03
      0.043  0.8336E+02  0.4181E+03
      0.066  0.1903E+03  0.4225E+03
      0.090  0.2888E+03  0.4292E+03
      0.113  0.3171E+03  0.4366E+03
      0.136  0.2654E+03  0.4428E+03
      0.159  0.1917E+03  0.4472E+03
      0.183  0.1825E+03  0.4515E+03
      0.206  0.2167E+03  0.4565E+03
      0.229  0.2148E+03  0.4615E+03
      0.252  0.1846E+03  0.4658E+03
      0.276  0.1926E+03  0.4703E+03
      0.299  0.2226E+03  0.4755E+03
      0.322  0.2381E+03  0.4810E+03
      0.346  0.2681E+03  0.4872E+03
      0.369  0.2821E+03  0.4938E+03
      0.392  0.2448E+03  0.4995E+03
      0.415  0.2031E+03  0.5042E+03
      0.439  0.2229E+03  0.5094E+03
      0.462  0.2460E+03  0.5151E+03
      0.485  0.2254E+03  0.5204E+03
      0.508  0.2103E+03  0.5252E+03
      0.532  0.2467E+03  0.5310E+03
      0.555  0.3128E+03  0.5383E+03
      0.578  0.3669E+03  0.5468E+03
      0.601  0.3903E+03  0.5559E+03
      0.625  0.3728E+03  0.5645E+03
      0.648  0.3275E+03  0.5722E+03
      0.671  0.2916E+03  0.5789E+03
      0.694  0.2852E+03  0.5856E+03
      0.718  0.2796E+03  0.5921E+03
      0.741  0.2720E+03  0.5984E+03
      0.764  0.2670E+03  0.6046E+03
      0.787  0.2394E+03  0.6102E+03
      0.811  0.1649E+03  0.6140E+03
      0.834  0.7564E+02  0.6158E+03
      0.857  0.5341E+02  0.6170E+03
      0.880  0.1058E+03  0.6195E+03
      0.904  0.1502E+03  0.6230E+03
      0.927  0.1698E+03  0.6269E+03
      0.950  0.1788E+03  0.6311E+03
      0.974  0.1631E+03  0.6349E+03
      0.997  0.1845E+03  0.6392E+03
      1.020  0.2476E+03  0.6449E+03
      1.043  0.2716E+03  0.6512E+03
      1.067  0.2524E+03  0.6571E+03
      1.090  0.2445E+03  0.6628E+03
      1.113  0.2585E+03  0.6688E+03
      1.136  0.2821E+03  0.6754E+03
      1.160  0.3017E+03  0.6824E+03
      1.183  0.3106E+03  0.6896E+03
      1.206  0.2933E+03  0.6964E+03
      1.229  0.2616E+03  0.7025E+03
      1.253  0.2332E+03  0.7079E+03
      1.276  0.2053E+03  0.7127E+03
      1.299  0.1787E+03  0.7169E+03
      1.322  0.1720E+03  0.7209E+03
      1.346  0.1996E+03  0.7255E+03
      1.369  0.2228E+03  0.7307E+03
      1.392  0.2188E+03  0.7358E+03
      1.415  0.2198E+03  0.7409E+03
      1.439  0.2372E+03  0.7464E+03
      1.462  0.2307E+03  0.7518E+03
      1.485  0.2036E+03  0.7565E+03
      1.508  0.1875E+03  0.7609E+03
      1.532  0.1773E+03  0.7650E+03
      1.555  0.1626E+03  0.7688E+03
      1.578  0.1460E+03  0.7722E+03
      1.601  0.1424E+03  0.7755E+03
      1.625  0.1551E+03  0.7791E+03
      1.648  0.1556E+03  0.7827E+03
      1.671  0.1399E+03  0.7860E+03
      1.695  0.1214E+03  0.7888E+03
      1.718  0.1042E+03  0.7912E+03
      1.741  0.1193E+03  0.7940E+03
      1.764  0.1490E+03  0.7975E+03
      1.788  0.1735E+03  0.8015E+03
      1.811  0.2007E+03  0.8062E+03
      1.834  0.2251E+03  0.8114E+03
      1.857  0.2470E+03  0.8171E+03
      1.881  0.2697E+03  0.8234E+03
      1.904  0.2688E+03  0.8297E+03
      1.927  0.2551E+03  0.8356E+03
      1.950  0.2504E+03  0.8414E+03
      1.974  0.2441E+03  0.8471E+03
      1.997  0.2293E+03  0.8524E+03
      2.020  0.2201E+03  0.8576E+03
      2.043  0.2004E+03  0.8622E+03
      2.067  0.1622E+03  0.8660E+03
      2.090  0.1367E+03  0.8692E+03
      2.113  0.1396E+03  0.8724E+03
      2.136  0.1493E+03  0.8759E+03
      2.160  0.1324E+03  0.8790E+03
      2.183  0.1079E+03  0.8815E+03
      2.206  0.1184E+03  0.8842E+03
      2.229  0.1442E+03  0.8876E+03
      2.253  0.1645E+03  0.8914E+03
      2.276  0.1651E+03  0.8952E+03
      2.299  0.1530E+03  0.8988E+03
      2.323  0.1452E+03  0.9022E+03
      2.346  0.1558E+03  0.9058E+03
      2.369  0.1576E+03  0.9095E+03
      2.392  0.1433E+03  0.9128E+03
      2.416  0.1360E+03  0.9160E+03
      2.439  0.1289E+03  0.9190E+03
      2.462  0.1258E+03  0.9219E+03
      2.485  0.1407E+03  0.9252E+03
      2.509  0.1565E+03  0.9288E+03
      2.532  0.1565E+03  0.9324E+03
      2.555  0.1490E+03  0.9359E+03
      2.578  0.1414E+03  0.9392E+03
      2.602  0.1235E+03  0.9421E+03
      2.625  0.1000E+03  0.9444E+03
      2.648  0.7347E+02  0.9461E+03
      2.671  0.7715E+02  0.9479E+03
      2.695  0.1101E+03  0.9505E+03
      2.718  0.1297E+03  0.9535E+03
      2.741  0.1355E+03  0.9566E+03
      2.764  0.1568E+03  0.9603E+03
      2.788  0.1755E+03  0.9644E+03
      2.811  0.1795E+03  0.9685E+03
      2.834  0.1768E+03  0.9727E+03
      2.857  0.1655E+03  0.9765E+03
      2.881  0.1546E+03  0.9801E+03
      2.904  0.1404E+03  0.9834E+03
      2.927  0.1126E+03  0.9860E+03
      2.950  0.6364E+02  0.9875E+03
      2.974  0.2000E+02  0.9879E+03
      2.997  0.2915E+01  0.9880E+03
      3.020  0.1684E+00  0.9880E+03
      3.044  0.7021E-01  0.9880E+03
      3.067  0.1662E+01  0.9880E+03
      3.090  0.1470E+02  0.9884E+03
      3.113  0.5139E+02  0.9896E+03
      3.137  0.8784E+02  0.9916E+03
      3.160  0.1057E+03  0.9941E+03
      3.183  0.1188E+03  0.9968E+03
      3.206  0.1172E+03  0.9996E+03
      3.230  0.7669E+02  0.1001E+04
      3.253  0.2455E+02  0.1002E+04
      3.276  0.3160E+01  0.1002E+04
      3.299  0.1467E+00  0.1002E+04
      3.323  0.2304E-02  0.1002E+04
      3.346  0.1177E-04  0.1002E+04
      3.369  0.1908E-07  0.1002E+04
      3.392  0.9664E-11  0.1002E+04
      3.416  0.0000E+00  0.1002E+04
      3.439  0.0000E+00  0.1002E+04
      3.462  0.0000E+00  0.1002E+04
      3.485  0.0000E+00  0.1002E+04
      3.509  0.0000E+00  0.1002E+04
      3.532  0.0000E+00  0.1002E+04
