       N       E                     dE             d eps       ncg     rms          rms(c)
DAV:   1    -0.305137560573E+03   -0.30514E+03   -0.12123E+05  4008   0.656E+02
DAV:   2    -0.893881073163E+03   -0.58874E+03   -0.54002E+03  4588   0.671E+01
DAV:   3    -0.935345070418E+03   -0.41464E+02   -0.37686E+02  5152   0.140E+01
DAV:   4    -0.936739904175E+03   -0.13948E+01   -0.13728E+01  4624   0.280E+00
DAV:   5    -0.936771204089E+03   -0.31300E-01   -0.31250E-01  4800   0.448E-01    0.712E+00
DAV:   6    -0.939484311482E+03   -0.27131E+01   -0.66209E+00  4672   0.405E+00    0.752E+00
DAV:   7    -0.930572296551E+03    0.89120E+01   -0.69034E+00  4696   0.374E+00    0.351E+00
DAV:   8    -0.929647732973E+03    0.92456E+00   -0.31196E+00  4512   0.162E+00    0.212E+00
DAV:   9    -0.929310848637E+03    0.33688E+00   -0.14609E+00  4336   0.101E+00    0.115E+00
DAV:  10    -0.929376855036E+03   -0.66006E-01   -0.31564E-01  4856   0.651E-01    0.113E+00
DAV:  11    -0.929232342292E+03    0.14451E+00   -0.15772E-01  4608   0.449E-01    0.451E-01
DAV:  12    -0.929231517378E+03    0.82491E-03   -0.53722E-02  4472   0.191E-01    0.247E-01
DAV:  13    -0.929231131836E+03    0.38554E-03   -0.15187E-02  4616   0.140E-01    0.194E-01
DAV:  14    -0.929227547187E+03    0.35846E-02   -0.42777E-03  4512   0.835E-02    0.967E-02
DAV:  15    -0.929226930919E+03    0.61627E-03   -0.13773E-03  4400   0.395E-02    0.470E-02
DAV:  16    -0.929227033879E+03   -0.10296E-03   -0.60976E-04  4648   0.275E-02    0.404E-02
DAV:  17    -0.929226795960E+03    0.23792E-03   -0.32780E-04  4608   0.208E-02    0.138E-02
DAV:  18    -0.929226779913E+03    0.16047E-04   -0.84228E-05  4296   0.782E-03    0.732E-03
DAV:  19    -0.929226775056E+03    0.48573E-05   -0.14924E-05  2816   0.439E-03
   1 F= -.92922678E+03 E0= -.92917929E+03  d E =-.949643E-01
