Li                                      
           1
    21.650000    0.000000    0.000000
     0.000000   21.650000    0.000000
    -0.000000   -0.000000   21.650000
   Li
   500
Direct configuration=     1
   0.00286719  0.01589333  0.98617071
   0.01180526  0.09070823  0.10871425
   0.00413819  0.19624214  0.20392733
   0.01172148  0.29040087  0.29910625
   0.00144083  0.39581246  0.39183193
   0.00925415  0.49064592  0.49252004
   0.99807308  0.59740420  0.59385379
   0.00212537  0.69290989  0.68818801
   0.01749746  0.79609472  0.79807648
   0.01682282  0.89492526  0.88794527
   0.09559043  0.00168558  0.10581463
   0.10526668  0.08534435  0.21086995
   0.11200028  0.17731182  0.28277668
   0.10736805  0.29042147  0.41041846
   0.08616604  0.38754311  0.49625746
   0.10441168  0.50696200  0.59923227
   0.08938482  0.59313639  0.69683318
   0.09285299  0.69542830  0.79350027
   0.10204434  0.78855553  0.92183300
   0.09904014  0.89958313  0.99032456
   0.20035492  0.99936140  0.19288001
   0.20955928  0.07604518  0.30017447
   0.21814180  0.18717783  0.40396716
   0.20693147  0.30983733  0.50462227
   0.21268913  0.41380426  0.59276524
   0.20522320  0.50137735  0.69205902
   0.19573112  0.59284442  0.79545792
   0.18777974  0.68320389  0.89981403
   0.20619119  0.78947230  0.00511391
   0.20439057  0.88332941  0.09259903
   0.31173692  0.99176625  0.29571352
   0.30761137  0.09567376  0.40001166
   0.30719694  0.20538808  0.49907377
   0.30659784  0.30521868  0.60026413
   0.30246697  0.40601094  0.70340929
   0.31641619  0.50442806  0.79804907
   0.30282318  0.60406377  0.89466662
   0.29576291  0.67917010  0.00917746
   0.30060956  0.78602330  0.08310722
   0.30240699  0.87928366  0.18338915
   0.40514048  0.01159195  0.40866388
   0.40036572  0.11490400  0.50269735
   0.39024089  0.21525822  0.59642894
   0.39169651  0.29139980  0.70668169
   0.41308956  0.39608872  0.81027156
   0.40581321  0.49987132  0.90020279
   0.38867174  0.60243212  0.99681900
   0.39550690  0.68658870  0.11599258
   0.40623879  0.80970303  0.19473896
   0.39879012  0.88982058  0.29263191
   0.50207891  0.00307946  0.51606879
   0.50353329  0.11544325  0.59907114
   0.49799998  0.21451311  0.70111032
   0.50426280  0.29126847  0.81947323
   0.51534902  0.38268784  0.90405399
   0.49400651  0.49246642  0.00824898
   0.50142798  0.59668989  0.09811361
   0.49014314  0.69213645  0.18780050
   0.51402928  0.80146901  0.28297952
   0.49683411  0.90294036  0.40392018
   0.59425760  0.00593111  0.60622689
   0.57527959  0.10530829  0.69597778
   0.59878960  0.20922902  0.79291360
   0.61892329  0.28700953  0.91030427
   0.60785878  0.39714495  0.02026488
   0.60115166  0.50585940  0.11473533
   0.60777749  0.59150280  0.20391411
   0.59912808  0.69899074  0.29246897
   0.59253515  0.80224336  0.38559951
   0.59474256  0.89977666  0.48951495
   0.69756139  0.00796834  0.69337065
   0.68830704  0.09438632  0.79895732
   0.70201228  0.18975745  0.90703000
   0.69452573  0.29864682  0.02356904
   0.71431823  0.40365676  0.10978793
   0.71096787  0.50775432  0.21302035
   0.69520373  0.59441547  0.31723363
   0.70113329  0.71175461  0.38484958
   0.68593505  0.78612832  0.48925437
   0.70282875  0.89809941  0.59718897
   0.79903127  0.00930677  0.79265150
   0.80000850  0.10082724  0.89899799
   0.80305590  0.19913317  0.01472261
   0.81489471  0.29141690  0.10677230
   0.81230553  0.38625052  0.21041732
   0.80911318  0.50211210  0.31096628
   0.80286291  0.60075718  0.41151249
   0.80462435  0.72084368  0.51109549
   0.79593758  0.78787148  0.61113590
   0.79025791  0.90557613  0.70460634
   0.90820591  0.01289987  0.90082823
   0.91558720  0.10200077  0.01273005
   0.89842701  0.20096926  0.10364961
   0.90829786  0.30503493  0.20585634
   0.90265757  0.38512671  0.30667638
   0.90216756  0.49296402  0.40137527
   0.90109512  0.60816154  0.51349300
   0.89718467  0.69899569  0.61802890
   0.87985296  0.81034805  0.70726273
   0.90147153  0.90445380  0.81417520
   0.10008180  0.10619231  0.99175639
   0.10007041  0.20089426  0.09614571
   0.10974529  0.30184980  0.20465962
   0.09007394  0.38192506  0.30413569
   0.09448210  0.49980209  0.41832229
   0.10559710  0.61836819  0.49823634
   0.10485122  0.69687168  0.61166334
   0.12005317  0.79507153  0.69290042
   0.10563145  0.89671717  0.78924325
   0.10593213  0.01293978  0.89916287
   0.19585811  0.09666062  0.08258334
   0.18917775  0.19434294  0.18825463
   0.20010396  0.30041378  0.31062169
   0.18951299  0.41796774  0.41314224
   0.20918201  0.50107622  0.50376482
   0.19845105  0.60830951  0.61839175
   0.20363621  0.68745797  0.72398570
   0.19022944  0.80264306  0.80645533
   0.18869509  0.90296389  0.90836020
   0.18869554  0.00479997  0.00369163
   0.29728303  0.08522189  0.19131547
   0.28575724  0.19284153  0.29510713
   0.28833336  0.30538119  0.38962726
   0.31462750  0.40316589  0.51017953
   0.30748798  0.50346427  0.59612459
   0.30818339  0.60854160  0.69555065
   0.30531328  0.70303019  0.79240894
   0.29422335  0.78919675  0.92180678
   0.30036966  0.88732211  0.99900120
   0.29525600  0.00194823  0.10056901
   0.39473746  0.09496726  0.30245118
   0.38683102  0.20973696  0.39378163
   0.39720165  0.29914691  0.49398277
   0.41707281  0.38902915  0.59258679
   0.39872575  0.50057964  0.69679350
   0.40944921  0.60126697  0.80664818
   0.40832808  0.69262217  0.89690241
   0.40665189  0.79313868  0.01367452
   0.40166637  0.90990528  0.08767331
   0.39872004  0.99311277  0.19914587
   0.48574873  0.09633641  0.39280250
   0.49950875  0.19979634  0.49157806
   0.51055026  0.29749191  0.58975525
   0.50062390  0.39637604  0.70300601
   0.50943845  0.49750721  0.80806206
   0.51921708  0.60226471  0.90230287
   0.50066395  0.69455622  0.00181048
   0.49328336  0.79343090  0.09659062
   0.49630137  0.90954722  0.20191246
   0.49016943  0.99686364  0.30717015
   0.59064043  0.10917455  0.49390393
   0.60791346  0.20111347  0.60896975
   0.60845513  0.30576106  0.69729943
   0.60153418  0.39797538  0.80038036
   0.61559745  0.50594092  0.90607029
   0.60657898  0.59890081  0.00205130
   0.59935363  0.68801535  0.09575740
   0.58212863  0.79364004  0.17771005
   0.60604545  0.90200821  0.29866707
   0.58512119  0.99587109  0.39772395
   0.68584108  0.09655590  0.59988637
   0.69661906  0.19094320  0.70787122
   0.72240705  0.29602980  0.80829229
   0.70823392  0.39067490  0.90644454
   0.69918412  0.48442645  0.00392689
   0.70312828  0.59103387  0.10487039
   0.69927472  0.69303600  0.19783626
   0.68052957  0.79443744  0.27981335
   0.69093063  0.89757186  0.39691929
   0.69872231  0.01743057  0.49187726
   0.80223841  0.10250436  0.68321612
   0.80685440  0.17630493  0.79700397
   0.80145440  0.27140761  0.91564703
   0.79737883  0.38645784  0.98515677
   0.80337860  0.50611343  0.09187376
   0.80204811  0.59461522  0.22167628
   0.81597525  0.69928432  0.29634257
   0.79767933  0.80272820  0.38324381
   0.78080689  0.89641995  0.50147560
   0.79138701  0.99846904  0.60044869
   0.90894539  0.08999891  0.78437906
   0.90230039  0.18680493  0.89809468
   0.90906012  0.30503632  0.00019379
   0.89995520  0.40920049  0.10393169
   0.89851170  0.49112197  0.21837543
   0.90378939  0.60914596  0.30186436
   0.90599485  0.70561481  0.40058852
   0.90051230  0.81252303  0.50001098
   0.89274985  0.90811842  0.58585409
   0.89842926  0.99097899  0.69658201
   0.00314738  0.11983587  0.88623438
   0.98667441  0.19228399  0.99906335
   0.99402927  0.29468384  0.10296826
   0.00491900  0.39943722  0.20516578
   0.99693000  0.49733483  0.31367556
   0.99254339  0.61647696  0.41001089
   0.00785274  0.70085917  0.50371176
   0.99802125  0.80327167  0.59666128
   0.99512743  0.89756823  0.69673229
   0.00885678  0.99167749  0.79528335
   0.20507978  0.21437852  0.99233261
   0.21172544  0.30537284  0.10790154
   0.20287477  0.41081903  0.21002909
   0.19092979  0.50638111  0.30824932
   0.19374482  0.59350525  0.40923832
   0.20529221  0.70529550  0.49876876
   0.20756764  0.77678354  0.59089473
   0.20173079  0.89754886  0.68237227
   0.20247040  0.00619588  0.78130858
   0.21620416  0.10177822  0.89756481
   0.30724550  0.20918433  0.10440865
   0.31035342  0.31260496  0.21340634
   0.29643928  0.42138261  0.31249872
   0.29055497  0.49596561  0.41076004
   0.30049759  0.60709000  0.51848873
   0.30960745  0.70570939  0.61139795
   0.29412620  0.80306334  0.70470727
   0.27956281  0.89613382  0.80802809
   0.28996120  0.00421719  0.90106850
   0.29693103  0.10127958  0.99473042
   0.39586041  0.20713321  0.19722580
   0.38203792  0.30646081  0.30256036
   0.39668593  0.40467661  0.40256493
   0.40392501  0.49572144  0.49759407
   0.40883247  0.59997678  0.58731720
   0.39811333  0.71135882  0.70826527
   0.40023002  0.80737783  0.79136024
   0.39799525  0.90022600  0.89953948
   0.39660969  0.00575753  0.99665030
   0.38814272  0.08903882  0.08431127
   0.48920567  0.20138281  0.29522858
   0.48946318  0.30472371  0.40302372
   0.50144826  0.40480039  0.50591039
   0.48775353  0.49694078  0.61284588
   0.49662824  0.60139826  0.70044465
   0.50708577  0.70694057  0.80336391
   0.49781238  0.81242958  0.89346087
   0.48570130  0.90829751  0.99076797
   0.50280124  0.98918101  0.08121311
   0.49942987  0.08715463  0.19580139
   0.58804117  0.20843558  0.38571405
   0.60307438  0.29663757  0.49845797
   0.61166992  0.39602996  0.60772893
   0.59665265  0.49985063  0.70815374
   0.60666814  0.59181720  0.80466052
   0.60369193  0.70820543  0.91009727
   0.61229011  0.81372037  0.00149274
   0.60265974  0.91289936  0.08721485
   0.58580771  0.00811926  0.19943670
   0.58530813  0.09082765  0.31016015
   0.69093480  0.20290794  0.48252923
   0.68524877  0.29367372  0.59761008
   0.70071261  0.39980440  0.71008112
   0.72482314  0.48642468  0.80997511
   0.70844628  0.60171061  0.91827054
   0.70749432  0.71186243  0.00329046
   0.70920689  0.79814315  0.10082642
   0.68743426  0.89761429  0.19682258
   0.69950193  0.02927287  0.30525501
   0.67917611  0.12006625  0.38653359
   0.79376052  0.19338504  0.58580798
   0.79000097  0.28146667  0.70098805
   0.80395308  0.38263629  0.81736094
   0.80379636  0.49172748  0.90664924
   0.81103832  0.61139591  0.00929109
   0.80697754  0.69687695  0.10917738
   0.79770725  0.80207407  0.19724814
   0.77513920  0.90229292  0.29762405
   0.78641755  0.00399709  0.40294728
   0.78744454  0.10048490  0.48464653
   0.90236410  0.19851976  0.69359627
   0.88700811  0.28362055  0.78728564
   0.90146844  0.40213067  0.90058737
   0.90189888  0.50756876  0.00549877
   0.89972644  0.59272312  0.11558837
   0.92152796  0.71046944  0.20581232
   0.90060790  0.80619992  0.30380606
   0.89804094  0.90455910  0.39219817
   0.89397884  0.00551769  0.48805899
   0.89342972  0.07965619  0.60399012
   0.00010342  0.20508389  0.78188607
   0.99988590  0.29659636  0.88081289
   0.99485308  0.40311394  0.98766841
   0.01023246  0.50187107  0.09850519
   0.99809987  0.58026705  0.20254204
   0.00789032  0.70421363  0.29616731
   0.00443923  0.78908497  0.40730311
   0.99096064  0.91629441  0.48101865
   0.01624306  0.98225820  0.59324108
   0.00776218  0.08873281  0.70444394
   0.09397518  0.20620571  0.88367828
   0.09528152  0.29157463  0.98168920
   0.09636790  0.38686484  0.09627280
   0.08947735  0.48063850  0.20210322
   0.09494643  0.59252413  0.30059379
   0.10807227  0.71030144  0.39678520
   0.08836640  0.80786695  0.49687039
   0.09941787  0.88851366  0.58197155
   0.11223923  0.00284811  0.69551883
   0.11320042  0.11105742  0.78464537
   0.29778798  0.30482744  0.99413419
   0.29522228  0.40469294  0.09912665
   0.30099311  0.50025377  0.20765882
   0.29547053  0.60016101  0.31134396
   0.29132534  0.70404487  0.40580247
   0.31801195  0.80337046  0.51551574
   0.31324006  0.89743829  0.60780025
   0.30047247  0.00901749  0.69544761
   0.29938726  0.09685308  0.79637966
   0.29629346  0.20175298  0.90439402
   0.39851596  0.32340852  0.09693146
   0.38426440  0.40080410  0.19395404
   0.39457331  0.50434064  0.31061059
   0.38835057  0.60676724  0.40576964
   0.40514998  0.70354183  0.50232603
   0.40993262  0.80994477  0.60596925
   0.39215580  0.89977363  0.70800923
   0.39298804  0.00826116  0.81411395
   0.39527791  0.11305399  0.91271711
   0.40251638  0.21444361  0.00920734
   0.48439841  0.31352783  0.19419813
   0.47208909  0.41094792  0.28316821
   0.48868052  0.49227987  0.39635817
   0.49808286  0.58537419  0.48752410
   0.49952293  0.69313541  0.59269043
   0.49332833  0.80136562  0.69779065
   0.49790633  0.90390939  0.79715654
   0.48866371  0.00526650  0.90400183
   0.50311667  0.09141785  0.00500167
   0.48955333  0.19451046  0.10305663
   0.58465931  0.31409850  0.27308851
   0.58156521  0.40299139  0.38235317
   0.60743101  0.50581005  0.49343395
   0.59033756  0.58749622  0.60861127
   0.58051339  0.69540491  0.70271637
   0.60209853  0.79813101  0.79909247
   0.59980601  0.91206240  0.89518675
   0.61102614  0.00203694  0.99261716
   0.59335871  0.10350693  0.09723741
   0.58358414  0.19501041  0.19482148
   0.69852962  0.30576455  0.37688123
   0.69283170  0.38565776  0.49556078
   0.68958246  0.50008268  0.60029806
   0.69753372  0.59917555  0.70905829
   0.68919985  0.70086966  0.80350659
   0.70509807  0.81479991  0.90490306
   0.70761865  0.91464145  0.00100115
   0.69528248  0.99761137  0.10696126
   0.69235411  0.11094858  0.20202734
   0.68235779  0.21229820  0.28734713
   0.79105151  0.30421523  0.48953120
   0.78279143  0.38283499  0.58240329
   0.80915382  0.50251098  0.70102611
   0.80220433  0.60545719  0.81542701
   0.78969000  0.69564919  0.90504551
   0.79982284  0.80084161  0.00345434
   0.79773333  0.89901428  0.09116014
   0.78430860  0.00312487  0.19946799
   0.79810045  0.11909875  0.29715241
   0.78553168  0.20745016  0.39041777
   0.89315041  0.28922772  0.59913015
   0.88899096  0.39470552  0.70034270
   0.89489152  0.49802683  0.79804919
   0.90003415  0.60080197  0.90676098
   0.90094947  0.69254963  0.01461723
   0.89540354  0.80599301  0.10578653
   0.88919262  0.90429639  0.20800451
   0.90329168  0.98972441  0.29777657
   0.90913595  0.10626318  0.40266106
   0.89133879  0.18905314  0.50349923
   0.98547194  0.29089394  0.68161018
   0.99237145  0.39329158  0.78826993
   0.99555332  0.49968607  0.90275660
   0.00331363  0.60875692  0.99915226
   0.01997988  0.68987782  0.10887294
   0.00180994  0.80972712  0.19865106
   0.00128638  0.89722991  0.30476388
   0.99063376  0.01540061  0.39373740
   0.99904353  0.08886765  0.49670511
   0.99637426  0.19344027  0.60498500
   0.11885414  0.30502871  0.78198433
   0.09138283  0.39831106  0.89531999
   0.10618184  0.50242152  0.99437650
   0.10758545  0.60494509  0.12132668
   0.09495923  0.71064545  0.20558039
   0.09688355  0.81491649  0.30723002
   0.11094844  0.91749115  0.40884765
   0.11910508  0.00936186  0.49634277
   0.11610169  0.09383127  0.59578021
   0.09000266  0.19568042  0.68651379
   0.20248564  0.30815475  0.90244136
   0.20010262  0.40569589  0.99914097
   0.18874524  0.49622013  0.11299276
   0.19332259  0.60767611  0.19093226
   0.18364068  0.69637157  0.30797358
   0.21062716  0.81128453  0.41114072
   0.21684747  0.90384356  0.49659311
   0.20814516  0.99899647  0.60704775
   0.20510794  0.10624459  0.69639976
   0.20270329  0.21574903  0.79131401
   0.40189795  0.40016347  0.99281355
   0.38198174  0.50079523  0.09101747
   0.39929351  0.60187719  0.20767046
   0.40107954  0.71347576  0.30030150
   0.40128341  0.80566718  0.40678293
   0.40024632  0.89717923  0.52335456
   0.42217784  0.00322161  0.60854809
   0.40243227  0.11517091  0.69837933
   0.39847073  0.19798392  0.80746908
   0.39616365  0.29220848  0.90527080
   0.49278615  0.40790914  0.10367086
   0.49085629  0.49469439  0.19569494
   0.49175830  0.60500115  0.29654078
   0.48522733  0.71507728  0.39454157
   0.49763211  0.80165235  0.51056959
   0.50180682  0.89835374  0.60800458
   0.48124627  0.01508729  0.71265363
   0.49535546  0.10261971  0.81802511
   0.51242888  0.20204977  0.92724134
   0.51370039  0.29530594  0.01708464
   0.62047729  0.42634722  0.20028003
   0.59537769  0.50882501  0.29578887
   0.57957750  0.60636503  0.40259728
   0.59342068  0.69344288  0.49862081
   0.61034394  0.81541282  0.60907842
   0.59417778  0.89966398  0.70528915
   0.59708054  0.00731616  0.79063260
   0.59557605  0.11672999  0.90188724
   0.60249816  0.21047415  0.00440189
   0.59998504  0.29764439  0.12406208
   0.70228712  0.39269263  0.29465779
   0.69862786  0.49917336  0.39672408
   0.69505839  0.61366678  0.48223479
   0.68867144  0.70478452  0.59887462
   0.69497244  0.80653953  0.70331271
   0.70311959  0.93525144  0.80726289
   0.69972065  0.00077179  0.90456513
   0.70653310  0.10019060  0.00470852
   0.70250117  0.19776294  0.10173075
   0.70763291  0.28780620  0.19276837
   0.80539313  0.40133520  0.38031397
   0.80327028  0.48903545  0.49579436
   0.78633095  0.58735005  0.58490412
   0.79835076  0.68741508  0.70755827
   0.79147449  0.79659216  0.80188353
   0.79275647  0.91231917  0.89753231
   0.80474344  0.01244725  0.00349850
   0.81723251  0.10000431  0.10386782
   0.81506677  0.19645116  0.20131734
   0.80656256  0.28578180  0.31315704
   0.90402595  0.40720306  0.49101301
   0.88677748  0.48840934  0.59400695
   0.90073058  0.58525141  0.70103661
   0.90387431  0.70563345  0.79843186
   0.90633121  0.79735993  0.89747552
   0.90037468  0.91230110  0.99827463
   0.90628962  0.99453416  0.10684537
   0.90840581  0.09922134  0.20254090
   0.91139705  0.20675895  0.30183001
   0.90446947  0.29098869  0.40064902
   0.00088833  0.39722951  0.60243535
   0.00228530  0.49622896  0.69509992
   0.98868833  0.59922363  0.78845125
   0.99697443  0.69892857  0.89290342
   0.99785631  0.79233038  0.99822302
   0.01767512  0.89375006  0.08862372
   0.00643639  0.98712224  0.20471517
   0.00572262  0.09524918  0.30378879
   0.01276417  0.20086851  0.39202104
   0.00714861  0.28864076  0.50173330
   0.09545760  0.39680906  0.68209085
   0.08814763  0.50183598  0.79469478
   0.08590415  0.59105960  0.89221324
   0.09805026  0.68465365  0.00662592
   0.10548135  0.79272805  0.10119833
   0.10946045  0.90092539  0.18615925
   0.10064842  0.00415104  0.30015249
   0.10663893  0.09753341  0.40147045
   0.09826960  0.18879814  0.51422598
   0.10961458  0.28997363  0.58873335
   0.20083376  0.40474803  0.78581565
   0.19507510  0.50322890  0.88119535
   0.19575353  0.58711409  0.99124182
   0.20803665  0.68464962  0.10120750
   0.19409612  0.79617608  0.19386772
   0.20892939  0.89934416  0.30644194
   0.22297560  0.98726065  0.39355145
   0.21197689  0.09943646  0.48624533
   0.22072092  0.19051922  0.58395639
   0.21889693  0.29561210  0.68436062
   0.29627328  0.39906822  0.89533920
   0.30308955  0.48977370  0.99258386
   0.29179859  0.59188760  0.09628950
   0.29961334  0.69444813  0.19971446
   0.29680285  0.79579981  0.29052012
   0.31594351  0.89829423  0.41389553
   0.30878677  0.01248004  0.51554313
   0.30693194  0.10495425  0.59586582
   0.30462433  0.19864410  0.70703283
   0.29785922  0.30777112  0.80242386
