 432 432   0   0
  0.1915683E+02  0.2022720E-08  0.2022720E-08  0.2022720E-08  0.5000000E-15
  1.000000000000000E-004
  CAR 
 Li                                      
      3.80566233     -3.36047124  301      0.54139522      1.00000000
     -3.360  0.0000E+00  0.0000E+00
     -3.337  0.0000E+00  0.0000E+00
     -3.313  0.0000E+00  0.0000E+00
     -3.289  0.0000E+00  0.0000E+00
     -3.265  0.0000E+00  0.0000E+00
     -3.241  0.0000E+00  0.0000E+00
     -3.217  0.0000E+00  0.0000E+00
     -3.193  0.3172E-11  0.7577E-13
     -3.169  0.8929E-08  0.2134E-09
     -3.145  0.7268E-05  0.1738E-06
     -3.122  0.1727E-02  0.4144E-04
     -3.098  0.1216E+00  0.2946E-02
     -3.074  0.2586E+01  0.6471E-01
     -3.050  0.1700E+02  0.4708E+00
     -3.026  0.3532E+02  0.1314E+01
     -3.002  0.2344E+02  0.1874E+01
     -2.978  0.5065E+01  0.1995E+01
     -2.954  0.3371E+01  0.2076E+01
     -2.931  0.2440E+02  0.2659E+01
     -2.907  0.7274E+02  0.4396E+01
     -2.883  0.9005E+02  0.6547E+01
     -2.859  0.4890E+02  0.7715E+01
     -2.835  0.1129E+02  0.7985E+01
     -2.811  0.6682E+01  0.8145E+01
     -2.787  0.3753E+02  0.9041E+01
     -2.763  0.8898E+02  0.1117E+02
     -2.739  0.8279E+02  0.1314E+02
     -2.716  0.3124E+02  0.1389E+02
     -2.692  0.7827E+01  0.1408E+02
     -2.668  0.2672E+02  0.1472E+02
     -2.644  0.8096E+02  0.1665E+02
     -2.620  0.1124E+03  0.1933E+02
     -2.596  0.8028E+02  0.2125E+02
     -2.572  0.2867E+02  0.2194E+02
     -2.548  0.1889E+02  0.2239E+02
     -2.524  0.6757E+02  0.2400E+02
     -2.501  0.1359E+03  0.2725E+02
     -2.477  0.1503E+03  0.3084E+02
     -2.453  0.9629E+02  0.3314E+02
     -2.429  0.3214E+02  0.3390E+02
     -2.405  0.1349E+02  0.3423E+02
     -2.381  0.4640E+02  0.3534E+02
     -2.357  0.9168E+02  0.3753E+02
     -2.333  0.7542E+02  0.3933E+02
     -2.309  0.2578E+02  0.3994E+02
     -2.286  0.1398E+02  0.4028E+02
     -2.262  0.5686E+02  0.4164E+02
     -2.238  0.1263E+03  0.4465E+02
     -2.214  0.1470E+03  0.4816E+02
     -2.190  0.1071E+03  0.5072E+02
     -2.166  0.5229E+02  0.5197E+02
     -2.142  0.5539E+02  0.5329E+02
     -2.118  0.1260E+03  0.5630E+02
     -2.094  0.1785E+03  0.6056E+02
     -2.071  0.1783E+03  0.6482E+02
     -2.047  0.1337E+03  0.6802E+02
     -2.023  0.6553E+02  0.6958E+02
     -1.999  0.2469E+02  0.7017E+02
     -1.975  0.4647E+02  0.7128E+02
     -1.951  0.9037E+02  0.7344E+02
     -1.927  0.7570E+02  0.7525E+02
     -1.903  0.3063E+02  0.7598E+02
     -1.879  0.2970E+02  0.7669E+02
     -1.856  0.8587E+02  0.7874E+02
     -1.832  0.1518E+03  0.8237E+02
     -1.808  0.1658E+03  0.8633E+02
     -1.784  0.1104E+03  0.8896E+02
     -1.760  0.4535E+02  0.9005E+02
     -1.736  0.5361E+02  0.9133E+02
     -1.712  0.1291E+03  0.9441E+02
     -1.688  0.1878E+03  0.9890E+02
     -1.664  0.1931E+03  0.1035E+03
     -1.641  0.1313E+03  0.1066E+03
     -1.617  0.5260E+02  0.1079E+03
     -1.593  0.4007E+02  0.1089E+03
     -1.569  0.9651E+02  0.1112E+03
     -1.545  0.1486E+03  0.1147E+03
     -1.521  0.1379E+03  0.1180E+03
     -1.497  0.7887E+02  0.1199E+03
     -1.473  0.6880E+02  0.1215E+03
     -1.450  0.1228E+03  0.1245E+03
     -1.426  0.1633E+03  0.1284E+03
     -1.402  0.1799E+03  0.1327E+03
     -1.378  0.1475E+03  0.1362E+03
     -1.354  0.7875E+02  0.1381E+03
     -1.330  0.8312E+02  0.1401E+03
     -1.306  0.1559E+03  0.1438E+03
     -1.282  0.1991E+03  0.1485E+03
     -1.258  0.1750E+03  0.1527E+03
     -1.235  0.1008E+03  0.1551E+03
     -1.211  0.4306E+02  0.1562E+03
     -1.187  0.5846E+02  0.1575E+03
     -1.163  0.1191E+03  0.1604E+03
     -1.139  0.1478E+03  0.1639E+03
     -1.115  0.1152E+03  0.1667E+03
     -1.091  0.5474E+02  0.1680E+03
     -1.067  0.4477E+02  0.1691E+03
     -1.043  0.8231E+02  0.1710E+03
     -1.020  0.1197E+03  0.1739E+03
     -0.996  0.1372E+03  0.1772E+03
     -0.972  0.1150E+03  0.1799E+03
     -0.948  0.1178E+03  0.1827E+03
     -0.924  0.1789E+03  0.1870E+03
     -0.900  0.2314E+03  0.1925E+03
     -0.876  0.2489E+03  0.1985E+03
     -0.852  0.2294E+03  0.2039E+03
     -0.828  0.1739E+03  0.2081E+03
     -0.805  0.1314E+03  0.2112E+03
     -0.781  0.1586E+03  0.2150E+03
     -0.757  0.1847E+03  0.2194E+03
     -0.733  0.1617E+03  0.2233E+03
     -0.709  0.1193E+03  0.2262E+03
     -0.685  0.7109E+02  0.2278E+03
     -0.661  0.6768E+02  0.2295E+03
     -0.637  0.1282E+03  0.2325E+03
     -0.613  0.1717E+03  0.2366E+03
     -0.590  0.1481E+03  0.2402E+03
     -0.566  0.9275E+02  0.2424E+03
     -0.542  0.1067E+03  0.2449E+03
     -0.518  0.1729E+03  0.2491E+03
     -0.494  0.2124E+03  0.2541E+03
     -0.470  0.2122E+03  0.2592E+03
     -0.446  0.1757E+03  0.2634E+03
     -0.422  0.1371E+03  0.2667E+03
     -0.398  0.1138E+03  0.2694E+03
     -0.375  0.7798E+02  0.2713E+03
     -0.351  0.4461E+02  0.2723E+03
     -0.327  0.7187E+02  0.2740E+03
     -0.303  0.1349E+03  0.2773E+03
     -0.279  0.1823E+03  0.2816E+03
     -0.255  0.2069E+03  0.2866E+03
     -0.231  0.2028E+03  0.2914E+03
     -0.207  0.1827E+03  0.2958E+03
     -0.183  0.1758E+03  0.3000E+03
     -0.160  0.1813E+03  0.3043E+03
     -0.136  0.1876E+03  0.3088E+03
     -0.112  0.2014E+03  0.3136E+03
     -0.088  0.2170E+03  0.3188E+03
     -0.064  0.2190E+03  0.3240E+03
     -0.040  0.1973E+03  0.3287E+03
     -0.016  0.1483E+03  0.3323E+03
      0.008  0.1215E+03  0.3352E+03
      0.031  0.1323E+03  0.3383E+03
      0.055  0.1437E+03  0.3417E+03
      0.079  0.1531E+03  0.3454E+03
      0.103  0.1814E+03  0.3497E+03
      0.127  0.2145E+03  0.3549E+03
      0.151  0.2265E+03  0.3603E+03
      0.175  0.2186E+03  0.3655E+03
      0.199  0.2164E+03  0.3707E+03
      0.223  0.2097E+03  0.3757E+03
      0.246  0.1798E+03  0.3800E+03
      0.270  0.1645E+03  0.3839E+03
      0.294  0.1794E+03  0.3882E+03
      0.318  0.1996E+03  0.3930E+03
      0.342  0.1934E+03  0.3976E+03
      0.366  0.1729E+03  0.4017E+03
      0.390  0.1493E+03  0.4053E+03
      0.414  0.1417E+03  0.4087E+03
      0.438  0.1476E+03  0.4122E+03
      0.461  0.1692E+03  0.4162E+03
      0.485  0.1918E+03  0.4208E+03
      0.509  0.1999E+03  0.4256E+03
      0.533  0.2018E+03  0.4304E+03
      0.557  0.1880E+03  0.4349E+03
      0.581  0.1846E+03  0.4393E+03
      0.605  0.2005E+03  0.4441E+03
      0.629  0.1987E+03  0.4488E+03
      0.653  0.1771E+03  0.4531E+03
      0.676  0.1702E+03  0.4571E+03
      0.700  0.1806E+03  0.4614E+03
      0.724  0.1792E+03  0.4657E+03
      0.748  0.1716E+03  0.4698E+03
      0.772  0.1768E+03  0.4740E+03
      0.796  0.1855E+03  0.4785E+03
      0.820  0.1978E+03  0.4832E+03
      0.844  0.2138E+03  0.4883E+03
      0.868  0.2193E+03  0.4935E+03
      0.891  0.2250E+03  0.4989E+03
      0.915  0.2236E+03  0.5043E+03
      0.939  0.2294E+03  0.5097E+03
      0.963  0.2306E+03  0.5153E+03
      0.987  0.2257E+03  0.5206E+03
      1.011  0.2295E+03  0.5261E+03
      1.035  0.2354E+03  0.5318E+03
      1.059  0.2364E+03  0.5374E+03
      1.083  0.2240E+03  0.5427E+03
      1.106  0.2131E+03  0.5478E+03
      1.130  0.2121E+03  0.5529E+03
      1.154  0.2006E+03  0.5577E+03
      1.178  0.1980E+03  0.5624E+03
      1.202  0.2131E+03  0.5675E+03
      1.226  0.2157E+03  0.5727E+03
      1.250  0.2148E+03  0.5778E+03
      1.274  0.2171E+03  0.5830E+03
      1.298  0.2175E+03  0.5882E+03
      1.321  0.2192E+03  0.5934E+03
      1.345  0.2048E+03  0.5983E+03
      1.369  0.1921E+03  0.6029E+03
      1.393  0.1862E+03  0.6073E+03
      1.417  0.1859E+03  0.6118E+03
      1.441  0.1819E+03  0.6161E+03
      1.465  0.1711E+03  0.6202E+03
      1.489  0.1728E+03  0.6243E+03
      1.512  0.1799E+03  0.6286E+03
      1.536  0.1850E+03  0.6331E+03
      1.560  0.1801E+03  0.6374E+03
      1.584  0.1682E+03  0.6414E+03
      1.608  0.1564E+03  0.6451E+03
      1.632  0.1467E+03  0.6486E+03
      1.656  0.1398E+03  0.6520E+03
      1.680  0.1395E+03  0.6553E+03
      1.704  0.1395E+03  0.6586E+03
      1.727  0.1398E+03  0.6620E+03
      1.751  0.1533E+03  0.6656E+03
      1.775  0.1538E+03  0.6693E+03
      1.799  0.1518E+03  0.6729E+03
      1.823  0.1623E+03  0.6768E+03
      1.847  0.1561E+03  0.6805E+03
      1.871  0.1521E+03  0.6842E+03
      1.895  0.1654E+03  0.6881E+03
      1.919  0.1634E+03  0.6920E+03
      1.942  0.1600E+03  0.6958E+03
      1.966  0.1706E+03  0.6999E+03
      1.990  0.1795E+03  0.7042E+03
      2.014  0.1710E+03  0.7083E+03
      2.038  0.1632E+03  0.7122E+03
      2.062  0.1655E+03  0.7161E+03
      2.086  0.1653E+03  0.7201E+03
      2.110  0.1677E+03  0.7241E+03
      2.134  0.1819E+03  0.7284E+03
      2.157  0.1850E+03  0.7329E+03
      2.181  0.1814E+03  0.7372E+03
      2.205  0.1708E+03  0.7413E+03
      2.229  0.1590E+03  0.7451E+03
      2.253  0.1550E+03  0.7488E+03
      2.277  0.1467E+03  0.7523E+03
      2.301  0.1450E+03  0.7557E+03
      2.325  0.1476E+03  0.7593E+03
      2.349  0.1323E+03  0.7624E+03
      2.372  0.1146E+03  0.7652E+03
      2.396  0.1200E+03  0.7680E+03
      2.420  0.1288E+03  0.7711E+03
      2.444  0.1330E+03  0.7743E+03
      2.468  0.1239E+03  0.7772E+03
      2.492  0.1142E+03  0.7800E+03
      2.516  0.1163E+03  0.7828E+03
      2.540  0.1148E+03  0.7855E+03
      2.564  0.1142E+03  0.7882E+03
      2.587  0.1038E+03  0.7907E+03
      2.611  0.8289E+02  0.7927E+03
      2.635  0.6590E+02  0.7943E+03
      2.659  0.4690E+02  0.7954E+03
      2.683  0.2347E+02  0.7959E+03
      2.707  0.1905E+02  0.7964E+03
      2.731  0.4123E+02  0.7974E+03
      2.755  0.6340E+02  0.7989E+03
      2.779  0.6849E+02  0.8005E+03
      2.802  0.4605E+02  0.8016E+03
      2.826  0.2387E+02  0.8022E+03
      2.850  0.3652E+02  0.8031E+03
      2.874  0.6342E+02  0.8046E+03
      2.898  0.7902E+02  0.8065E+03
      2.922  0.8557E+02  0.8085E+03
      2.946  0.9004E+02  0.8107E+03
      2.970  0.9792E+02  0.8130E+03
      2.994  0.1041E+03  0.8155E+03
      3.017  0.1109E+03  0.8181E+03
      3.041  0.1196E+03  0.8210E+03
      3.065  0.1337E+03  0.8242E+03
      3.089  0.1307E+03  0.8273E+03
      3.113  0.1205E+03  0.8302E+03
      3.137  0.1262E+03  0.8332E+03
      3.161  0.1270E+03  0.8362E+03
      3.185  0.1218E+03  0.8391E+03
      3.208  0.1076E+03  0.8417E+03
      3.232  0.9317E+02  0.8439E+03
      3.256  0.9206E+02  0.8461E+03
      3.280  0.9149E+02  0.8483E+03
      3.304  0.7962E+02  0.8502E+03
      3.328  0.7281E+02  0.8520E+03
      3.352  0.7699E+02  0.8538E+03
      3.376  0.9008E+02  0.8560E+03
      3.400  0.1051E+03  0.8585E+03
      3.423  0.1080E+03  0.8611E+03
      3.447  0.9287E+02  0.8633E+03
      3.471  0.6709E+02  0.8649E+03
      3.495  0.3583E+02  0.8657E+03
      3.519  0.1010E+02  0.8660E+03
      3.543  0.1145E+01  0.8660E+03
      3.567  0.4513E-01  0.8660E+03
      3.591  0.5727E-03  0.8660E+03
      3.615  0.2237E-05  0.8660E+03
      3.638  0.2615E-08  0.8660E+03
      3.662  0.9017E-12  0.8660E+03
      3.686  0.0000E+00  0.8660E+03
      3.710  0.0000E+00  0.8660E+03
      3.734  0.0000E+00  0.8660E+03
      3.758  0.0000E+00  0.8660E+03
      3.782  0.0000E+00  0.8660E+03
      3.806  0.0000E+00  0.8660E+03
