 running on   64 total cores
 distrk:  each k-point on   32 cores,    2 groups
 distr:  one band on   32 cores,    1 groups
 vasp.6.2.1 16May21 (build Nov 23 2021 15:40:41) complex                        
  
 POSCAR found type information on POSCAR Li
 POSCAR found :  1 types and     432 ions
 scaLAPACK will be used
 -----------------------------------------------------------------------------
|                                                                             |
|           W    W    AA    RRRRR   N    N  II  N    N   GGGG   !!!           |
|           W    W   A  A   R    R  NN   N  II  NN   N  G    G  !!!           |
|           W    W  A    A  R    R  N N  N  II  N N  N  G       !!!           |
|           W WW W  AAAAAA  RRRRR   N  N N  II  N  N N  G  GGG   !            |
|           WW  WW  A    A  R   R   N   NN  II  N   NN  G    G                |
|           W    W  A    A  R    R  N    N  II  N    N   GGGG   !!!           |
|                                                                             |
|     For optimal performance we recommend to set                             |
|       NCORE = 2 up to number-of-cores-per-socket                            |
|     NCORE specifies how many cores store one orbital (NPAR=cpu/NCORE).      |
|     This setting can greatly improve the performance of VASP for DFT.       |
|     The default, NCORE=1 might be grossly inefficient on modern             |
|     multi-core architectures or massively parallel machines. Do your        |
|     own testing! More info at https://www.vasp.at/wiki/index.php/NCORE      |
|     Unfortunately you need to use the default for GW and RPA                |
|     calculations (for HF NCORE is supported but not extensively tested      |
|     yet).                                                                   |
|                                                                             |
 -----------------------------------------------------------------------------

 -----------------------------------------------------------------------------
|                                                                             |
|               ----> ADVICE to this user running VASP <----                  |
|                                                                             |
|     You have a (more or less) 'large supercell' and for larger cells it     |
|     might be more efficient to use real-space projection operators.         |
|     Therefore, try LREAL= Auto in the INCAR file.                           |
|     Mind: If you want to do very accurate calculations, keep the            |
|     reciprocal projection scheme (i.e. LREAL=.FALSE.).                      |
|                                                                             |
 -----------------------------------------------------------------------------

 LDA part: xc-table for Pade appr. of Perdew
 POSCAR found type information on POSCAR Li
 POSCAR found :  1 types and     432 ions
 POSCAR, INCAR and KPOINTS ok, starting setup
 FFT: planning ...
 WAVECAR not read
 entering main loop
       N       E                     dE             d eps       ncg     rms          rms(c)
DAV:   1    -0.207474613382E+03   -0.20747E+03   -0.10651E+05  3464   0.661E+02
DAV:   2    -0.746681633012E+03   -0.53921E+03   -0.49235E+03  4004   0.690E+01
DAV:   3    -0.785002895358E+03   -0.38321E+02   -0.35043E+02  4416   0.146E+01
DAV:   4    -0.786276685696E+03   -0.12738E+01   -0.12564E+01  4008   0.292E+00
DAV:   5    -0.786306517494E+03   -0.29832E-01   -0.29792E-01  4152   0.470E-01    0.105E+01
DAV:   6    -0.780904834685E+03    0.54017E+01   -0.13244E+01  4056   0.566E+00    0.813E+00
DAV:   7    -0.772957775871E+03    0.79471E+01   -0.10075E+01  4112   0.488E+00    0.482E+00
DAV:   8    -0.770375881166E+03    0.25819E+01   -0.55758E+00  3968   0.251E+00    0.232E+00
DAV:   9    -0.770153988442E+03    0.22189E+00   -0.28583E+00  3832   0.138E+00    0.131E+00
DAV:  10    -0.770177644621E+03   -0.23656E-01   -0.49335E-01  4024   0.801E-01    0.108E+00
DAV:  11    -0.770062049138E+03    0.11560E+00   -0.17951E-01  3952   0.524E-01    0.565E-01
DAV:  12    -0.770050998335E+03    0.11051E-01   -0.62419E-02  3760   0.218E-01    0.257E-01
DAV:  13    -0.770052442808E+03   -0.14445E-02   -0.13638E-02  4160   0.147E-01    0.197E-01
DAV:  14    -0.770048773029E+03    0.36698E-02   -0.51415E-03  4000   0.981E-02    0.910E-02
DAV:  15    -0.770048419910E+03    0.35312E-03   -0.17600E-03  3888   0.446E-02    0.466E-02
DAV:  16    -0.770048357305E+03    0.62606E-04   -0.64611E-04  3864   0.249E-02    0.236E-02
DAV:  17    -0.770048318520E+03    0.38785E-04   -0.14943E-04  3912   0.149E-02    0.155E-02
DAV:  18    -0.770048288268E+03    0.30252E-04   -0.42335E-05  3816   0.719E-03    0.635E-03
DAV:  19    -0.770048282956E+03    0.53118E-05   -0.12924E-05  2096   0.393E-03
   1 F= -.77004828E+03 E0= -.77000547E+03  d E =-.856197E-01
