Li                                      
           1
    20.227200    0.000000    0.000000
     0.000000   20.227200    0.000000
     0.000000    0.000000   20.227200
   Li
   432
Direct configuration=     1
   0.99178133  0.00843229  0.98050722
   0.91422656  0.08073550  0.08492742
   0.83221114  0.18017544  0.16370719
   0.73778242  0.26399641  0.24057413
   0.65536424  0.34432042  0.35245366
   0.55350916  0.41674100  0.42723096
   0.48434398  0.49933896  0.49863837
   0.41255661  0.57239736  0.57728868
   0.35542770  0.65517959  0.69069940
   0.23740510  0.73687545  0.74679064
   0.16379628  0.83988070  0.82947746
   0.09120636  0.91281789  0.89120946
   0.06068489  0.88205508  0.09207591
   0.00575999  0.99393972  0.16030458
   0.90883650  0.08082556  0.26809395
   0.82472397  0.15832202  0.35278988
   0.74706563  0.26599573  0.39499887
   0.65333791  0.33771362  0.48836541
   0.56788654  0.43534771  0.59107967
   0.49612985  0.51072737  0.68677577
   0.42124172  0.56677580  0.77379770
   0.32818399  0.65531987  0.84400681
   0.25094861  0.73438595  0.90917119
   0.15968600  0.82875102  0.99282327
   0.18054016  0.82937890  0.15747549
   0.09580677  0.90701573  0.23217381
   0.00313038  0.00191344  0.33094754
   0.90537341  0.08238450  0.43114862
   0.82266489  0.17466529  0.49891876
   0.76195064  0.27069119  0.58270695
   0.64646097  0.31946647  0.67197831
   0.59566600  0.44230992  0.74979547
   0.52561439  0.49938775  0.85929899
   0.41029493  0.56797535  0.93384962
   0.34997401  0.68839040  0.98607149
   0.26086420  0.76485709  0.05610524
   0.23459083  0.75060025  0.22603815
   0.17809824  0.82800592  0.33118770
   0.09107563  0.91162466  0.39482908
   0.02150612  0.99191279  0.47687954
   0.95210047  0.08349354  0.56486357
   0.87276648  0.13701556  0.65666989
   0.75741331  0.24103212  0.73238996
   0.69810607  0.31031354  0.81458058
   0.59928272  0.39468133  0.90936582
   0.53044883  0.49731799  0.99968566
   0.40559801  0.58023311  0.05901507
   0.33909632  0.66388271  0.15740085
   0.32370929  0.70112978  0.30819969
   0.22541580  0.76082132  0.43855252
   0.16813165  0.83875768  0.50411974
   0.08610579  0.92108336  0.57194658
   0.01620452  0.01387566  0.66069293
   0.93346811  0.07108545  0.75607481
   0.83299218  0.15028800  0.81499298
   0.76400123  0.24333063  0.91079134
   0.68509411  0.32377836  0.98964405
   0.61081469  0.40306751  0.07181646
   0.47933234  0.48489860  0.14803840
   0.40413579  0.59171027  0.23655079
   0.40939975  0.60020703  0.42585012
   0.35393976  0.70281134  0.51976157
   0.23703396  0.77451325  0.60855884
   0.15497610  0.84286303  0.68827039
   0.08017476  0.94006424  0.77537470
   0.99867151  0.99760602  0.82954349
   0.90614610  0.09104179  0.93932046
   0.82192504  0.17096678  0.01805422
   0.76173012  0.25332130  0.10575145
   0.68035448  0.33884560  0.18396509
   0.57288032  0.42759143  0.24663291
   0.49752890  0.51881228  0.30640552
   0.08126718  0.09424061  0.91086909
   0.98835383  0.17681106  0.01612492
   0.91954153  0.27713419  0.09861424
   0.83338984  0.35686695  0.19587422
   0.74753354  0.43291434  0.27894361
   0.66124238  0.49701004  0.34310067
   0.53917728  0.60221981  0.43353678
   0.47913635  0.67941444  0.50795020
   0.42329522  0.77579259  0.60321079
   0.31965190  0.81875782  0.69020860
   0.26533936  0.93200014  0.79349654
   0.19306923  0.01914378  0.85230515
   0.16591869  0.98820088  0.99845416
   0.05412666  0.06130708  0.06042129
   0.99807574  0.15210801  0.14444224
   0.90664308  0.24922635  0.25275825
   0.82901955  0.33603960  0.35640387
   0.73133473  0.41387491  0.42850216
   0.64152191  0.49454263  0.49706743
   0.57591105  0.60065375  0.57750307
   0.49273844  0.67474538  0.68700670
   0.42451445  0.75008012  0.77471199
   0.31495009  0.83025149  0.83745175
   0.25649957  0.90305803  0.91992908
   0.25773597  0.89096031  0.08213838
   0.17724677  0.98491451  0.15661951
   0.07874718  0.06742947  0.25607133
   0.99324528  0.16331455  0.33917698
   0.91143313  0.25589655  0.41397213
   0.82696104  0.32942782  0.50249839
   0.71632539  0.42058059  0.59999826
   0.66596500  0.54335669  0.66582757
   0.59551096  0.61890952  0.78039943
   0.49826377  0.64513844  0.86416779
   0.39701862  0.76740791  0.90354696
   0.30988183  0.84790696  0.99322684
   0.31694962  0.82975095  0.18076875
   0.24754157  0.92051083  0.23103453
   0.18263952  0.98929121  0.33514026
   0.09180743  0.07673567  0.40590544
   0.00660925  0.15023153  0.50976274
   0.92507962  0.26688566  0.58057593
   0.86174906  0.34838446  0.64572193
   0.72709863  0.41162192  0.71255458
   0.68143976  0.48550919  0.83999249
   0.57581382  0.58540517  0.93213142
   0.48821054  0.67352976  0.97724487
   0.43663542  0.77100544  0.06228467
   0.42315190  0.75571403  0.24015998
   0.32411560  0.82755428  0.33125118
   0.23984448  0.92080548  0.41766289
   0.13728878  0.99326114  0.51827979
   0.08206909  0.09622266  0.59680512
   0.98482728  0.16333035  0.69947813
   0.91377164  0.25426289  0.74424484
   0.83404500  0.34660340  0.82706519
   0.73982052  0.40685905  0.94369631
   0.66228310  0.49909933  0.03778139
   0.55408347  0.59353077  0.09337000
   0.49411573  0.65334489  0.16597004
   0.48167714  0.66419910  0.33589043
   0.41898227  0.76433613  0.40677436
   0.32297380  0.85609571  0.48433561
   0.24777318  0.91549956  0.59890323
   0.14920374  0.00029694  0.67288493
   0.08074221  0.06940642  0.78586634
   0.99205989  0.14033184  0.85374477
   0.88945581  0.26552467  0.89939152
   0.81784733  0.35268795  0.01515241
   0.73429187  0.42636633  0.09813848
   0.64700876  0.52397904  0.19072581
   0.57219164  0.60147899  0.25088659
   0.18969623  0.16046701  0.86104632
   0.08222627  0.25916969  0.93086175
   0.00577560  0.32093708  0.01416996
   0.93361011  0.40857392  0.08709058
   0.82756479  0.51026060  0.15495751
   0.74721238  0.57336935  0.26264201
   0.64429082  0.65516266  0.33873424
   0.57518141  0.74686785  0.41637700
   0.50873323  0.84067841  0.48009516
   0.42930357  0.91926670  0.58716419
   0.31046146  0.01682877  0.67540170
   0.24694320  0.09321375  0.73876537
   0.24745784  0.07874229  0.94529494
   0.16157035  0.17524381  0.99760129
   0.09367887  0.23312487  0.09375781
   0.00391583  0.30635116  0.17997587
   0.92174404  0.44651556  0.25975713
   0.84977549  0.51793203  0.34326845
   0.76037006  0.59973535  0.41634442
   0.66626375  0.67621573  0.47832839
   0.57648140  0.74249993  0.59127623
   0.50758269  0.82698580  0.67748445
   0.41231630  0.90804552  0.72317726
   0.32594717  0.02012627  0.84928524
   0.33507329  0.00733489  0.01821993
   0.23153728  0.09102965  0.08310094
   0.15334790  0.13060426  0.16880107
   0.08752627  0.21992331  0.25807550
   0.96957310  0.33763562  0.34366506
   0.88843218  0.40794489  0.42343225
   0.83301318  0.50238034  0.52149736
   0.75568939  0.58163440  0.56217431
   0.67216424  0.66823649  0.64195980
   0.57652358  0.72422192  0.76857062
   0.52193555  0.83299933  0.83366245
   0.41639502  0.92914802  0.92388208
   0.42771619  0.90264338  0.09993562
   0.33162621  0.99173486  0.13088528
   0.26126193  0.07335046  0.23500070
   0.17331658  0.14700442  0.32930323
   0.07449530  0.25823632  0.41007219
   0.01501966  0.34934945  0.50952144
   0.90379638  0.42443868  0.58777166
   0.84692773  0.50397207  0.67611102
   0.77829699  0.57621925  0.74349715
   0.68175850  0.65239890  0.85369505
   0.58964753  0.75671460  0.91601584
   0.52035250  0.84085010  0.02807788
   0.49609548  0.83158540  0.16699243
   0.42147306  0.89753502  0.24663789
   0.32554129  0.99021420  0.31400494
   0.26202718  0.08024119  0.43035947
   0.14249145  0.16993907  0.48189962
   0.10935123  0.24492051  0.58158283
   0.02609901  0.34332345  0.67057877
   0.92991076  0.42482480  0.74822833
   0.81895957  0.49932676  0.84993804
   0.74734721  0.57403100  0.94133306
   0.65676511  0.67846563  0.01172079
   0.57853798  0.75853293  0.10718962
   0.57358011  0.76508418  0.26467313
   0.50346719  0.83876631  0.35310960
   0.39974597  0.91021119  0.39474450
   0.32775696  0.97936917  0.49102012
   0.24307183  0.09666894  0.56663258
   0.15865510  0.16884680  0.68753862
   0.08151266  0.23024316  0.78494035
   0.99084862  0.32074537  0.83527196
   0.93410677  0.41685736  0.92160665
   0.82757114  0.47527661  0.01331212
   0.73176907  0.59373080  0.05541656
   0.65838799  0.63821371  0.16693614
   0.27412851  0.24398918  0.74456338
   0.17066990  0.31538514  0.82753007
   0.06475035  0.40752039  0.87908269
   0.00123740  0.48454450  0.99935266
   0.93459591  0.55599190  0.08467649
   0.86729174  0.62902665  0.16457931
   0.75553424  0.73580154  0.24017377
   0.66879628  0.84252544  0.32978999
   0.57018239  0.93832126  0.39608867
   0.49084229  0.98741800  0.46348024
   0.41847974  0.06084550  0.56635327
   0.36300440  0.15168853  0.67293356
   0.35078728  0.14152083  0.85035201
   0.28135265  0.25671033  0.90311997
   0.17380063  0.32466155  0.98016479
   0.07390244  0.40893480  0.09879235
   0.01519129  0.47473795  0.18048317
   0.94225617  0.54403454  0.24771648
   0.83458591  0.65633131  0.32343733
   0.76415733  0.75273047  0.41022403
   0.64759994  0.83458577  0.51392823
   0.59029722  0.90421927  0.59285322
   0.49240349  0.98370883  0.65516377
   0.42811790  0.06789854  0.76429155
   0.44869298  0.08715701  0.93743604
   0.33900219  0.16321812  0.98716165
   0.23958093  0.21915648  0.06774809
   0.18070056  0.32114881  0.16224111
   0.09971121  0.40896193  0.25734743
   0.02630461  0.52281387  0.34280718
   0.92692082  0.58830625  0.41951642
   0.84870476  0.65486896  0.50531613
   0.73324739  0.74593890  0.57609150
   0.65636150  0.83909486  0.67445894
   0.58815767  0.92721655  0.76568364
   0.50819692  0.96373829  0.83594918
   0.49534644  0.01329067  0.00137502
   0.42177428  0.10894851  0.07459306
   0.35399709  0.16412424  0.16131653
   0.24760344  0.24818639  0.22410023
   0.18405615  0.30718689  0.33881322
   0.10379042  0.40801104  0.40917453
   0.02146049  0.48373387  0.48806366
   0.93642136  0.58865010  0.58536909
   0.83201216  0.66530714  0.62245238
   0.73067217  0.72616438  0.73618532
   0.69960920  0.83206348  0.82470114
   0.61654346  0.91332965  0.92262317
   0.57249756  0.92252410  0.10723437
   0.49127768  0.00130211  0.17778616
   0.39453471  0.06430362  0.24588653
   0.32337334  0.16400598  0.33118837
   0.25582065  0.23381271  0.44509763
   0.17383640  0.31513320  0.50952193
   0.10523394  0.42621155  0.57964265
   0.99390835  0.50504217  0.64763889
   0.91459200  0.59834626  0.75069222
   0.81384697  0.66648175  0.84487958
   0.74303735  0.75396756  0.97041816
   0.67345096  0.83014431  0.02192809
   0.68287997  0.81673888  0.16877023
   0.57932871  0.89466502  0.23622693
   0.47819240  0.00056448  0.30369307
   0.39713915  0.05703707  0.38611720
   0.36041095  0.17804947  0.49850066
   0.25764743  0.23959393  0.59671277
   0.16180937  0.33843457  0.68472994
   0.06676213  0.41943204  0.74135335
   0.00040278  0.49466621  0.83010709
   0.92157870  0.58107936  0.91569278
   0.82831789  0.66588757  0.99775305
   0.74018405  0.74203750  0.09586993
   0.35245881  0.35992067  0.69052489
   0.25797379  0.40455697  0.75897599
   0.16633724  0.48931291  0.82666461
   0.06501573  0.58137430  0.90827375
   0.00473300  0.65856741  0.98376338
   0.93121240  0.76060834  0.05752100
   0.85721792  0.82348149  0.17271912
   0.74708612  0.92063028  0.23375416
   0.64701989  0.01904876  0.32258279
   0.57529406  0.07487548  0.39728375
   0.47109522  0.15304015  0.46646738
   0.43454427  0.22913886  0.58969584
   0.43681397  0.25465779  0.75832215
   0.34548201  0.32707946  0.83135624
   0.24855802  0.38904046  0.90317472
   0.13899674  0.47407851  0.97668025
   0.09336692  0.57025189  0.07627224
   0.01267330  0.65141496  0.16896912
   0.90510383  0.73341982  0.25040008
   0.82026415  0.86469183  0.32566118
   0.73989899  0.92764331  0.42440692
   0.66208662  0.00587023  0.50910076
   0.56832906  0.09639098  0.55384910
   0.48314360  0.15546264  0.66990851
   0.50621802  0.15779123  0.82393050
   0.44541626  0.26461678  0.92584322
   0.34989589  0.32440077  0.98619059
   0.26113550  0.41870036  0.06262232
   0.20934596  0.52029449  0.15301480
   0.08836915  0.58367108  0.24698545
   0.01875388  0.68339110  0.33078447
   0.90916545  0.76468091  0.40118847
   0.83014567  0.84038747  0.51307466
   0.72899332  0.92831640  0.57854746
   0.66921378  0.00382958  0.65547679
   0.57708113  0.08055169  0.75040181
   0.60247523  0.08979289  0.90244353
   0.51537699  0.18597973  0.99871763
   0.41423718  0.27928792  0.08686536
   0.34192720  0.35386442  0.15367303
   0.23806483  0.43063288  0.26172914
   0.18018495  0.51993603  0.34956144
   0.10706643  0.62323423  0.41723665
   0.99565014  0.67966504  0.49303969
   0.91389317  0.76608354  0.54981489
   0.81455695  0.82351442  0.65473629
   0.75997649  0.90787311  0.74744420
   0.67928860  0.00772318  0.83610041
   0.67601047  0.97510414  0.00891397
   0.59598926  0.06561628  0.06264311
   0.50463505  0.17942001  0.15905716
   0.39824045  0.24574854  0.24241350
   0.31361878  0.32583328  0.33167303
   0.26194966  0.42224816  0.41741157
   0.17726282  0.49770516  0.49196709
   0.09847362  0.56974157  0.56490070
   0.00280763  0.66198087  0.62257183
   0.89222084  0.73504959  0.72331132
   0.79224051  0.81630791  0.84157927
   0.76035824  0.90611505  0.92063628
   0.73206872  0.90054409  0.10159147
   0.64461061  0.01754498  0.16422960
   0.56676408  0.10294664  0.25438396
   0.47946316  0.17850314  0.31346478
   0.42517762  0.26637730  0.41205190
   0.34379187  0.34165178  0.50985373
   0.24494911  0.41338311  0.57437062
   0.19298124  0.49867453  0.66972154
   0.05237973  0.56063410  0.73187484
   0.00016490  0.66940702  0.83499171
   0.90758392  0.76345167  0.91958003
   0.81639161  0.84230248  0.00698684
   0.40491839  0.41677402  0.58350905
   0.33656648  0.50087716  0.68292937
   0.26619672  0.58276603  0.77363396
   0.16073463  0.64244027  0.82177070
   0.09238377  0.75765335  0.88604203
   0.99462772  0.82969482  0.97374693
   0.94808134  0.90396216  0.07800306
   0.83695226  0.98021284  0.15556431
   0.74583910  0.10739323  0.25122166
   0.66334688  0.19772272  0.34660737
   0.54900642  0.25384630  0.41238108
   0.50466244  0.34205310  0.52634937
   0.50449045  0.35943080  0.67499373
   0.43866777  0.41833022  0.78121512
   0.32078627  0.50268284  0.86238787
   0.24681766  0.59768226  0.92089960
   0.15365850  0.66123228  0.00570498
   0.06307602  0.75451683  0.07052458
   0.99629132  0.81733523  0.18123174
   0.93329807  0.91212654  0.23718111
   0.82306614  0.99578438  0.33608145
   0.74669359  0.09564099  0.41573183
   0.66055761  0.18606175  0.49704537
   0.55622714  0.25394895  0.58558940
   0.55684967  0.26344060  0.75456122
   0.50295485  0.34904687  0.82186006
   0.42983692  0.41491238  0.94927169
   0.32045370  0.48283041  0.97351586
   0.27083637  0.57648062  0.02160369
   0.17619642  0.66091261  0.14365696
   0.09794270  0.74751821  0.25643835
   0.00913363  0.82603981  0.33952777
   0.92103349  0.90641293  0.43606583
   0.82246907  0.02649210  0.49166610
   0.73343543  0.09766672  0.57242340
   0.66603028  0.16025219  0.67296779
   0.67399459  0.17071592  0.83800766
   0.59718489  0.23704756  0.90034906
   0.50984261  0.35336272  0.98328919
   0.41844106  0.42945642  0.05572248
   0.34226285  0.48366429  0.14515689
   0.25045931  0.57357921  0.24525531
   0.17423811  0.68098220  0.32426334
   0.10077829  0.75168630  0.42705880
   0.02457499  0.86496150  0.49781421
   0.89048582  0.93829305  0.59550197
   0.83650601  0.99808492  0.64208559
   0.76004399  0.08748143  0.74310924
   0.75153906  0.07945454  0.92082516
   0.67426937  0.16033668  0.00623975
   0.60179413  0.25665726  0.08396087
   0.49260355  0.35638533  0.16681104
   0.39387919  0.42696401  0.23934850
   0.33027326  0.51384541  0.34499286
   0.26950980  0.60595673  0.41329663
   0.19363089  0.66447532  0.51105529
   0.10440929  0.75385119  0.58531508
   0.98018950  0.84924396  0.65844327
   0.89660927  0.92224733  0.73839762
   0.84319480  0.01461847  0.85581507
   0.81767269  0.98423984  0.99622909
   0.76406551  0.07809532  0.10066027
   0.65640094  0.16344286  0.16747245
   0.57781419  0.26437974  0.25409091
   0.48678577  0.35529932  0.32578849
   0.40026895  0.42130470  0.40967966
   0.30414517  0.48633946  0.50640640
   0.27229296  0.58339865  0.57545230
   0.17649209  0.64953337  0.67304926
   0.06530159  0.72953639  0.73419487
   0.98165873  0.81744762  0.82203316
   0.91702508  0.89254411  0.90226215
