 432 432   0   0
  0.2035379E+02  0.2064000E-08  0.2064000E-08  0.2064000E-08  0.5000000E-15
  1.000000000000000E-004
  CAR 
 Li                                      
      3.56768559     -3.44371057  301      0.39417493      1.00000000
     -3.444  0.0000E+00  0.0000E+00
     -3.420  0.0000E+00  0.0000E+00
     -3.397  0.0000E+00  0.0000E+00
     -3.374  0.0000E+00  0.0000E+00
     -3.350  0.0000E+00  0.0000E+00
     -3.327  0.0000E+00  0.0000E+00
     -3.303  0.0000E+00  0.0000E+00
     -3.280  0.1110E-10  0.2594E-12
     -3.257  0.2235E-07  0.5225E-09
     -3.233  0.1373E-04  0.3214E-06
     -3.210  0.2598E-02  0.6105E-04
     -3.187  0.1535E+00  0.3649E-02
     -3.163  0.2883E+01  0.7103E-01
     -3.140  0.1757E+02  0.4817E+00
     -3.117  0.3542E+02  0.1310E+01
     -3.093  0.2383E+02  0.1866E+01
     -3.070  0.5459E+01  0.1994E+01
     -3.046  0.3415E+01  0.2074E+01
     -3.023  0.2389E+02  0.2632E+01
     -3.000  0.7345E+02  0.4349E+01
     -2.976  0.9416E+02  0.6549E+01
     -2.953  0.5054E+02  0.7730E+01
     -2.930  0.1123E+02  0.7993E+01
     -2.906  0.8327E+01  0.8188E+01
     -2.883  0.3963E+02  0.9114E+01
     -2.859  0.8687E+02  0.1114E+02
     -2.836  0.8318E+02  0.1309E+02
     -2.813  0.3357E+02  0.1387E+02
     -2.789  0.7198E+01  0.1404E+02
     -2.766  0.2005E+02  0.1451E+02
     -2.743  0.7909E+02  0.1636E+02
     -2.719  0.1300E+03  0.1940E+02
     -2.696  0.8668E+02  0.2142E+02
     -2.672  0.2337E+02  0.2197E+02
     -2.649  0.1393E+02  0.2229E+02
     -2.626  0.6139E+02  0.2373E+02
     -2.602  0.1393E+03  0.2698E+02
     -2.579  0.1622E+03  0.3078E+02
     -2.556  0.1026E+03  0.3317E+02
     -2.532  0.3202E+02  0.3392E+02
     -2.509  0.1310E+02  0.3423E+02
     -2.485  0.4349E+02  0.3525E+02
     -2.462  0.8657E+02  0.3727E+02
     -2.439  0.7886E+02  0.3911E+02
     -2.415  0.3296E+02  0.3988E+02
     -2.392  0.1483E+02  0.4023E+02
     -2.369  0.5044E+02  0.4141E+02
     -2.345  0.1255E+03  0.4434E+02
     -2.322  0.1657E+03  0.4822E+02
     -2.299  0.1171E+03  0.5095E+02
     -2.275  0.4287E+02  0.5195E+02
     -2.252  0.3621E+02  0.5280E+02
     -2.228  0.1087E+03  0.5534E+02
     -2.205  0.1943E+03  0.5988E+02
     -2.182  0.2149E+03  0.6491E+02
     -2.158  0.1504E+03  0.6842E+02
     -2.135  0.5763E+02  0.6977E+02
     -2.112  0.1827E+02  0.7019E+02
     -2.088  0.4381E+02  0.7122E+02
     -2.065  0.8754E+02  0.7326E+02
     -2.041  0.7811E+02  0.7509E+02
     -2.018  0.3403E+02  0.7588E+02
     -1.995  0.2233E+02  0.7641E+02
     -1.971  0.7596E+02  0.7818E+02
     -1.948  0.1609E+03  0.8194E+02
     -1.925  0.1811E+03  0.8617E+02
     -1.901  0.1180E+03  0.8893E+02
     -1.878  0.4518E+02  0.8999E+02
     -1.854  0.4242E+02  0.9098E+02
     -1.831  0.1166E+03  0.9370E+02
     -1.808  0.1969E+03  0.9830E+02
     -1.784  0.2080E+03  0.1032E+03
     -1.761  0.1433E+03  0.1065E+03
     -1.738  0.5749E+02  0.1079E+03
     -1.714  0.3841E+02  0.1088E+03
     -1.691  0.9788E+02  0.1110E+03
     -1.667  0.1550E+03  0.1147E+03
     -1.644  0.1390E+03  0.1179E+03
     -1.621  0.7448E+02  0.1197E+03
     -1.597  0.4746E+02  0.1208E+03
     -1.574  0.1063E+03  0.1232E+03
     -1.551  0.1982E+03  0.1279E+03
     -1.527  0.2249E+03  0.1331E+03
     -1.504  0.1486E+03  0.1366E+03
     -1.481  0.5738E+02  0.1380E+03
     -1.457  0.5529E+02  0.1392E+03
     -1.434  0.1454E+03  0.1426E+03
     -1.410  0.2198E+03  0.1478E+03
     -1.387  0.2029E+03  0.1525E+03
     -1.364  0.1141E+03  0.1552E+03
     -1.340  0.3894E+02  0.1561E+03
     -1.317  0.4659E+02  0.1572E+03
     -1.294  0.1121E+03  0.1598E+03
     -1.270  0.1491E+03  0.1633E+03
     -1.247  0.1218E+03  0.1661E+03
     -1.223  0.6353E+02  0.1676E+03
     -1.200  0.3114E+02  0.1683E+03
     -1.177  0.7263E+02  0.1700E+03
     -1.153  0.1484E+03  0.1735E+03
     -1.130  0.1589E+03  0.1772E+03
     -1.107  0.1018E+03  0.1796E+03
     -1.083  0.8715E+02  0.1816E+03
     -1.060  0.1632E+03  0.1855E+03
     -1.036  0.2474E+03  0.1912E+03
     -1.013  0.2829E+03  0.1978E+03
     -0.990  0.2590E+03  0.2039E+03
     -0.966  0.1779E+03  0.2081E+03
     -0.943  0.1033E+03  0.2105E+03
     -0.920  0.1250E+03  0.2134E+03
     -0.896  0.1909E+03  0.2179E+03
     -0.873  0.2013E+03  0.2226E+03
     -0.849  0.1473E+03  0.2260E+03
     -0.826  0.7300E+02  0.2277E+03
     -0.803  0.5368E+02  0.2290E+03
     -0.779  0.1196E+03  0.2318E+03
     -0.756  0.1882E+03  0.2362E+03
     -0.733  0.1631E+03  0.2400E+03
     -0.709  0.7982E+02  0.2418E+03
     -0.686  0.6783E+02  0.2434E+03
     -0.663  0.1516E+03  0.2470E+03
     -0.639  0.2348E+03  0.2524E+03
     -0.616  0.2498E+03  0.2583E+03
     -0.592  0.2040E+03  0.2631E+03
     -0.569  0.1408E+03  0.2663E+03
     -0.546  0.1033E+03  0.2688E+03
     -0.522  0.8514E+02  0.2707E+03
     -0.499  0.4573E+02  0.2718E+03
     -0.476  0.3117E+02  0.2725E+03
     -0.452  0.9168E+02  0.2747E+03
     -0.429  0.1850E+03  0.2790E+03
     -0.405  0.2374E+03  0.2846E+03
     -0.382  0.2409E+03  0.2902E+03
     -0.359  0.2006E+03  0.2949E+03
     -0.335  0.1599E+03  0.2986E+03
     -0.312  0.1555E+03  0.3023E+03
     -0.289  0.1742E+03  0.3063E+03
     -0.265  0.2101E+03  0.3112E+03
     -0.242  0.2412E+03  0.3169E+03
     -0.218  0.2517E+03  0.3228E+03
     -0.195  0.2258E+03  0.3280E+03
     -0.172  0.1503E+03  0.3315E+03
     -0.148  0.1052E+03  0.3340E+03
     -0.125  0.1199E+03  0.3368E+03
     -0.102  0.1355E+03  0.3400E+03
     -0.078  0.1381E+03  0.3432E+03
     -0.055  0.1544E+03  0.3468E+03
     -0.031  0.2013E+03  0.3515E+03
     -0.008  0.2516E+03  0.3574E+03
      0.015  0.2760E+03  0.3638E+03
      0.039  0.2609E+03  0.3699E+03
      0.062  0.2235E+03  0.3752E+03
      0.085  0.1651E+03  0.3790E+03
      0.109  0.1376E+03  0.3822E+03
      0.132  0.1676E+03  0.3862E+03
      0.155  0.1952E+03  0.3907E+03
      0.179  0.1957E+03  0.3953E+03
      0.202  0.1782E+03  0.3995E+03
      0.226  0.1489E+03  0.4029E+03
      0.249  0.1333E+03  0.4061E+03
      0.272  0.1441E+03  0.4094E+03
      0.296  0.1750E+03  0.4135E+03
      0.319  0.2018E+03  0.4182E+03
      0.342  0.1931E+03  0.4227E+03
      0.366  0.1762E+03  0.4269E+03
      0.389  0.1797E+03  0.4311E+03
      0.413  0.1944E+03  0.4356E+03
      0.436  0.2055E+03  0.4404E+03
      0.459  0.2168E+03  0.4455E+03
      0.483  0.2232E+03  0.4507E+03
      0.506  0.2070E+03  0.4555E+03
      0.529  0.1841E+03  0.4598E+03
      0.553  0.1708E+03  0.4638E+03
      0.576  0.1770E+03  0.4680E+03
      0.600  0.1913E+03  0.4724E+03
      0.623  0.2010E+03  0.4771E+03
      0.646  0.2206E+03  0.4823E+03
      0.670  0.2314E+03  0.4877E+03
      0.693  0.2299E+03  0.4931E+03
      0.716  0.2385E+03  0.4986E+03
      0.740  0.2549E+03  0.5046E+03
      0.763  0.2627E+03  0.5107E+03
      0.786  0.2614E+03  0.5168E+03
      0.810  0.2516E+03  0.5227E+03
      0.833  0.2393E+03  0.5283E+03
      0.857  0.2365E+03  0.5338E+03
      0.880  0.2386E+03  0.5394E+03
      0.903  0.2342E+03  0.5449E+03
      0.927  0.2306E+03  0.5503E+03
      0.950  0.2259E+03  0.5556E+03
      0.973  0.2186E+03  0.5607E+03
      0.997  0.2125E+03  0.5656E+03
      1.020  0.2152E+03  0.5707E+03
      1.044  0.2282E+03  0.5760E+03
      1.067  0.2335E+03  0.5815E+03
      1.090  0.2315E+03  0.5869E+03
      1.114  0.2293E+03  0.5922E+03
      1.137  0.2229E+03  0.5974E+03
      1.160  0.2193E+03  0.6026E+03
      1.184  0.2152E+03  0.6076E+03
      1.207  0.1970E+03  0.6122E+03
      1.231  0.1799E+03  0.6164E+03
      1.254  0.1763E+03  0.6205E+03
      1.277  0.1814E+03  0.6248E+03
      1.301  0.1881E+03  0.6292E+03
      1.324  0.1929E+03  0.6337E+03
      1.347  0.1893E+03  0.6381E+03
      1.371  0.1824E+03  0.6424E+03
      1.394  0.1659E+03  0.6462E+03
      1.418  0.1373E+03  0.6494E+03
      1.441  0.1119E+03  0.6521E+03
      1.464  0.1133E+03  0.6547E+03
      1.488  0.1385E+03  0.6579E+03
      1.511  0.1513E+03  0.6615E+03
      1.534  0.1530E+03  0.6651E+03
      1.558  0.1613E+03  0.6688E+03
      1.581  0.1690E+03  0.6728E+03
      1.604  0.1765E+03  0.6769E+03
      1.628  0.1817E+03  0.6811E+03
      1.651  0.1771E+03  0.6853E+03
      1.675  0.1718E+03  0.6893E+03
      1.698  0.1689E+03  0.6932E+03
      1.721  0.1684E+03  0.6972E+03
      1.745  0.1652E+03  0.7010E+03
      1.768  0.1679E+03  0.7050E+03
      1.791  0.1831E+03  0.7092E+03
      1.815  0.1901E+03  0.7137E+03
      1.838  0.1782E+03  0.7179E+03
      1.862  0.1683E+03  0.7218E+03
      1.885  0.1754E+03  0.7259E+03
      1.908  0.1787E+03  0.7301E+03
      1.932  0.1815E+03  0.7343E+03
      1.955  0.1906E+03  0.7388E+03
      1.978  0.1810E+03  0.7430E+03
      2.002  0.1648E+03  0.7468E+03
      2.025  0.1627E+03  0.7506E+03
      2.049  0.1544E+03  0.7543E+03
      2.072  0.1403E+03  0.7575E+03
      2.095  0.1368E+03  0.7607E+03
      2.119  0.1359E+03  0.7639E+03
      2.142  0.1459E+03  0.7673E+03
      2.165  0.1471E+03  0.7708E+03
      2.189  0.1408E+03  0.7740E+03
      2.212  0.1395E+03  0.7773E+03
      2.236  0.1301E+03  0.7803E+03
      2.259  0.1036E+03  0.7828E+03
      2.282  0.9199E+02  0.7849E+03
      2.306  0.9899E+02  0.7872E+03
      2.329  0.1007E+03  0.7896E+03
      2.352  0.9593E+02  0.7918E+03
      2.376  0.8779E+02  0.7939E+03
      2.399  0.6196E+02  0.7953E+03
      2.422  0.2427E+02  0.7959E+03
      2.446  0.7351E+01  0.7961E+03
      2.469  0.2190E+02  0.7966E+03
      2.493  0.6308E+02  0.7981E+03
      2.516  0.8463E+02  0.8000E+03
      2.539  0.5914E+02  0.8014E+03
      2.563  0.2204E+02  0.8019E+03
      2.586  0.1014E+02  0.8022E+03
      2.609  0.3062E+02  0.8029E+03
      2.633  0.6018E+02  0.8043E+03
      2.656  0.7683E+02  0.8061E+03
      2.680  0.8444E+02  0.8081E+03
      2.703  0.8236E+02  0.8100E+03
      2.726  0.8738E+02  0.8120E+03
      2.750  0.1078E+03  0.8145E+03
      2.773  0.1214E+03  0.8174E+03
      2.796  0.1242E+03  0.8203E+03
      2.820  0.1311E+03  0.8233E+03
      2.843  0.1294E+03  0.8264E+03
      2.867  0.1269E+03  0.8293E+03
      2.890  0.1277E+03  0.8323E+03
      2.913  0.1265E+03  0.8353E+03
      2.937  0.1234E+03  0.8382E+03
      2.960  0.1128E+03  0.8408E+03
      2.983  0.1019E+03  0.8432E+03
      3.007  0.8557E+02  0.8452E+03
      3.030  0.6493E+02  0.8467E+03
      3.054  0.4854E+02  0.8478E+03
      3.077  0.4477E+02  0.8489E+03
      3.100  0.5788E+02  0.8502E+03
      3.124  0.7358E+02  0.8520E+03
      3.147  0.8914E+02  0.8540E+03
      3.170  0.1092E+03  0.8566E+03
      3.194  0.1216E+03  0.8594E+03
      3.217  0.1151E+03  0.8621E+03
      3.240  0.9434E+02  0.8643E+03
      3.264  0.5464E+02  0.8656E+03
      3.287  0.1534E+02  0.8660E+03
      3.311  0.1699E+01  0.8660E+03
      3.334  0.6832E-01  0.8660E+03
      3.357  0.9501E-03  0.8660E+03
      3.381  0.4400E-05  0.8660E+03
      3.404  0.6577E-08  0.8660E+03
      3.427  0.3102E-11  0.8660E+03
      3.451  0.0000E+00  0.8660E+03
      3.474  0.0000E+00  0.8660E+03
      3.498  0.0000E+00  0.8660E+03
      3.521  0.0000E+00  0.8660E+03
      3.544  0.0000E+00  0.8660E+03
      3.568  0.0000E+00  0.8660E+03
