       N       E                     dE             d eps       ncg     rms          rms(c)
DAV:   1    -0.241567137029E+03   -0.24157E+03   -0.10478E+05  3464   0.656E+02
DAV:   2    -0.760200770718E+03   -0.51863E+03   -0.47339E+03  4012   0.673E+01
DAV:   3    -0.797096606859E+03   -0.36896E+02   -0.33750E+02  4400   0.142E+01
DAV:   4    -0.798316008756E+03   -0.12194E+01   -0.12030E+01  3984   0.285E+00
DAV:   5    -0.798343949985E+03   -0.27941E-01   -0.27909E-01  4136   0.457E-01    0.908E+00
DAV:   6    -0.795307770975E+03    0.30362E+01   -0.10134E+01  4008   0.487E+00    0.741E+00
DAV:   7    -0.787827331600E+03    0.74804E+01   -0.97740E+00  4056   0.455E+00    0.409E+00
DAV:   8    -0.786097284608E+03    0.17300E+01   -0.46454E+00  3912   0.213E+00    0.204E+00
DAV:   9    -0.785885661810E+03    0.21162E+00   -0.20469E+00  3768   0.119E+00    0.112E+00
DAV:  10    -0.785911336462E+03   -0.25675E-01   -0.37701E-01  4016   0.669E-01    0.899E-01
DAV:  11    -0.785832254886E+03    0.79082E-01   -0.13673E-01  3936   0.454E-01    0.494E-01
DAV:  12    -0.785822655747E+03    0.95991E-02   -0.42599E-02  3688   0.180E-01    0.207E-01
DAV:  13    -0.785823996930E+03   -0.13412E-02   -0.89264E-03  4104   0.111E-01    0.145E-01
DAV:  14    -0.785821909460E+03    0.20875E-02   -0.36760E-03  3968   0.795E-02    0.739E-02
DAV:  15    -0.785821644754E+03    0.26471E-03   -0.10448E-03  3880   0.357E-02    0.388E-02
DAV:  16    -0.785821562743E+03    0.82011E-04   -0.44413E-04  3840   0.211E-02    0.182E-02
DAV:  17    -0.785821545350E+03    0.17393E-04   -0.10123E-04  3944   0.125E-02    0.131E-02
DAV:  18    -0.785821522084E+03    0.23266E-04   -0.34290E-05  3184   0.653E-03    0.519E-03
DAV:  19    -0.785821518029E+03    0.40553E-05   -0.11033E-05  1952   0.352E-03
   1 F= -.78582152E+03 E0= -.78577868E+03  d E =-.856728E-01
