Li                                      
           1
    20.640000    0.000000    0.000000
     0.000000   20.640000    0.000000
     0.000000    0.000000   20.640000
   Li
   432
Direct configuration=     1
   0.98457484  0.02042339  0.01311135
   0.87929200  0.09028195  0.08958015
   0.81229895  0.15961742  0.18133847
   0.77162027  0.25824228  0.24447494
   0.66406881  0.33517537  0.32121687
   0.58273199  0.41710709  0.39697127
   0.51048123  0.49832495  0.50229313
   0.41978897  0.57002573  0.56504410
   0.34033078  0.63847978  0.66306777
   0.23711724  0.74354741  0.75701470
   0.14018894  0.82252486  0.81553272
   0.06802799  0.92209093  0.93258227
   0.08006704  0.95380969  0.10983251
   0.00703692  0.01918003  0.16669666
   0.90524503  0.08748374  0.24376458
   0.84605752  0.16619583  0.33443192
   0.74900207  0.27302770  0.43401179
   0.67410198  0.36468461  0.48574931
   0.57972489  0.43546701  0.59147498
   0.51343510  0.52149395  0.66328859
   0.40485314  0.56548319  0.75971679
   0.31206895  0.65516911  0.81980757
   0.24063494  0.74166896  0.92459491
   0.14884060  0.86052990  0.00443368
   0.17799534  0.85142689  0.16092390
   0.07732065  0.91079429  0.24286023
   0.98723426  0.99393812  0.32637706
   0.90636550  0.07586814  0.41854249
   0.82596797  0.19199119  0.49232324
   0.76354267  0.26674028  0.58126710
   0.64937556  0.33876441  0.64902154
   0.59368277  0.42183643  0.75114409
   0.52478179  0.49547915  0.84660717
   0.40153249  0.58374242  0.89127455
   0.33632688  0.65583192  0.99970992
   0.24176373  0.76141886  0.07664737
   0.25718422  0.76501965  0.24464687
   0.18479013  0.85084123  0.33958151
   0.07032519  0.89611994  0.42850464
   0.97969417  0.00869940  0.50335701
   0.89689024  0.07328067  0.56746227
   0.84214590  0.17569085  0.66538552
   0.74601951  0.25120714  0.74870845
   0.68149730  0.34949951  0.84494794
   0.55776276  0.40824657  0.93376793
   0.49831329  0.47676175  0.99328913
   0.42103677  0.56767127  0.07972817
   0.31500245  0.65830552  0.16362207
   0.30512519  0.65109533  0.33015930
   0.24779324  0.75031033  0.43097943
   0.18515134  0.82946330  0.54470489
   0.07358257  0.93250316  0.58320608
   0.96357885  0.04706648  0.67144432
   0.90176985  0.08590434  0.76353992
   0.83002089  0.15608844  0.83263386
   0.72957125  0.23787297  0.94150867
   0.65618645  0.34276565  0.01548265
   0.59331670  0.41656288  0.09183909
   0.52118501  0.50615503  0.18428833
   0.39191966  0.57361091  0.25678398
   0.38392549  0.57713756  0.43847345
   0.32147454  0.66790749  0.50495188
   0.24583900  0.73300630  0.59495958
   0.14144809  0.84058119  0.67581930
   0.06865285  0.93816809  0.74256632
   0.01283989  0.01079363  0.82987678
   0.90795596  0.08138669  0.90896435
   0.80923914  0.16266107  0.00672169
   0.75280836  0.25020757  0.09499117
   0.68411022  0.32297288  0.17358266
   0.58503487  0.41761815  0.24566836
   0.48595890  0.49146221  0.31266874
   0.08695090  0.07271223  0.91351909
   0.00211149  0.15825297  0.00206887
   0.90488628  0.23017339  0.08550275
   0.85145820  0.32612712  0.16944017
   0.77444029  0.42040999  0.25265240
   0.66924760  0.51395083  0.31074728
   0.57313551  0.57656937  0.39690806
   0.50609799  0.67598496  0.49212529
   0.41671915  0.73899339  0.57639645
   0.32140329  0.83446109  0.65266289
   0.23161450  0.91377187  0.73202132
   0.15223614  0.99501712  0.81771537
   0.16328477  0.02201866  0.00565532
   0.08617591  0.07783107  0.09284467
   0.00718547  0.16445423  0.16637735
   0.93323220  0.24508545  0.24354002
   0.86108978  0.31282943  0.34018935
   0.75596525  0.40440722  0.39905585
   0.67548783  0.49980254  0.47808685
   0.58425017  0.58512656  0.57343952
   0.48103267  0.65378330  0.66962745
   0.39761799  0.74482361  0.72794999
   0.32690038  0.85201928  0.82341571
   0.22330203  0.93788544  0.90039365
   0.24816934  0.92652226  0.09389317
   0.17660076  0.99235224  0.16254141
   0.08193515  0.07735211  0.24408868
   0.00116653  0.16727819  0.33654005
   0.92899664  0.25296169  0.43398674
   0.82764070  0.34016863  0.49398148
   0.76133510  0.43872753  0.56707320
   0.66853237  0.50255604  0.67058384
   0.58091138  0.58321160  0.75648810
   0.48112124  0.65664881  0.83631948
   0.40263757  0.75006346  0.90812319
   0.32803476  0.84743211  0.01123114
   0.34733211  0.85933898  0.15300403
   0.26725667  0.94034222  0.25415147
   0.16187196  0.01580110  0.34765877
   0.06180728  0.05659142  0.40496145
   0.00354560  0.15699500  0.49987468
   0.91975727  0.26624984  0.58394558
   0.83790544  0.32849894  0.64968799
   0.75262534  0.41754681  0.74529273
   0.66407523  0.50551642  0.82960628
   0.58564208  0.57511334  0.91406778
   0.50662661  0.67809034  0.99303551
   0.40023464  0.74374370  0.09141326
   0.39555480  0.75335176  0.26265744
   0.33809879  0.82223655  0.34102566
   0.25817862  0.92350098  0.41661064
   0.16090285  0.99442404  0.48152307
   0.06979727  0.10139072  0.57143081
   0.95407669  0.14756632  0.67616996
   0.90393208  0.25392571  0.77759382
   0.81621502  0.33825144  0.85140698
   0.74147060  0.42902964  0.92268621
   0.67559559  0.50407979  0.99368116
   0.57407890  0.58359519  0.09094638
   0.47907973  0.66878160  0.19460056
   0.48212486  0.64262882  0.33695827
   0.41162978  0.75599978  0.43572770
   0.33358704  0.83879565  0.50227710
   0.23543390  0.93440376  0.57862771
   0.14563808  0.02289782  0.67391011
   0.08181448  0.08142208  0.74127219
   0.00732545  0.14797110  0.85105015
   0.89749640  0.22788912  0.91521140
   0.81573704  0.31321035  0.00168207
   0.75443693  0.40510283  0.11140583
   0.69159603  0.50452222  0.16671895
   0.59977344  0.57962023  0.25317065
   0.17803120  0.16763700  0.84161272
   0.08913730  0.25295704  0.93294053
   0.98818038  0.32418243  0.99862736
   0.92428219  0.41512926  0.09419284
   0.86083010  0.50904595  0.17868285
   0.77494030  0.59694941  0.26574778
   0.67997475  0.66165001  0.34849592
   0.57540093  0.74951625  0.41257453
   0.52071899  0.82511445  0.50067785
   0.41919620  0.91802934  0.57663678
   0.33830575  0.00878261  0.64818434
   0.26295136  0.07848399  0.77596610
   0.28414441  0.07532992  0.90517568
   0.15974650  0.13623787  0.00631154
   0.10592246  0.23790681  0.06977664
   0.99044952  0.32030314  0.15754788
   0.94400700  0.41615730  0.24926389
   0.86093372  0.48632524  0.33130637
   0.78137966  0.58601241  0.39336711
   0.65683203  0.66317569  0.47605430
   0.58275619  0.74249819  0.58947649
   0.49922582  0.84377688  0.64032744
   0.40404142  0.93920498  0.74026430
   0.32684055  0.99377200  0.82729009
   0.32958408  0.99771880  0.99628423
   0.28579988  0.09165665  0.08595630
   0.18179965  0.17864784  0.16958417
   0.11035607  0.25524611  0.23467384
   0.02324428  0.32170336  0.33567524
   0.94678087  0.40515063  0.40094801
   0.85886199  0.49172431  0.47710211
   0.76165135  0.56307665  0.55854653
   0.69080567  0.64110516  0.65788270
   0.57877374  0.73913728  0.73287554
   0.48042880  0.81844675  0.80150205
   0.42502850  0.92004350  0.89251626
   0.43726291  0.91910878  0.07175480
   0.36826671  0.99928917  0.16553882
   0.25034041  0.07406690  0.23924578
   0.15312431  0.14492641  0.33650340
   0.09929813  0.22777166  0.42377420
   0.00300260  0.32290983  0.48057533
   0.91360598  0.43404991  0.57401724
   0.84343708  0.49517582  0.68954189
   0.76964781  0.56886847  0.74848009
   0.65713544  0.64723271  0.83094239
   0.59243986  0.73417393  0.88718416
   0.51892487  0.82296332  0.00284112
   0.48169985  0.81005423  0.17581379
   0.41628653  0.91969875  0.26666689
   0.33773599  0.00227615  0.33759145
   0.25236282  0.08622525  0.40438089
   0.17863420  0.16086333  0.47535176
   0.08813877  0.23559424  0.58498075
   0.01757846  0.33282533  0.65750558
   0.91917903  0.41075799  0.75469586
   0.81959379  0.47421554  0.84556453
   0.75053923  0.58116977  0.90009676
   0.66027890  0.66192541  0.02065339
   0.56973719  0.72837835  0.09824750
   0.58353196  0.74221828  0.27614031
   0.48566902  0.83023896  0.33752373
   0.42749431  0.91842639  0.41274201
   0.35775462  0.02603567  0.48217617
   0.23879003  0.08687141  0.57754114
   0.16133312  0.17628345  0.66233173
   0.06990296  0.22682049  0.75606792
   0.98918455  0.32915570  0.83296588
   0.92135995  0.43718085  0.92251066
   0.83358736  0.50414949  0.01344238
   0.77242238  0.57831093  0.06348135
   0.67534547  0.66061723  0.17296257
   0.24974229  0.22843407  0.74770870
   0.14931019  0.34452625  0.81127160
   0.05569374  0.42233046  0.92873267
   0.00299739  0.51015762  0.01270816
   0.90191179  0.59292548  0.11003222
   0.82635488  0.68954227  0.17845417
   0.73084515  0.74836209  0.25641103
   0.65033023  0.81322286  0.32412028
   0.59581906  0.91207309  0.41433811
   0.51135258  0.00172077  0.50255270
   0.45186087  0.08264503  0.57690857
   0.33953440  0.14761455  0.65654989
   0.33447844  0.17307473  0.83061256
   0.24424862  0.24998268  0.92055605
   0.16931150  0.32880542  0.99388815
   0.08545848  0.41466800  0.09217524
   0.01546220  0.50916053  0.18364283
   0.92660827  0.60084971  0.25788379
   0.84713410  0.69044722  0.32437121
   0.75751754  0.76674809  0.42390722
   0.66571520  0.82354163  0.49466867
   0.60938989  0.91930461  0.56355116
   0.51927338  0.99208071  0.67235987
   0.43248027  0.07648666  0.74117271
   0.42257901  0.07245090  0.91016441
   0.33687655  0.17906495  0.00616909
   0.23703692  0.24603130  0.08024715
   0.17817246  0.33771344  0.16214592
   0.07982057  0.42920152  0.24759789
   0.01194248  0.48828216  0.33966441
   0.91889991  0.59103885  0.40039937
   0.82279759  0.66671758  0.47784432
   0.75088164  0.74793479  0.57601560
   0.66807063  0.82796738  0.66418284
   0.57397314  0.89280112  0.73458543
   0.51060848  0.01506321  0.81991625
   0.51234128  0.99424266  0.99533506
   0.42953036  0.08555247  0.07203621
   0.34760965  0.17200766  0.17351354
   0.25628389  0.25343028  0.25421943
   0.16463521  0.32294365  0.33755843
   0.08965033  0.41719944  0.40060634
   0.00850767  0.47825273  0.49159319
   0.90931506  0.57513926  0.56391941
   0.83327432  0.65048613  0.66441835
   0.73246253  0.74670004  0.75134019
   0.65143607  0.83114427  0.81950039
   0.58017434  0.90768099  0.91119651
   0.57050308  0.92434445  0.09125473
   0.51182702  0.99826984  0.19479305
   0.42735402  0.09058083  0.26126282
   0.33352696  0.14534896  0.34108465
   0.27262152  0.25266981  0.41585142
   0.17297903  0.33658493  0.49153128
   0.10285458  0.42595674  0.57366584
   0.98673659  0.49369864  0.67513006
   0.90430469  0.56361949  0.75537609
   0.84621606  0.67054712  0.83967660
   0.74815609  0.73413077  0.92669301
   0.65556521  0.82301784  0.01992598
   0.65868577  0.83076059  0.16665497
   0.57797936  0.90348434  0.26630365
   0.50017400  0.01130888  0.34738077
   0.43463872  0.09082652  0.42554949
   0.33217666  0.14631411  0.50809093
   0.25144946  0.24265383  0.56435479
   0.17083799  0.31953934  0.69018241
   0.07525154  0.42014868  0.74981715
   0.98096097  0.49679815  0.84179875
   0.90478372  0.57789194  0.92927360
   0.83299269  0.66832644  0.01117252
   0.72902362  0.75666020  0.09646574
   0.33773386  0.30278663  0.66359990
   0.26020776  0.40917123  0.71890353
   0.17267845  0.47511070  0.81712026
   0.08616482  0.56767488  0.90819144
   0.01048188  0.67357561  0.01093769
   0.90876539  0.74478669  0.08868431
   0.81445902  0.84030610  0.15986379
   0.73988452  0.90558393  0.23966790
   0.64745883  0.00833014  0.34263952
   0.59533987  0.08798126  0.41546771
   0.53111375  0.17766382  0.49519926
   0.43249028  0.24208706  0.57633986
   0.41684528  0.25732677  0.74606467
   0.32920934  0.34369007  0.82184637
   0.25178669  0.40795141  0.89530115
   0.17937299  0.49258633  0.98435285
   0.09508714  0.55982882  0.08226642
   0.99074399  0.67919292  0.16547977
   0.90739496  0.80196629  0.24014453
   0.83640748  0.85268722  0.35427041
   0.72008444  0.93060831  0.39626528
   0.67333003  0.00393427  0.49465469
   0.61231343  0.09578559  0.59476159
   0.51944767  0.17387665  0.66723189
   0.50841460  0.18756367  0.85078895
   0.42388160  0.26644168  0.92203952
   0.32640948  0.33081549  0.98167793
   0.25589861  0.42768836  0.06474271
   0.17600566  0.51258527  0.17521821
   0.08470995  0.59995245  0.26061437
   0.00339875  0.71912570  0.32403050
   0.91218118  0.77519169  0.40522514
   0.80571012  0.84389090  0.50777000
   0.73305878  0.90923442  0.58296402
   0.66972316  0.00342229  0.67857693
   0.59249606  0.09795037  0.73282357
   0.58093324  0.08208529  0.90246927
   0.50513076  0.16287071  0.99874276
   0.42036974  0.25067821  0.09027505
   0.33427625  0.35193782  0.14333499
   0.24002593  0.39701289  0.25286005
   0.16722062  0.51639021  0.34120229
   0.07005505  0.60472373  0.41210304
   0.99975789  0.67944241  0.50112084
   0.87571156  0.74692683  0.59728365
   0.82288621  0.83686325  0.67419717
   0.76047123  0.91961361  0.75428959
   0.65703792  0.99471754  0.83913667
   0.64610786  0.00178816  0.99797102
   0.57355565  0.07862966  0.10299201
   0.49537303  0.16274261  0.17434114
   0.41459622  0.26004448  0.24668790
   0.34001156  0.33119951  0.33622097
   0.26205980  0.40271812  0.42127572
   0.16981916  0.48416230  0.47079588
   0.07271277  0.56186750  0.58900899
   0.98345584  0.65712343  0.65854058
   0.91463493  0.75094321  0.74598401
   0.82173985  0.84206761  0.84680962
   0.73865082  0.91472191  0.92685455
   0.76199785  0.94026217  0.07793250
   0.64327355  0.98995658  0.17315061
   0.58778214  0.08114554  0.27720701
   0.51424559  0.18564314  0.35529366
   0.40251585  0.24038980  0.43457800
   0.35729872  0.33446792  0.49658047
   0.23929787  0.41324134  0.59037565
   0.16767988  0.51161657  0.66189629
   0.07112540  0.56303720  0.74563574
   0.99576936  0.65019507  0.83104662
   0.93094269  0.75947657  0.93426678
   0.80738682  0.85490964  0.01131749
   0.42149261  0.42233912  0.59120958
   0.34949275  0.49572088  0.68674841
   0.22761639  0.57396495  0.73700748
   0.15265563  0.66241691  0.82350185
   0.07621532  0.75132883  0.92086250
   0.00906133  0.83277924  0.02588215
   0.91869511  0.92476238  0.08872652
   0.83386149  0.99289738  0.17557691
   0.74886805  0.07659404  0.26052755
   0.69451239  0.17796330  0.34275368
   0.58731493  0.27623854  0.41804430
   0.51385313  0.35566660  0.49773861
   0.51117400  0.34730259  0.67860162
   0.42765566  0.41734333  0.75984679
   0.31813607  0.49201376  0.84056658
   0.24623825  0.57978697  0.91354452
   0.15178851  0.65889807  0.99012035
   0.11138017  0.74374309  0.08820486
   0.00595227  0.82774935  0.16040994
   0.92041232  0.90810060  0.24069344
   0.82843935  0.98342916  0.33351264
   0.76485682  0.10429742  0.41832400
   0.67594944  0.19241045  0.48892632
   0.57558766  0.28243296  0.57562517
   0.58788038  0.26594316  0.74695027
   0.48792961  0.33004970  0.83318062
   0.43012918  0.41685355  0.90382341
   0.34028859  0.48675393  0.97661393
   0.25032169  0.58074526  0.07024670
   0.17881939  0.67011886  0.16340937
   0.08952130  0.77302478  0.24556192
   0.02659512  0.83986476  0.30636282
   0.92677616  0.90330485  0.40751235
   0.83465508  0.98203286  0.49808476
   0.75893859  0.10991967  0.57614556
   0.68221982  0.18886421  0.66004951
   0.63879991  0.18286845  0.83230311
   0.57330553  0.27658492  0.93425305
   0.49386469  0.34743642  0.02043368
   0.41927693  0.41534276  0.09544905
   0.30412216  0.50475445  0.15963364
   0.26821946  0.58206556  0.23558574
   0.18296119  0.68501118  0.34243663
   0.10911046  0.75991541  0.43068985
   0.98143877  0.83455290  0.51672181
   0.91355388  0.92907611  0.58292131
   0.82583162  0.00298078  0.66342919
   0.74420393  0.09201772  0.75191290
   0.75245708  0.07687849  0.92821677
   0.66521850  0.15573206  0.01930818
   0.60218797  0.26680589  0.09922509
   0.51068899  0.31922973  0.19135413
   0.40791296  0.41091763  0.24244689
   0.32779347  0.49551208  0.34053071
   0.23988103  0.58420822  0.41158683
   0.15831815  0.63355923  0.51170983
   0.08129478  0.72803259  0.60053171
   0.99452514  0.84170637  0.66250894
   0.91283926  0.91161686  0.75560522
   0.82626747  0.98857781  0.84146550
   0.83070663  0.98059411  0.99270273
   0.76364120  0.05843414  0.09391904
   0.67217997  0.16793829  0.17821926
   0.61263249  0.23295065  0.24933236
   0.48594553  0.32590399  0.33670166
   0.39636788  0.43356045  0.40826737
   0.30181929  0.49802246  0.49820122
   0.26641290  0.57038388  0.57896599
   0.15280907  0.64585781  0.65565690
   0.08024936  0.72649869  0.72219287
   0.00779779  0.82975933  0.83133230
   0.93440849  0.89648685  0.92014969
