Li                                      
           1
   -10.636430   18.422837    0.000000
   -18.233880  -10.527336    0.000000
    -0.000000    0.000000   22.309700
   Li
   504
Direct configuration=     1
   0.00358346  0.99387347  0.01530546
   0.92776801  0.03806442  0.68562647
   0.84760482  0.08135199  0.33487871
   0.77194429  0.11721196  0.99418214
   0.71314870  0.16901689  0.66065723
   0.63711963  0.21306905  0.32861656
   0.57000244  0.24483940  0.97513009
   0.49799109  0.28495141  0.66008928
   0.42916542  0.33091662  0.34497512
   0.35883505  0.36870266  0.00446671
   0.28634041  0.41912889  0.65963543
   0.21362025  0.45740410  0.32191158
   0.06797393  0.03748979  0.68112296
   0.99820502  0.08281454  0.33718603
   0.91846100  0.12809482  0.01686575
   0.84907938  0.16341109  0.66485925
   0.78424692  0.21368010  0.33034219
   0.71077078  0.25778829  0.99357712
   0.63748360  0.29145223  0.65783687
   0.56773864  0.33209083  0.32971992
   0.49936983  0.36664312  0.00393703
   0.42633858  0.41168793  0.66324172
   0.35897353  0.45684050  0.34356064
   0.27673407  0.50189295  0.99963582
   0.13807090  0.07981015  0.33445740
   0.07088919  0.12474902  0.00198053
   0.99540769  0.15671062  0.68139559
   0.92321083  0.20015851  0.34154030
   0.85175135  0.24913273  0.00235677
   0.77865233  0.29782138  0.67445558
   0.71165441  0.33548166  0.33034334
   0.64495846  0.37104216  0.00142729
   0.57392605  0.41877175  0.66098691
   0.49311380  0.45811906  0.33190621
   0.42749032  0.49787723  0.99491187
   0.34458468  0.53692791  0.65359515
   0.20742267  0.12382101  0.00033348
   0.14248597  0.15725549  0.68366431
   0.07055886  0.20389626  0.33083232
   0.99210531  0.24621375  0.00274613
   0.93263405  0.28716016  0.68147376
   0.85360460  0.33806388  0.31984454
   0.78342529  0.37706091  0.99007406
   0.71380545  0.42524352  0.66104511
   0.63757366  0.46099150  0.33967766
   0.56925635  0.50216010  0.99957378
   0.49740108  0.53879658  0.65072616
   0.42983631  0.57598353  0.32088833
   0.28315244  0.16338905  0.66464865
   0.21020310  0.21313159  0.34101116
   0.13864109  0.24532094  0.98589895
   0.07087071  0.29140650  0.66019366
   0.99646888  0.32816239  0.34252634
   0.92214403  0.36876204  0.99927154
   0.84597943  0.42180871  0.66420796
   0.77851795  0.46389212  0.32409333
   0.71247882  0.49642874  0.99798338
   0.63570815  0.54305382  0.64361810
   0.56527324  0.58275330  0.33005421
   0.49215182  0.62646182  0.99700406
   0.35555238  0.20938490  0.31570592
   0.28607743  0.25236380  0.00774173
   0.20824926  0.28557026  0.66461084
   0.14074240  0.33525211  0.34890626
   0.07287329  0.37559929  0.99602202
   0.99985191  0.40685721  0.64926655
   0.92353986  0.46032584  0.33473452
   0.85617943  0.50168116  0.99733663
   0.78157701  0.53617273  0.65329416
   0.70061834  0.57500136  0.32742271
   0.63231555  0.62561546  0.00993866
   0.56634935  0.66904056  0.65460869
   0.42906969  0.24695991  0.99349206
   0.35810717  0.28733785  0.67771453
   0.27876878  0.33864880  0.34326481
   0.20718113  0.37661428  0.98846309
   0.13770532  0.41576774  0.66927554
   0.07042225  0.45316907  0.33197213
   0.99811241  0.50292419  0.99986033
   0.91681499  0.53834718  0.64681373
   0.85452881  0.58093390  0.32886201
   0.78674436  0.62174654  0.98572471
   0.71328858  0.66253187  0.66492410
   0.63823028  0.70153495  0.31469678
   0.13995285  0.50047387  0.99170532
   0.07120517  0.54282746  0.65667058
   0.00252568  0.58302615  0.32411552
   0.92600093  0.62960145  0.00450318
   0.85419072  0.66944594  0.65728344
   0.78280376  0.70768876  0.33771531
   0.70722647  0.74789796  0.00389546
   0.21358552  0.54492990  0.66843834
   0.14435550  0.58393194  0.33538911
   0.07180270  0.62546721  0.00380538
   0.99252501  0.67262478  0.65719271
   0.93069793  0.70496070  0.34988343
   0.85298909  0.75097769  0.99195637
   0.78279596  0.79641748  0.67249165
   0.28997516  0.58359197  0.34737751
   0.20482658  0.62520353  0.99960778
   0.13726438  0.66821389  0.66366661
   0.07624962  0.71114612  0.34027851
   0.99751075  0.74687299  0.01065110
   0.92225464  0.79059011  0.64917106
   0.85571495  0.84096064  0.34089299
   0.36235567  0.61957945  0.99752961
   0.29193623  0.66425321  0.67054937
   0.20972341  0.70830529  0.33035191
   0.14312555  0.75597438  0.00772637
   0.07232310  0.78768156  0.67424614
   0.00052351  0.83800847  0.35149232
   0.92805851  0.88010856  0.00633874
   0.42544275  0.66015226  0.66718580
   0.35278059  0.70176055  0.33354538
   0.28813228  0.74567002  0.00889386
   0.21598305  0.79089688  0.66167425
   0.14143510  0.82355098  0.33651404
   0.06970517  0.87355018  0.01119589
   0.99573847  0.91968593  0.66800268
   0.93338296  0.95327661  0.33163268
   0.85724810  0.99997839  0.00186037
   0.77563451  0.03952068  0.66843269
   0.72114633  0.08941486  0.32732434
   0.64856530  0.12443223  0.98905746
   0.56885478  0.16213532  0.68268303
   0.50015850  0.20655791  0.32666066
   0.06649443  0.95700175  0.33125460
   0.14160645  0.99816285  0.99850149
   0.21791099  0.04524102  0.66929186
   0.28344982  0.08011783  0.32708199
   0.35829955  0.12556689  0.99394211
   0.42867254  0.16961906  0.67852841
   0.85366480  0.91860462  0.67338628
   0.78802767  0.95877300  0.33525199
   0.70279402  0.99238043  0.99107191
   0.64480887  0.04377478  0.66563547
   0.56601170  0.09190447  0.34675759
   0.50259452  0.12969962  0.98433368
   0.13951401  0.91684794  0.66891495
   0.21103807  0.96220422  0.32351282
   0.28240161  0.99514290  0.02427567
   0.34907397  0.03610841  0.68662060
   0.42153718  0.08642050  0.31451414
   0.78417065  0.87495000  0.00369451
   0.71728352  0.91737731  0.67056579
   0.63822635  0.95442380  0.34475930
   0.56832913  0.99816617  0.98686164
   0.49439060  0.04323076  0.67619844
   0.20872940  0.87799728  0.01973586
   0.28378620  0.91548561  0.66128927
   0.35781324  0.95167788  0.31767188
   0.42129036  0.99646312  0.99795384
   0.72003430  0.83313625  0.33581147
   0.64001000  0.87622949  0.99963992
   0.56456460  0.90974330  0.67651105
   0.50142568  0.95959974  0.34125482
   0.28878164  0.82746829  0.34509902
   0.35757432  0.87627552  0.01133241
   0.42473845  0.91588854  0.66978971
   0.64058199  0.78965299  0.67181480
   0.57220938  0.83337632  0.34384094
   0.49395923  0.86888942  0.00367308
   0.35378567  0.79054558  0.66949389
   0.41867522  0.82098183  0.33693066
   0.56845897  0.74860714  0.00828697
   0.49669285  0.78885248  0.67376354
   0.42826579  0.74583477  0.99764173
   0.49666822  0.71219246  0.32383204
   0.01075119  0.99571087  0.78621517
   0.92485527  0.05779535  0.45453889
   0.86451243  0.07841126  0.11262426
   0.78839270  0.12252882  0.77093877
   0.70756988  0.17219628  0.44680937
   0.64414250  0.20885882  0.09998302
   0.56271035  0.25759452  0.77099763
   0.48994315  0.28915744  0.44898417
   0.44168973  0.33929950  0.10707181
   0.36181760  0.36730698  0.77553951
   0.28171604  0.42426399  0.44697568
   0.21597499  0.46108764  0.11239555
   0.06448625  0.04560457  0.45989622
   0.99826461  0.07747702  0.11281764
   0.93068946  0.11594614  0.79903121
   0.85498939  0.17628058  0.44227139
   0.77838367  0.20677169  0.09984942
   0.70619932  0.24585479  0.78158084
   0.63815044  0.29760984  0.44193892
   0.57994232  0.32790248  0.10274652
   0.50725097  0.38896901  0.77935964
   0.42909888  0.41020488  0.44968524
   0.36027008  0.46003208  0.11217401
   0.28927807  0.49760341  0.77976395
   0.14247304  0.08084722  0.10843084
   0.08205004  0.12231825  0.78783938
   0.99387020  0.17092946  0.44749254
   0.91992413  0.21178804  0.10759172
   0.85527655  0.25406308  0.78090052
   0.78727656  0.29897687  0.44268467
   0.71746742  0.34481300  0.10117687
   0.65193989  0.37379946  0.76835590
   0.56509763  0.41061415  0.42928841
   0.51163529  0.46712899  0.11788048
   0.42349180  0.50421116  0.77835027
   0.34858680  0.55061648  0.44596733
   0.21726964  0.12559218  0.79660109
   0.13368603  0.16974922  0.45364184
   0.06259048  0.20502226  0.11006037
   0.99525655  0.23737894  0.78242455
   0.93366851  0.30990959  0.43408554
   0.85290489  0.33711875  0.09516265
   0.78512754  0.37157912  0.78764633
   0.70407896  0.42773294  0.44196768
   0.64802199  0.45961136  0.10500907
   0.58845898  0.50595167  0.76432224
   0.49077876  0.54052381  0.44507067
   0.42829474  0.59416882  0.09228847
   0.28120831  0.16566399  0.43743298
   0.21075818  0.20464015  0.11125484
   0.14413623  0.25510243  0.77507987
   0.06235321  0.28988945  0.43727438
   0.99292245  0.33181040  0.10030757
   0.92679277  0.37713002  0.77293766
   0.86044234  0.42377432  0.44660493
   0.78393835  0.46320810  0.09650363
   0.71714733  0.50113461  0.76500789
   0.63028491  0.53943003  0.44706979
   0.57184211  0.58471278  0.11172822
   0.51210127  0.62615916  0.77486310
   0.34804300  0.21549405  0.11111890
   0.28313549  0.25672840  0.77048698
   0.21182675  0.28957356  0.45230738
   0.14726199  0.33616836  0.11380427
   0.07499982  0.37126239  0.77227352
   0.01411710  0.42972933  0.44215067
   0.92866401  0.45962014  0.11641605
   0.86741351  0.50081904  0.76231776
   0.77589384  0.53318217  0.43477005
   0.71742656  0.59159197  0.09254593
   0.65795618  0.62436149  0.76781683
   0.56320924  0.66613344  0.43334964
   0.42346854  0.25329262  0.78468910
   0.34921818  0.29263114  0.45373099
   0.29077099  0.33573465  0.12015390
   0.21305615  0.38056936  0.78079007
   0.15189804  0.41072232  0.43612150
   0.08240529  0.46036208  0.11667083
   0.99729581  0.49906253  0.75750351
   0.91378803  0.54341124  0.44011530
   0.86386584  0.59114313  0.11799388
   0.79908131  0.62556593  0.76447112
   0.70564426  0.67136618  0.43662083
   0.64222014  0.70828801  0.11493594
   0.14502835  0.50817045  0.77836755
   0.07164329  0.55748766  0.45158182
   0.00276753  0.58331288  0.12086282
   0.93421645  0.63073964  0.76884494
   0.84689017  0.65458614  0.44080093
   0.78897194  0.71067020  0.11202257
   0.72642405  0.74290227  0.77635795
   0.21079037  0.54307910  0.45782414
   0.14350136  0.59540048  0.10849411
   0.07076314  0.62269296  0.78124344
   0.98778061  0.67476691  0.45632704
   0.93117568  0.71025127  0.11985763
   0.87126025  0.75730747  0.79153465
   0.77908212  0.79491229  0.44457333
   0.28163370  0.58321918  0.11062836
   0.22631283  0.62991562  0.77408810
   0.14167666  0.67564333  0.44254014
   0.07717897  0.71470352  0.11817962
   0.99707477  0.74270504  0.77161561
   0.92160362  0.78098581  0.44542505
   0.84818996  0.83685227  0.10934667
   0.35906207  0.62761239  0.76950147
   0.28670099  0.66812662  0.44852938
   0.21396885  0.71076904  0.12081700
   0.15468742  0.75146087  0.77698105
   0.06978647  0.78912250  0.44620817
   0.98812630  0.83731852  0.10130838
   0.93954390  0.87956010  0.77781884
   0.41313975  0.66569976  0.44376526
   0.35531073  0.71284360  0.09460925
   0.28768394  0.74609278  0.76856186
   0.20593463  0.79887358  0.45642755
   0.14178699  0.83152532  0.12527811
   0.08402410  0.86132897  0.77750917
   0.99987255  0.91392661  0.45262769
   0.92383211  0.96982666  0.11496218
   0.84983939  0.99794868  0.79572295
   0.78309298  0.04882480  0.44726820
   0.70980936  0.08408551  0.10270996
   0.63357587  0.12808509  0.76192176
   0.57418943  0.16347094  0.44077498
   0.50525460  0.22251180  0.09503438
   0.07174250  0.95236143  0.11294630
   0.15308880  0.99834545  0.78237465
   0.21206821  0.04228224  0.45118332
   0.28160864  0.07036889  0.11353099
   0.35976773  0.11606684  0.78514412
   0.42551146  0.16928960  0.45176099
   0.85651729  0.93005652  0.44108287
   0.78574305  0.94643573  0.10946160
   0.71704777  0.99362590  0.77806428
   0.65013513  0.04886087  0.46463532
   0.57257546  0.08239807  0.09885685
   0.51474704  0.11717553  0.77736428
   0.14149893  0.91956161  0.44589297
   0.21080944  0.95733938  0.11656463
   0.28679899  0.00746998  0.77856940
   0.35594882  0.05212172  0.41423668
   0.42382640  0.09666282  0.10961213
   0.78840442  0.87966644  0.77338779
   0.72660927  0.91805007  0.43839897
   0.63739961  0.96368315  0.10258674
   0.58441695  0.99731589  0.77387044
   0.50774093  0.02827996  0.44705413
   0.22505347  0.87698423  0.78239769
   0.28277698  0.92267342  0.42996251
   0.35822318  0.96309491  0.12824750
   0.43778853  0.99522811  0.79723504
   0.70108606  0.83718429  0.11400163
   0.65632495  0.86875082  0.78055429
   0.58070366  0.91712183  0.44988719
   0.49314698  0.95745329  0.10768489
   0.28600401  0.83852902  0.12269667
   0.35866736  0.87728034  0.76757340
   0.41428311  0.92187897  0.43405049
   0.63657906  0.79508037  0.44223306
   0.56548308  0.83179194  0.09810260
   0.49719015  0.86198052  0.78646679
   0.34936949  0.80449699  0.43539979
   0.43633688  0.83404180  0.12291752
   0.58620637  0.75151473  0.77905161
   0.48774445  0.79916948  0.45182362
   0.43658352  0.73758939  0.78822279
   0.50806056  0.70880464  0.12316465
   0.99815853  0.99873092  0.21791812
   0.93699534  0.02511535  0.90507766
   0.86014946  0.08777285  0.56218067
   0.78650359  0.12194336  0.21395295
   0.71636197  0.16503783  0.87333212
   0.64319702  0.21215565  0.55233641
   0.58509260  0.24933118  0.21399458
   0.51461255  0.29149626  0.87613668
   0.42729202  0.32190526  0.56445872
   0.36729898  0.39375069  0.22512181
   0.29280952  0.40881144  0.89870311
   0.21156578  0.45812586  0.57049726
   0.08610488  0.04459188  0.87630712
   0.99588184  0.09732511  0.57605212
   0.91804219  0.12513980  0.22354752
   0.86354860  0.16375308  0.89011737
   0.79679100  0.21081911  0.56011748
   0.72131849  0.26042216  0.22285651
   0.63432997  0.29045319  0.88258118
   0.55722667  0.33993946  0.54422596
   0.50931520  0.37648385  0.22274634
   0.42528738  0.42450747  0.88409943
   0.35804921  0.47002362  0.54846997
   0.28455089  0.50423974  0.22187601
   0.13134484  0.09131461  0.57561133
   0.07493586  0.12474726  0.22300892
   0.01226846  0.16713909  0.90181429
   0.93030326  0.22123911  0.56199448
   0.85670839  0.24410978  0.22216665
   0.78651932  0.29605383  0.87840663
   0.70265699  0.33435653  0.55794606
   0.64195711  0.38374040  0.21928567
   0.57806839  0.41799086  0.87930506
   0.49138570  0.44840587  0.53653223
   0.43039237  0.50071486  0.20072474
   0.36426624  0.52932586  0.89496921
   0.19992120  0.10842592  0.21863759
   0.15325568  0.16342612  0.88144737
   0.07581446  0.22095462  0.56266596
   0.99346528  0.25539990  0.21634546
   0.91828304  0.27429534  0.89221331
   0.85358716  0.33606306  0.56103026
   0.78983407  0.37726984  0.22249948
   0.71788275  0.41631573  0.87623258
   0.63507604  0.45778510  0.54381774
   0.58087378  0.49833306  0.23095796
   0.51344782  0.53519788  0.88575534
   0.42227168  0.58003987  0.55783639
   0.29102735  0.17003044  0.88477259
   0.22266425  0.20579786  0.56128660
   0.14143078  0.25611113  0.22622411
   0.07638790  0.28717360  0.90167144
   0.00586616  0.34743314  0.55960534
   0.92893983  0.36418434  0.21796076
   0.84807791  0.42211072  0.88740998
   0.78243677  0.45485736  0.55068585
   0.71451710  0.49968305  0.21261232
   0.65564660  0.53358595  0.89376738
   0.55652880  0.58093371  0.55394295
   0.49910201  0.61857428  0.22213982
   0.36128075  0.20853604  0.56217230
   0.28315223  0.23753153  0.23134959
   0.21661634  0.30114815  0.89681457
   0.13866799  0.32975150  0.56274355
   0.06671648  0.37838268  0.22707279
   0.99278871  0.41026561  0.88236502
   0.92629622  0.46009235  0.55552546
   0.86155375  0.49886175  0.21391111
   0.79738592  0.53684983  0.87772853
   0.70428213  0.57625186  0.54984709
   0.64114036  0.62045540  0.21001915
   0.58941908  0.66359615  0.88235071
   0.44442417  0.24739835  0.21699534
   0.36123131  0.28495855  0.88880057
   0.28499000  0.33475503  0.55534511
   0.21236241  0.37755236  0.23515280
   0.13771483  0.42937918  0.87668585
   0.06997498  0.46363298  0.55575988
   0.00801432  0.49886911  0.22912386
   0.94042065  0.54652482  0.88977050
   0.84625923  0.56888916  0.55720782
   0.78843032  0.62698141  0.22048176
   0.73238592  0.66229068  0.88455291
   0.62915954  0.70800354  0.54406748
   0.14427270  0.50295264  0.21680039
   0.06810252  0.53293391  0.89193385
   0.00629815  0.58312812  0.56436288
   0.94351132  0.63115161  0.22804586
   0.87122966  0.67544159  0.88846640
   0.77564884  0.70357343  0.55340276
   0.71601129  0.74531627  0.21620476
   0.23076953  0.54858256  0.87940516
   0.14189956  0.59094383  0.55602200
   0.07352071  0.62354624  0.21604003
   0.00973866  0.66264514  0.89710123
   0.91311412  0.69336469  0.55264684
   0.85817291  0.74658490  0.22911704
   0.80368733  0.78314465  0.88639820
   0.28799309  0.58229862  0.54865303
   0.21615010  0.62815399  0.22847820
   0.14680252  0.65786727  0.88579648
   0.07703494  0.70723828  0.55759854
   0.00942257  0.75671216  0.22746183
   0.94239374  0.79535954  0.89948194
   0.86392125  0.82982919  0.55743275
   0.37245437  0.63003597  0.21995024
   0.29993795  0.65917270  0.88403214
   0.21675674  0.70183979  0.56237882
   0.14559298  0.74481098  0.24170041
   0.07914764  0.78525388  0.89682612
   0.00400575  0.83330621  0.55193947
   0.92759999  0.87249764  0.21810762
   0.44076963  0.65346201  0.89084944
   0.35770606  0.71118177  0.54566036
   0.28836094  0.74638792  0.21605940
   0.22759326  0.78811200  0.89481845
   0.14092430  0.83358393  0.55619915
   0.06390774  0.87941176  0.22104907
   0.00577749  0.92554630  0.89061198
   0.92659078  0.95356967  0.57036622
   0.85845580  0.99688901  0.23569079
   0.78517814  0.04054302  0.88903449
   0.71478165  0.10126374  0.56905739
   0.65361391  0.11675908  0.21282410
   0.57283617  0.16435871  0.87717544
   0.50635195  0.20144367  0.55532244
   0.06716660  0.96313975  0.55812503
   0.14075970  0.99801906  0.22270422
   0.22685787  0.04207929  0.89600248
   0.29506094  0.08443264  0.55123805
   0.35278643  0.12843757  0.21963410
   0.43164395  0.16295874  0.88525364
   0.86093246  0.90717283  0.89412599
   0.79250088  0.97352857  0.55395119
   0.71028922  0.01646050  0.21543231
   0.64746551  0.03675524  0.88696882
   0.57374295  0.08690223  0.55971729
   0.50603053  0.14070440  0.22347448
   0.14417225  0.90759675  0.89997658
   0.20866514  0.95810071  0.56720923
   0.28358189  0.99140589  0.22758967
   0.36262552  0.03649887  0.88952030
   0.43187222  0.06538655  0.56383475
   0.78283291  0.87088751  0.23136414
   0.72059179  0.92071665  0.88326706
   0.65275469  0.95496795  0.56181787
   0.56923459  0.99954430  0.22835577
   0.51033201  0.04871952  0.87696585
   0.20578569  0.87620065  0.22603651
   0.30230601  0.91727743  0.89410527
   0.35077871  0.96485559  0.56273551
   0.42955746  0.00134392  0.21672503
   0.71201039  0.84401139  0.54903609
   0.63602084  0.88494658  0.22012710
   0.57774370  0.90343802  0.87743922
   0.50944012  0.95170939  0.55688729
   0.28094939  0.83140818  0.55367234
   0.35945828  0.87288130  0.23338648
   0.43142813  0.90411816  0.90382013
   0.66465181  0.78135961  0.89625093
   0.57643179  0.83224368  0.56173567
   0.51135175  0.88008452  0.22103147
   0.36251846  0.77864283  0.89387675
   0.41506843  0.83749074  0.55524639
   0.58226395  0.74508927  0.21892569
   0.51983389  0.78822662  0.89304497
   0.43197140  0.75626475  0.22802347
   0.48863286  0.70649419  0.54759952
