 500 500   0   0
  0.2029568E+02  0.2165000E-08  0.2165000E-08  0.2165000E-08  0.5000000E-15
  1.000000000000000E-004
  CAR 
 Li                                      
      3.45653946     -3.43868966  301      0.39181940      1.00000000
     -3.439  0.0000E+00  0.0000E+00
     -3.416  0.0000E+00  0.0000E+00
     -3.393  0.0000E+00  0.0000E+00
     -3.370  0.0000E+00  0.0000E+00
     -3.347  0.0000E+00  0.0000E+00
     -3.324  0.0000E+00  0.0000E+00
     -3.301  0.4830E-14  0.1110E-15
     -3.278  0.2689E-10  0.6181E-12
     -3.255  0.4252E-07  0.9779E-09
     -3.232  0.2135E-04  0.4917E-06
     -3.209  0.3435E-02  0.7945E-04
     -3.186  0.1794E+00  0.4202E-02
     -3.163  0.3090E+01  0.7522E-01
     -3.140  0.1790E+02  0.4866E+00
     -3.117  0.3547E+02  0.1302E+01
     -3.094  0.2425E+02  0.1859E+01
     -3.071  0.6456E+01  0.2008E+01
     -3.048  0.9791E+01  0.2233E+01
     -3.025  0.4412E+02  0.3247E+01
     -3.002  0.8898E+02  0.5292E+01
     -2.979  0.8046E+02  0.7141E+01
     -2.956  0.3233E+02  0.7884E+01
     -2.933  0.1145E+02  0.8147E+01
     -2.910  0.3469E+02  0.8945E+01
     -2.887  0.8122E+02  0.1081E+02
     -2.864  0.8731E+02  0.1282E+02
     -2.841  0.4249E+02  0.1379E+02
     -2.818  0.1457E+02  0.1413E+02
     -2.795  0.3789E+02  0.1500E+02
     -2.772  0.9739E+02  0.1724E+02
     -2.749  0.1186E+03  0.1996E+02
     -2.726  0.6943E+02  0.2156E+02
     -2.703  0.2594E+02  0.2216E+02
     -2.680  0.4905E+02  0.2328E+02
     -2.657  0.1208E+03  0.2606E+02
     -2.634  0.1610E+03  0.2976E+02
     -2.611  0.1244E+03  0.3262E+02
     -2.588  0.5124E+02  0.3380E+02
     -2.565  0.2004E+02  0.3426E+02
     -2.542  0.5261E+02  0.3547E+02
     -2.519  0.9738E+02  0.3771E+02
     -2.496  0.7441E+02  0.3942E+02
     -2.473  0.2618E+02  0.4002E+02
     -2.450  0.2918E+02  0.4069E+02
     -2.427  0.9121E+02  0.4279E+02
     -2.404  0.1575E+03  0.4640E+02
     -2.381  0.1492E+03  0.4983E+02
     -2.358  0.7890E+02  0.5165E+02
     -2.335  0.4978E+02  0.5279E+02
     -2.312  0.1134E+03  0.5540E+02
     -2.289  0.2014E+03  0.6003E+02
     -2.267  0.2186E+03  0.6505E+02
     -2.244  0.1471E+03  0.6843E+02
     -2.221  0.5998E+02  0.6981E+02
     -2.198  0.3360E+02  0.7058E+02
     -2.175  0.6689E+02  0.7212E+02
     -2.152  0.9001E+02  0.7419E+02
     -2.129  0.5980E+02  0.7556E+02
     -2.106  0.2895E+02  0.7623E+02
     -2.083  0.6016E+02  0.7761E+02
     -2.060  0.1428E+03  0.8089E+02
     -2.037  0.1883E+03  0.8522E+02
     -2.014  0.1407E+03  0.8846E+02
     -1.991  0.6591E+02  0.8997E+02
     -1.968  0.6741E+02  0.9152E+02
     -1.945  0.1539E+03  0.9506E+02
     -1.922  0.2260E+03  0.1003E+03
     -1.899  0.2003E+03  0.1049E+03
     -1.876  0.1065E+03  0.1073E+03
     -1.853  0.4404E+02  0.1083E+03
     -1.830  0.7343E+02  0.1100E+03
     -1.807  0.1472E+03  0.1134E+03
     -1.784  0.1609E+03  0.1171E+03
     -1.761  0.9886E+02  0.1194E+03
     -1.738  0.6436E+02  0.1208E+03
     -1.715  0.1277E+03  0.1238E+03
     -1.692  0.2097E+03  0.1286E+03
     -1.669  0.2152E+03  0.1335E+03
     -1.646  0.1409E+03  0.1368E+03
     -1.623  0.6801E+02  0.1383E+03
     -1.600  0.9337E+02  0.1405E+03
     -1.577  0.1809E+03  0.1446E+03
     -1.554  0.2222E+03  0.1498E+03
     -1.531  0.1733E+03  0.1537E+03
     -1.508  0.8595E+02  0.1557E+03
     -1.485  0.6001E+02  0.1571E+03
     -1.462  0.1159E+03  0.1598E+03
     -1.439  0.1613E+03  0.1635E+03
     -1.416  0.1296E+03  0.1664E+03
     -1.393  0.6856E+02  0.1680E+03
     -1.370  0.7171E+02  0.1697E+03
     -1.347  0.1293E+03  0.1726E+03
     -1.324  0.1526E+03  0.1761E+03
     -1.301  0.1136E+03  0.1788E+03
     -1.278  0.7161E+02  0.1804E+03
     -1.255  0.1132E+03  0.1830E+03
     -1.232  0.2248E+03  0.1882E+03
     -1.209  0.3098E+03  0.1953E+03
     -1.186  0.3053E+03  0.2023E+03
     -1.163  0.2190E+03  0.2073E+03
     -1.140  0.1319E+03  0.2104E+03
     -1.117  0.1412E+03  0.2136E+03
     -1.094  0.2033E+03  0.2183E+03
     -1.071  0.2102E+03  0.2231E+03
     -1.048  0.1480E+03  0.2265E+03
     -1.025  0.8057E+02  0.2284E+03
     -1.002  0.8193E+02  0.2303E+03
     -0.979  0.1356E+03  0.2334E+03
     -0.956  0.1784E+03  0.2375E+03
     -0.933  0.1581E+03  0.2411E+03
     -0.910  0.1453E+03  0.2444E+03
     -0.887  0.1940E+03  0.2489E+03
     -0.864  0.2298E+03  0.2542E+03
     -0.841  0.2349E+03  0.2596E+03
     -0.819  0.1801E+03  0.2637E+03
     -0.796  0.8381E+02  0.2657E+03
     -0.773  0.4398E+02  0.2667E+03
     -0.750  0.7243E+02  0.2683E+03
     -0.727  0.8983E+02  0.2704E+03
     -0.704  0.6678E+02  0.2719E+03
     -0.681  0.8511E+02  0.2739E+03
     -0.658  0.1850E+03  0.2781E+03
     -0.635  0.2760E+03  0.2845E+03
     -0.612  0.3035E+03  0.2915E+03
     -0.589  0.2855E+03  0.2980E+03
     -0.566  0.2433E+03  0.3036E+03
     -0.543  0.2091E+03  0.3084E+03
     -0.520  0.2151E+03  0.3134E+03
     -0.497  0.2576E+03  0.3193E+03
     -0.474  0.2749E+03  0.3256E+03
     -0.451  0.2292E+03  0.3309E+03
     -0.428  0.1608E+03  0.3346E+03
     -0.405  0.1187E+03  0.3373E+03
     -0.382  0.1167E+03  0.3400E+03
     -0.359  0.1382E+03  0.3432E+03
     -0.336  0.1536E+03  0.3467E+03
     -0.313  0.1757E+03  0.3507E+03
     -0.290  0.1887E+03  0.3551E+03
     -0.267  0.1899E+03  0.3594E+03
     -0.244  0.1772E+03  0.3635E+03
     -0.221  0.1560E+03  0.3671E+03
     -0.198  0.1685E+03  0.3710E+03
     -0.175  0.2313E+03  0.3763E+03
     -0.152  0.2843E+03  0.3828E+03
     -0.129  0.2871E+03  0.3894E+03
     -0.106  0.2375E+03  0.3949E+03
     -0.083  0.1865E+03  0.3991E+03
     -0.060  0.1973E+03  0.4037E+03
     -0.037  0.2197E+03  0.4087E+03
     -0.014  0.1803E+03  0.4129E+03
      0.009  0.1204E+03  0.4156E+03
      0.032  0.1270E+03  0.4186E+03
      0.055  0.2019E+03  0.4232E+03
      0.078  0.2572E+03  0.4291E+03
      0.101  0.2698E+03  0.4353E+03
      0.124  0.2455E+03  0.4410E+03
      0.147  0.2119E+03  0.4458E+03
      0.170  0.2115E+03  0.4507E+03
      0.193  0.2194E+03  0.4557E+03
      0.216  0.2073E+03  0.4605E+03
      0.239  0.1890E+03  0.4648E+03
      0.262  0.1887E+03  0.4692E+03
      0.285  0.2130E+03  0.4741E+03
      0.308  0.2354E+03  0.4795E+03
      0.331  0.2423E+03  0.4851E+03
      0.354  0.2469E+03  0.4907E+03
      0.377  0.2469E+03  0.4964E+03
      0.400  0.2363E+03  0.5018E+03
      0.423  0.2346E+03  0.5072E+03
      0.446  0.2367E+03  0.5127E+03
      0.469  0.2351E+03  0.5181E+03
      0.492  0.2415E+03  0.5236E+03
      0.515  0.2604E+03  0.5296E+03
      0.538  0.2847E+03  0.5361E+03
      0.561  0.2963E+03  0.5430E+03
      0.584  0.3004E+03  0.5499E+03
      0.607  0.3044E+03  0.5569E+03
      0.629  0.3040E+03  0.5638E+03
      0.652  0.3015E+03  0.5708E+03
      0.675  0.2924E+03  0.5775E+03
      0.698  0.2794E+03  0.5839E+03
      0.721  0.2565E+03  0.5898E+03
      0.744  0.2202E+03  0.5949E+03
      0.767  0.2019E+03  0.5995E+03
      0.790  0.2035E+03  0.6042E+03
      0.813  0.1974E+03  0.6087E+03
      0.836  0.1843E+03  0.6130E+03
      0.859  0.1776E+03  0.6170E+03
      0.882  0.1804E+03  0.6212E+03
      0.905  0.1810E+03  0.6253E+03
      0.928  0.1715E+03  0.6293E+03
      0.951  0.1621E+03  0.6330E+03
      0.974  0.1721E+03  0.6370E+03
      0.997  0.2028E+03  0.6416E+03
      1.020  0.2211E+03  0.6467E+03
      1.043  0.2226E+03  0.6518E+03
      1.066  0.2339E+03  0.6572E+03
      1.089  0.2493E+03  0.6629E+03
      1.112  0.2453E+03  0.6686E+03
      1.135  0.2433E+03  0.6742E+03
      1.158  0.2485E+03  0.6799E+03
      1.181  0.2451E+03  0.6855E+03
      1.204  0.2480E+03  0.6912E+03
      1.227  0.2493E+03  0.6969E+03
      1.250  0.2424E+03  0.7025E+03
      1.273  0.2348E+03  0.7079E+03
      1.296  0.2263E+03  0.7131E+03
      1.319  0.2141E+03  0.7180E+03
      1.342  0.1994E+03  0.7226E+03
      1.365  0.1974E+03  0.7272E+03
      1.388  0.2185E+03  0.7322E+03
      1.411  0.2282E+03  0.7374E+03
      1.434  0.2159E+03  0.7424E+03
      1.457  0.2067E+03  0.7471E+03
      1.480  0.2059E+03  0.7519E+03
      1.503  0.2070E+03  0.7566E+03
      1.526  0.1941E+03  0.7611E+03
      1.549  0.1738E+03  0.7651E+03
      1.572  0.1684E+03  0.7689E+03
      1.595  0.1722E+03  0.7729E+03
      1.618  0.1632E+03  0.7767E+03
      1.641  0.1481E+03  0.7801E+03
      1.664  0.1446E+03  0.7834E+03
      1.687  0.1482E+03  0.7868E+03
      1.710  0.1549E+03  0.7903E+03
      1.733  0.1559E+03  0.7939E+03
      1.756  0.1511E+03  0.7974E+03
      1.779  0.1604E+03  0.8011E+03
      1.802  0.1903E+03  0.8055E+03
      1.825  0.2121E+03  0.8103E+03
      1.848  0.2141E+03  0.8153E+03
      1.871  0.2149E+03  0.8202E+03
      1.894  0.2184E+03  0.8252E+03
      1.917  0.2255E+03  0.8304E+03
      1.940  0.2324E+03  0.8357E+03
      1.963  0.2243E+03  0.8409E+03
      1.986  0.2028E+03  0.8456E+03
      2.009  0.1847E+03  0.8498E+03
      2.032  0.1697E+03  0.8537E+03
      2.055  0.1576E+03  0.8573E+03
      2.077  0.1416E+03  0.8606E+03
      2.100  0.1337E+03  0.8637E+03
      2.123  0.1347E+03  0.8668E+03
      2.146  0.1313E+03  0.8698E+03
      2.169  0.1294E+03  0.8727E+03
      2.192  0.1415E+03  0.8760E+03
      2.215  0.1577E+03  0.8796E+03
      2.238  0.1683E+03  0.8835E+03
      2.261  0.1722E+03  0.8874E+03
      2.284  0.1564E+03  0.8910E+03
      2.307  0.1479E+03  0.8944E+03
      2.330  0.1534E+03  0.8980E+03
      2.353  0.1513E+03  0.9014E+03
      2.376  0.1405E+03  0.9047E+03
      2.399  0.1305E+03  0.9077E+03
      2.422  0.1229E+03  0.9105E+03
      2.445  0.1265E+03  0.9134E+03
      2.468  0.1435E+03  0.9167E+03
      2.491  0.1582E+03  0.9203E+03
      2.514  0.1657E+03  0.9242E+03
      2.537  0.1676E+03  0.9280E+03
      2.560  0.1660E+03  0.9318E+03
      2.583  0.1486E+03  0.9352E+03
      2.606  0.1391E+03  0.9384E+03
      2.629  0.1427E+03  0.9417E+03
      2.652  0.1291E+03  0.9447E+03
      2.675  0.1185E+03  0.9474E+03
      2.698  0.1303E+03  0.9504E+03
      2.721  0.1438E+03  0.9537E+03
      2.744  0.1454E+03  0.9570E+03
      2.767  0.1537E+03  0.9606E+03
      2.790  0.1602E+03  0.9643E+03
      2.813  0.1578E+03  0.9679E+03
      2.836  0.1633E+03  0.9716E+03
      2.859  0.1615E+03  0.9753E+03
      2.882  0.1553E+03  0.9789E+03
      2.905  0.1433E+03  0.9822E+03
      2.928  0.1163E+03  0.9849E+03
      2.951  0.8532E+02  0.9868E+03
      2.974  0.5324E+02  0.9881E+03
      2.997  0.4109E+02  0.9890E+03
      3.020  0.5993E+02  0.9904E+03
      3.043  0.8197E+02  0.9923E+03
      3.066  0.9144E+02  0.9944E+03
      3.089  0.9563E+02  0.9966E+03
      3.112  0.1059E+03  0.9990E+03
      3.135  0.8388E+02  0.1001E+04
      3.158  0.3666E+02  0.1002E+04
      3.181  0.8600E+01  0.1002E+04
      3.204  0.1012E+01  0.1002E+04
      3.227  0.5030E-01  0.1002E+04
      3.250  0.9126E-03  0.1002E+04
      3.273  0.5583E-05  0.1002E+04
      3.296  0.1110E-07  0.1002E+04
      3.319  0.7040E-11  0.1002E+04
      3.342  0.0000E+00  0.1002E+04
      3.365  0.0000E+00  0.1002E+04
      3.388  0.0000E+00  0.1002E+04
      3.411  0.0000E+00  0.1002E+04
      3.434  0.0000E+00  0.1002E+04
      3.457  0.0000E+00  0.1002E+04
