Li                                      
           1
    21.650000    0.000000    0.000000
     0.000000   21.650000    0.000000
    -0.000000   -0.000000   21.650000
   Li
   500
Direct configuration=     1
   0.00617944  0.99948192  0.01893752
   0.01638356  0.10593476  0.13866699
   0.97752197  0.21250280  0.20385847
   0.98563036  0.31953795  0.29813645
   0.00110175  0.39968859  0.39938929
   0.00721086  0.51130274  0.48226820
   0.00485009  0.59815057  0.58841474
   0.00947361  0.71604868  0.70372880
   0.99984177  0.82110994  0.80671710
   0.99803430  0.89559214  0.91057298
   0.09193776  0.99198613  0.11887892
   0.08083111  0.10341664  0.19033511
   0.09785702  0.20379299  0.27736670
   0.09651154  0.30047792  0.40504063
   0.10337799  0.40263866  0.49607146
   0.10409718  0.50300394  0.58443144
   0.09943888  0.61745013  0.68080054
   0.11232296  0.71120650  0.79555280
   0.09693105  0.79889843  0.91676501
   0.07084666  0.89699780  0.00140002
   0.20358265  0.98217272  0.18258473
   0.17787241  0.08689007  0.27170118
   0.19195396  0.16766421  0.38117816
   0.20681090  0.27221084  0.48687625
   0.19603283  0.39725173  0.59986234
   0.19172106  0.49297537  0.70473153
   0.18349621  0.61259349  0.79131290
   0.19164586  0.68841203  0.90380697
   0.18117389  0.80330813  0.00661867
   0.19856751  0.89627852  0.08861369
   0.31492192  0.99502147  0.28258470
   0.28289837  0.09640801  0.39452424
   0.27561624  0.18831875  0.49632515
   0.31475147  0.30046385  0.58489475
   0.29368363  0.38516781  0.68982342
   0.27547985  0.46922684  0.77869827
   0.30507085  0.58117069  0.86261809
   0.30450505  0.67510628  0.99642099
   0.30436369  0.77927077  0.08999951
   0.30481501  0.88855223  0.15808321
   0.41317982  0.00881684  0.39498848
   0.39006036  0.09002984  0.49426108
   0.39561394  0.19775251  0.58395142
   0.41434837  0.29459523  0.68740584
   0.39466822  0.37193750  0.80146556
   0.38880382  0.49983400  0.87438656
   0.39522748  0.59793720  0.99842921
   0.41636786  0.66990536  0.11397442
   0.40774539  0.79612363  0.17740509
   0.40423654  0.89036345  0.28385743
   0.50746515  0.02545240  0.49637110
   0.48631967  0.10032277  0.60434679
   0.47040664  0.20549277  0.69839400
   0.51395726  0.30790307  0.79103350
   0.49438155  0.38867262  0.89023723
   0.51347601  0.51373746  0.97587117
   0.51215217  0.57930204  0.07643476
   0.50942907  0.69056395  0.18439662
   0.49725734  0.80361714  0.28626067
   0.49538809  0.89326501  0.40590528
   0.58350677  0.00012526  0.60138887
   0.60195148  0.12299932  0.69246927
   0.59425971  0.20979771  0.77985062
   0.60695375  0.30216156  0.91449204
   0.60002952  0.40126214  0.99975811
   0.59549391  0.51086724  0.10128211
   0.59832842  0.56202811  0.20778801
   0.59309672  0.69157995  0.31049042
   0.60413603  0.79853173  0.40547675
   0.60240526  0.89114674  0.50702233
   0.68863375  0.00541009  0.68035689
   0.67859527  0.12111858  0.81077293
   0.70153593  0.22113649  0.91164758
   0.69232270  0.30406467  0.01153300
   0.69830519  0.41568929  0.12003549
   0.69932953  0.50603031  0.21415004
   0.69102276  0.60784607  0.31428084
   0.70043761  0.71554478  0.43408282
   0.70415956  0.80611649  0.51993234
   0.69008766  0.90444859  0.60197183
   0.78468207  0.99440501  0.79639949
   0.79527687  0.11626258  0.90728663
   0.80016839  0.19172811  0.01454211
   0.78611361  0.29877530  0.11484807
   0.81322202  0.40550750  0.21967369
   0.79135175  0.52792543  0.29276368
   0.78405378  0.61695257  0.39751607
   0.79323545  0.70606522  0.51755554
   0.80005131  0.79809467  0.61317579
   0.80228245  0.91410989  0.70953510
   0.91434649  0.01449922  0.89077107
   0.92383742  0.09847544  0.01955368
   0.90035730  0.20417302  0.10005400
   0.89882767  0.31395883  0.22002770
   0.90569521  0.42589690  0.31092890
   0.88726160  0.50627282  0.38058765
   0.87299532  0.59015155  0.48154399
   0.90741174  0.70154434  0.60682865
   0.90861953  0.81824149  0.71082787
   0.89306514  0.91159935  0.83023890
   0.08252302  0.09704748  0.01748032
   0.10155045  0.20945189  0.10796344
   0.10004415  0.33482576  0.20130642
   0.11839384  0.40233697  0.30283811
   0.11426103  0.47959168  0.41722798
   0.11099356  0.61008737  0.49267193
   0.09004632  0.71151900  0.58884180
   0.11861372  0.80730913  0.70585644
   0.11449900  0.90260679  0.81722627
   0.09973432  0.98683860  0.89048475
   0.19583857  0.08884039  0.10590199
   0.22184369  0.21066132  0.19427450
   0.20736422  0.29787260  0.31108575
   0.20742315  0.38348064  0.41988057
   0.21275077  0.51381569  0.51177989
   0.21006532  0.60022047  0.61168759
   0.19954287  0.71666972  0.67870592
   0.21685673  0.79559860  0.80667408
   0.18328974  0.90725368  0.90950076
   0.17345239  0.00607263  0.00995990
   0.29861057  0.08252748  0.19692972
   0.29390093  0.20509589  0.28838584
   0.29241457  0.29624704  0.39737350
   0.28354253  0.40036906  0.49762473
   0.29122433  0.48981172  0.60408345
   0.29651282  0.60081644  0.68734037
   0.30660024  0.71094623  0.77704472
   0.30508616  0.79359199  0.92863017
   0.29223435  0.89723473  0.99304078
   0.31348783  0.99262171  0.08246649
   0.40211432  0.09522152  0.28989828
   0.37474261  0.19618257  0.38909959
   0.39536839  0.29494724  0.50070883
   0.40494092  0.39264375  0.60062221
   0.38393016  0.46794412  0.69445937
   0.39848228  0.59558221  0.78229403
   0.37677004  0.69785482  0.89996982
   0.39284483  0.77871903  0.99623392
   0.40205341  0.91003908  0.07715939
   0.41216683  0.00241343  0.18049812
   0.50583276  0.12011036  0.37747676
   0.49268214  0.19007000  0.49694277
   0.50387492  0.29925933  0.59625437
   0.51778382  0.39426040  0.68573880
   0.48730690  0.49589266  0.79890550
   0.50798391  0.60723928  0.88209377
   0.50984980  0.68721162  0.99224746
   0.51686243  0.78895172  0.07423678
   0.50014693  0.90074050  0.17207502
   0.51611982  0.99837541  0.28450400
   0.58770798  0.09880999  0.49150264
   0.58547330  0.18101259  0.58827220
   0.59113889  0.27733409  0.68752319
   0.61061127  0.38994222  0.79887246
   0.60001872  0.49532586  0.88648373
   0.60713832  0.61086543  0.96498826
   0.61257411  0.68403610  0.09387884
   0.59390461  0.78178137  0.19858042
   0.60053392  0.90988132  0.29694481
   0.60296939  0.99845799  0.37993364
   0.68831908  0.10961013  0.59193994
   0.70315996  0.21626203  0.68869274
   0.70878437  0.30449752  0.80237389
   0.70096794  0.39526589  0.88843842
   0.70979977  0.46835193  0.98869346
   0.70372786  0.56884558  0.08528985
   0.68202444  0.68655870  0.20468621
   0.70304120  0.80088283  0.31350647
   0.69423462  0.88712854  0.40350944
   0.69845800  0.00408526  0.51238832
   0.80299052  0.10496901  0.68798162
   0.79843000  0.21119409  0.78554479
   0.79946712  0.30309207  0.91394368
   0.80496948  0.39707013  0.01181828
   0.80816909  0.47348565  0.10757045
   0.79080652  0.61694209  0.20354241
   0.77874124  0.71610358  0.29945468
   0.80593525  0.81602952  0.42163137
   0.78517689  0.90510285  0.51095689
   0.80577516  0.01551628  0.59218811
   0.88153799  0.09365676  0.77629882
   0.89716637  0.18636802  0.90790811
   0.90841126  0.29295176  0.01859748
   0.90700688  0.39540990  0.11242564
   0.87895338  0.50122156  0.21083781
   0.89285093  0.61545285  0.30040970
   0.88056479  0.68349840  0.38962328
   0.89691098  0.80542969  0.50537497
   0.88815705  0.90301583  0.60233416
   0.87077722  0.99589292  0.71560114
   0.02231500  0.09677220  0.90751123
   0.00894920  0.20853714  0.01480404
   0.00346378  0.32703167  0.13263185
   0.99983538  0.41343311  0.22858466
   0.99433922  0.50878706  0.31559158
   0.01054081  0.59659195  0.38882214
   0.98155499  0.68627854  0.48646760
   0.99140076  0.81271531  0.59414079
   0.00535809  0.90109421  0.71006667
   0.99097269  0.99913537  0.79815188
   0.18583097  0.21229872  0.02366014
   0.21243571  0.29106395  0.10354367
   0.21030134  0.41186075  0.20339389
   0.19312504  0.50709647  0.31431503
   0.20153458  0.63212993  0.39294336
   0.21821407  0.73243303  0.49656864
   0.20674284  0.82557349  0.59807558
   0.19105924  0.89528943  0.72490574
   0.20742504  0.01627477  0.80447430
   0.16578849  0.10360438  0.91977338
   0.31818255  0.20033081  0.09478028
   0.32158553  0.32312948  0.20540267
   0.28444471  0.39822747  0.30875000
   0.29373764  0.50689097  0.42075128
   0.31002196  0.62003732  0.49316794
   0.30053524  0.71492428  0.59357187
   0.29880098  0.82703615  0.72178594
   0.30301501  0.91447333  0.82679737
   0.28899833  0.02829283  0.90584989
   0.28435913  0.11435936  0.99675965
   0.41239611  0.21380083  0.19317451
   0.40381145  0.30491914  0.29625541
   0.38072405  0.38683818  0.41064769
   0.39718896  0.50098310  0.50873325
   0.40222863  0.60739364  0.60364253
   0.40039745  0.70518389  0.70524604
   0.39761907  0.80856204  0.80615134
   0.40434753  0.92015562  0.90186227
   0.40794141  0.99885737  0.98923429
   0.40375783  0.09849278  0.09255768
   0.48357576  0.21173647  0.29775970
   0.49067257  0.30287878  0.40263205
   0.50482463  0.39354686  0.46695534
   0.48767081  0.49522142  0.58571041
   0.47474693  0.57601300  0.68507433
   0.48586927  0.70573048  0.79830891
   0.49369356  0.76861316  0.89710030
   0.52132550  0.89399180  0.99135744
   0.50292587  0.99737455  0.07365044
   0.52113033  0.09302933  0.19933401
   0.60368685  0.20519766  0.37644303
   0.59976712  0.30844428  0.48194217
   0.60910167  0.40182104  0.57656509
   0.57898907  0.49344843  0.69037501
   0.58089989  0.57515821  0.79638111
   0.62272020  0.69755239  0.88827713
   0.61106224  0.79006315  0.98900392
   0.58658181  0.88890366  0.10601824
   0.60469114  0.97749843  0.19451748
   0.61412110  0.10893068  0.27778590
   0.68388356  0.20676169  0.50668913
   0.69087539  0.31660724  0.59337517
   0.69768862  0.40031232  0.69560866
   0.69562799  0.49906171  0.79709174
   0.71381447  0.58071862  0.89717824
   0.72510724  0.69101150  0.00331398
   0.68802506  0.78732617  0.09878494
   0.69575705  0.88345607  0.21282344
   0.70461327  0.00210828  0.30810732
   0.70559773  0.10599216  0.40062780
   0.79562007  0.21141208  0.60413527
   0.79625170  0.32376783  0.70484221
   0.81822413  0.40292636  0.80853455
   0.82728425  0.49350736  0.89892250
   0.79388607  0.58417584  0.00168288
   0.78565372  0.69936572  0.11575341
   0.77003175  0.80301698  0.19801075
   0.80101598  0.91254612  0.31848136
   0.80826351  0.00806616  0.41470440
   0.78035791  0.10794035  0.50200103
   0.90414909  0.20332646  0.67819472
   0.88490817  0.29279943  0.80852217
   0.91049823  0.39603751  0.89554361
   0.90550501  0.48341858  0.01041948
   0.88816144  0.58732995  0.11100178
   0.89137876  0.70861621  0.20895043
   0.86950933  0.78652688  0.30462742
   0.89230801  0.89872756  0.41055524
   0.88937609  0.00673483  0.50217730
   0.88848653  0.10747440  0.59422114
   0.99829775  0.19023424  0.78895373
   0.99415354  0.28506362  0.89027692
   0.99566822  0.39185207  0.01482082
   0.98010625  0.48633432  0.11365001
   0.98439894  0.59627683  0.21357073
   0.98808338  0.71143681  0.29888677
   0.97158670  0.79127997  0.37610334
   0.00292841  0.88700121  0.48807442
   0.97168213  0.99879793  0.60119264
   0.99183468  0.09603743  0.69643481
   0.09629101  0.20610272  0.90583864
   0.08633376  0.31613106  0.99440125
   0.10190933  0.40241006  0.10669585
   0.08416804  0.51166869  0.20808767
   0.08840763  0.60763155  0.30288886
   0.08426793  0.71367855  0.40109551
   0.06334600  0.78247003  0.49150902
   0.10407375  0.89656085  0.60135403
   0.09102480  0.00966612  0.70471820
   0.10708584  0.10478061  0.80940510
   0.32130263  0.30583695  0.99596734
   0.31836955  0.42075036  0.08469070
   0.29902797  0.50955036  0.22271976
   0.31278799  0.62637895  0.30688248
   0.33281321  0.71798340  0.41010672
   0.33073037  0.82184850  0.50464196
   0.30140440  0.90514660  0.59761217
   0.31235561  0.00318676  0.71934427
   0.30357491  0.11825446  0.82241647
   0.27294588  0.20649534  0.91700207
   0.40960038  0.31340038  0.10812159
   0.40736425  0.40838443  0.21392335
   0.41452244  0.48353743  0.33105885
   0.40592150  0.61020334  0.39716709
   0.40625563  0.70230297  0.52386837
   0.40991217  0.81136816  0.61501834
   0.39980561  0.90667069  0.72168289
   0.41891852  0.99242482  0.83033782
   0.41184249  0.11830941  0.91065330
   0.40287182  0.19684998  0.99297202
   0.50353381  0.31748433  0.20666029
   0.50338979  0.39453042  0.33457665
   0.51492914  0.51156836  0.41716042
   0.50753573  0.61311011  0.51546416
   0.50322230  0.71423848  0.60807165
   0.50390833  0.81362705  0.72483809
   0.51016760  0.90248303  0.80362014
   0.50776617  0.01971047  0.91995933
   0.50251827  0.12845949  0.01529391
   0.50558558  0.21765696  0.09702958
   0.60737295  0.30587906  0.31897765
   0.61077309  0.39649069  0.39897285
   0.60661860  0.49616986  0.51472876
   0.60770168  0.60045905  0.60581285
   0.57922652  0.68350149  0.72169780
   0.61424685  0.81696410  0.81045322
   0.61565442  0.88510683  0.90248199
   0.59973707  0.00161907  0.99025158
   0.60252848  0.09141391  0.10031128
   0.60661859  0.20773153  0.21429638
   0.73505634  0.28763068  0.39654389
   0.71078613  0.41524714  0.48426935
   0.71332009  0.49164016  0.60264742
   0.69617794  0.58253559  0.70166512
   0.70008575  0.67560866  0.80924523
   0.72263373  0.78256098  0.89264270
   0.70838258  0.89149982  0.00354135
   0.68849218  0.99867420  0.08877434
   0.70714209  0.08854197  0.18633709
   0.71107250  0.19853631  0.30331233
   0.80374521  0.29283346  0.48968700
   0.81573262  0.41250624  0.59267677
   0.82191934  0.48965113  0.71101850
   0.82408935  0.58491210  0.78800136
   0.79980882  0.69498650  0.88819118
   0.79111689  0.79948969  0.00419135
   0.79428004  0.90240798  0.09267781
   0.78782663  0.98271719  0.17917447
   0.79653149  0.08104551  0.27618632
   0.81816672  0.18764979  0.40230938
   0.90237619  0.31464111  0.59738106
   0.91950807  0.39994038  0.70243540
   0.94099385  0.49525502  0.80280301
   0.90216527  0.59361722  0.90381956
   0.89588242  0.69837368  0.98706903
   0.88740957  0.79055778  0.08865835
   0.89582361  0.87602446  0.20371638
   0.90157374  0.98456833  0.29483366
   0.88908554  0.08989879  0.38804404
   0.89727967  0.19270046  0.49601245
   0.01458961  0.29883078  0.69410114
   0.01789848  0.38654094  0.80457357
   0.01605748  0.51307730  0.90316688
   0.97723415  0.60036427  0.00811213
   0.99211862  0.68318592  0.11406352
   0.98073179  0.79589908  0.21730289
   0.98560582  0.86797609  0.29732943
   0.98194263  0.99939423  0.40314875
   0.97293075  0.09801992  0.49547411
   0.98411469  0.19861613  0.59483619
   0.09362909  0.28967708  0.79983159
   0.09832540  0.40199221  0.89506854
   0.10708533  0.49766459  0.02594769
   0.11120671  0.58578762  0.10495189
   0.08382652  0.69506801  0.22324538
   0.11725527  0.78902696  0.29254718
   0.10247667  0.88583230  0.38942799
   0.07244134  0.00101589  0.49356884
   0.08968194  0.10323251  0.59856865
   0.11535637  0.19383875  0.71397010
   0.21102269  0.30855678  0.89130902
   0.20958601  0.39071711  0.00805707
   0.22379029  0.51204260  0.12478183
   0.21599768  0.60357715  0.21472281
   0.20087331  0.70513718  0.31103427
   0.22990996  0.79077396  0.39760468
   0.18848840  0.90217232  0.47138831
   0.19392636  0.98910942  0.60080718
   0.21629043  0.10089778  0.70731993
   0.19321350  0.19796073  0.80596532
   0.40553938  0.42900412  0.96986590
   0.40063754  0.50030392  0.10091476
   0.41509432  0.57903720  0.20930681
   0.43051519  0.70103560  0.28277581
   0.39538599  0.79974373  0.39751492
   0.42282664  0.92056998  0.49664218
   0.41742695  0.00093846  0.60661572
   0.40212223  0.10150014  0.72922398
   0.41654704  0.20827370  0.80895509
   0.39298779  0.29975251  0.88700946
   0.51300090  0.41303515  0.08089049
   0.49817426  0.47459708  0.21273447
   0.50635032  0.58468287  0.29707473
   0.51905659  0.69552937  0.40717509
   0.50517410  0.79408396  0.50493301
   0.51450940  0.90183293  0.58972562
   0.48647226  0.00172625  0.70553704
   0.50673948  0.11165877  0.79142985
   0.51479599  0.22721404  0.89752516
   0.48880496  0.31671145  0.01811136
   0.59692677  0.41745890  0.21500830
   0.61893718  0.49744436  0.31600761
   0.61682955  0.60890594  0.41806232
   0.60457201  0.71702094  0.52361799
   0.61673491  0.80088462  0.61190023
   0.59459600  0.93131436  0.68529914
   0.58410047  0.00844655  0.79479600
   0.59164383  0.11677983  0.91012108
   0.58460883  0.20209154  0.01774186
   0.59542065  0.30391726  0.10276899
   0.70944046  0.38857081  0.29166382
   0.71443651  0.50579642  0.40836965
   0.70879024  0.59309396  0.53282128
   0.71746253  0.69831701  0.62101552
   0.70707452  0.81528306  0.70672550
   0.69477555  0.91416167  0.78933081
   0.69357135  0.01350525  0.90890999
   0.70237654  0.11584996  0.98695578
   0.69818604  0.20015539  0.10680658
   0.71024379  0.29650849  0.19675255
   0.78998723  0.41733099  0.40845653
   0.79726905  0.51049172  0.50428037
   0.81881392  0.59148505  0.61443487
   0.82009733  0.70291181  0.72369905
   0.79367173  0.79946112  0.80346595
   0.80696760  0.89912996  0.92705269
   0.81361772  0.00945337  0.00004694
   0.80665385  0.09854761  0.10510731
   0.82497677  0.20282105  0.19083633
   0.81746383  0.29942949  0.29225337
   0.88248199  0.40997891  0.47914085
   0.90155449  0.49035749  0.60463113
   0.93641404  0.59378881  0.70785315
   0.91188628  0.70543372  0.80096388
   0.89620256  0.80134907  0.90429101
   0.90102863  0.90707079  0.99144390
   0.89050927  0.01750096  0.11125193
   0.89658001  0.06712136  0.18718220
   0.90061077  0.16934600  0.29409448
   0.89089217  0.30970433  0.38235991
   0.99794085  0.40950484  0.57571181
   0.02321460  0.48345902  0.69052145
   0.00496301  0.60773081  0.78988820
   0.00939706  0.69539309  0.90361954
   0.98710215  0.78342228  0.01948996
   0.99073720  0.89450078  0.09411715
   0.97842284  0.96804431  0.18139233
   0.97869014  0.08869746  0.28315771
   0.99404835  0.21653603  0.39393763
   0.99095453  0.29053380  0.47247784
   0.11813216  0.39423568  0.70413901
   0.08861706  0.50808636  0.80079974
   0.10472529  0.59742160  0.91050098
   0.08741299  0.69057357  0.01329214
   0.08385456  0.79382350  0.11603351
   0.09221933  0.87611363  0.20684142
   0.06790586  0.97710603  0.27324821
   0.07483106  0.09025094  0.37482412
   0.09840781  0.18719087  0.49627838
   0.07681076  0.28903667  0.58710765
   0.18576320  0.37753545  0.78824217
   0.18418392  0.48640155  0.88048751
   0.20723594  0.60420504  0.98591941
   0.18778264  0.70161815  0.09142921
   0.20187554  0.78796439  0.18990014
   0.20862130  0.89863934  0.31454383
   0.19195007  0.01490099  0.36611199
   0.18135879  0.08291155  0.47091383
   0.22111791  0.17558926  0.60393856
   0.19510075  0.28313346  0.68714374
   0.28183362  0.41821997  0.89376809
   0.28951006  0.50577069  0.98361195
   0.30303814  0.60761263  0.10662823
   0.31403825  0.69902619  0.20089197
   0.31019510  0.80035002  0.28055575
   0.31334643  0.88545284  0.39197935
   0.28756191  0.98818674  0.48553431
   0.31327102  0.07159064  0.58240477
   0.31353720  0.19077066  0.69509814
   0.29822400  0.28493929  0.78587833
