 504 504   0   0
  0.2235424E+02  0.2214114E-08  0.2191405E-08  0.2322030E-08  0.5000000E-15
  1.000000000000000E-004
  CAR 
 Li                                      
      2.92193755     -3.53849077  301      0.14030471      1.00000000
     -3.538  0.0000E+00  0.0000E+00
     -3.517  0.0000E+00  0.0000E+00
     -3.495  0.0000E+00  0.0000E+00
     -3.474  0.0000E+00  0.0000E+00
     -3.452  0.0000E+00  0.0000E+00
     -3.431  0.0000E+00  0.0000E+00
     -3.409  0.3609E-13  0.7772E-15
     -3.388  0.8929E-10  0.1924E-11
     -3.366  0.7856E-07  0.1694E-08
     -3.345  0.2525E-04  0.5454E-06
     -3.323  0.2986E-02  0.6484E-04
     -3.302  0.1311E+00  0.2889E-02
     -3.280  0.2165E+01  0.4951E-01
     -3.259  0.1361E+02  0.3426E+00
     -3.237  0.3298E+02  0.1053E+01
     -3.215  0.3102E+02  0.1721E+01
     -3.194  0.1174E+02  0.1974E+01
     -3.172  0.7239E+01  0.2130E+01
     -3.151  0.3146E+02  0.2807E+01
     -3.129  0.7948E+02  0.4519E+01
     -3.108  0.9516E+02  0.6568E+01
     -3.086  0.5279E+02  0.7704E+01
     -3.065  0.1633E+02  0.8056E+01
     -3.043  0.2568E+02  0.8609E+01
     -3.022  0.7006E+02  0.1012E+02
     -3.000  0.9374E+02  0.1214E+02
     -2.979  0.6365E+02  0.1351E+02
     -2.957  0.3003E+02  0.1415E+02
     -2.936  0.3762E+02  0.1496E+02
     -2.914  0.6829E+02  0.1643E+02
     -2.892  0.9524E+02  0.1849E+02
     -2.871  0.9581E+02  0.2055E+02
     -2.849  0.6239E+02  0.2189E+02
     -2.828  0.5282E+02  0.2303E+02
     -2.806  0.8480E+02  0.2486E+02
     -2.785  0.1196E+03  0.2743E+02
     -2.763  0.1349E+03  0.3034E+02
     -2.742  0.1060E+03  0.3262E+02
     -2.720  0.5815E+02  0.3387E+02
     -2.699  0.4352E+02  0.3481E+02
     -2.677  0.5981E+02  0.3610E+02
     -2.656  0.7494E+02  0.3771E+02
     -2.634  0.7672E+02  0.3936E+02
     -2.612  0.7076E+02  0.4089E+02
     -2.591  0.7187E+02  0.4243E+02
     -2.569  0.9063E+02  0.4439E+02
     -2.548  0.1099E+03  0.4675E+02
     -2.526  0.1153E+03  0.4924E+02
     -2.505  0.1181E+03  0.5178E+02
     -2.483  0.1247E+03  0.5446E+02
     -2.462  0.1274E+03  0.5721E+02
     -2.440  0.1299E+03  0.6001E+02
     -2.419  0.1378E+03  0.6297E+02
     -2.397  0.1422E+03  0.6604E+02
     -2.376  0.1260E+03  0.6875E+02
     -2.354  0.9084E+02  0.7071E+02
     -2.333  0.6367E+02  0.7208E+02
     -2.311  0.6749E+02  0.7353E+02
     -2.289  0.7573E+02  0.7516E+02
     -2.268  0.7163E+02  0.7671E+02
     -2.246  0.9921E+02  0.7884E+02
     -2.225  0.1268E+03  0.8157E+02
     -2.203  0.1283E+03  0.8433E+02
     -2.182  0.1327E+03  0.8719E+02
     -2.160  0.1349E+03  0.9010E+02
     -2.139  0.1194E+03  0.9267E+02
     -2.117  0.1174E+03  0.9520E+02
     -2.096  0.1429E+03  0.9828E+02
     -2.074  0.1710E+03  0.1020E+03
     -2.053  0.1766E+03  0.1058E+03
     -2.031  0.1521E+03  0.1090E+03
     -2.010  0.1003E+03  0.1112E+03
     -1.988  0.6281E+02  0.1125E+03
     -1.966  0.8307E+02  0.1143E+03
     -1.945  0.1309E+03  0.1172E+03
     -1.923  0.1501E+03  0.1204E+03
     -1.902  0.1425E+03  0.1235E+03
     -1.880  0.1443E+03  0.1266E+03
     -1.859  0.1531E+03  0.1299E+03
     -1.837  0.1547E+03  0.1332E+03
     -1.816  0.1547E+03  0.1365E+03
     -1.794  0.1562E+03  0.1399E+03
     -1.773  0.1509E+03  0.1431E+03
     -1.751  0.1427E+03  0.1462E+03
     -1.730  0.1400E+03  0.1492E+03
     -1.708  0.1564E+03  0.1526E+03
     -1.687  0.1655E+03  0.1562E+03
     -1.665  0.1422E+03  0.1592E+03
     -1.643  0.1162E+03  0.1617E+03
     -1.622  0.1095E+03  0.1641E+03
     -1.600  0.1099E+03  0.1664E+03
     -1.579  0.1123E+03  0.1689E+03
     -1.557  0.1251E+03  0.1716E+03
     -1.536  0.1413E+03  0.1746E+03
     -1.514  0.1481E+03  0.1778E+03
     -1.493  0.1440E+03  0.1809E+03
     -1.471  0.1446E+03  0.1840E+03
     -1.450  0.1577E+03  0.1874E+03
     -1.428  0.1766E+03  0.1912E+03
     -1.407  0.1856E+03  0.1952E+03
     -1.385  0.1932E+03  0.1994E+03
     -1.363  0.2115E+03  0.2039E+03
     -1.342  0.2253E+03  0.2088E+03
     -1.320  0.2151E+03  0.2134E+03
     -1.299  0.1943E+03  0.2176E+03
     -1.277  0.1743E+03  0.2213E+03
     -1.256  0.1583E+03  0.2247E+03
     -1.234  0.1500E+03  0.2280E+03
     -1.213  0.1327E+03  0.2308E+03
     -1.191  0.1212E+03  0.2334E+03
     -1.170  0.1360E+03  0.2364E+03
     -1.148  0.1572E+03  0.2398E+03
     -1.127  0.1700E+03  0.2434E+03
     -1.105  0.1709E+03  0.2471E+03
     -1.084  0.1710E+03  0.2508E+03
     -1.062  0.1832E+03  0.2547E+03
     -1.040  0.1958E+03  0.2589E+03
     -1.019  0.1911E+03  0.2631E+03
     -0.997  0.1688E+03  0.2667E+03
     -0.976  0.1457E+03  0.2698E+03
     -0.954  0.1408E+03  0.2729E+03
     -0.933  0.1563E+03  0.2762E+03
     -0.911  0.1723E+03  0.2799E+03
     -0.890  0.1767E+03  0.2837E+03
     -0.868  0.1803E+03  0.2876E+03
     -0.847  0.1828E+03  0.2916E+03
     -0.825  0.1929E+03  0.2957E+03
     -0.804  0.2082E+03  0.3002E+03
     -0.782  0.2146E+03  0.3048E+03
     -0.761  0.2137E+03  0.3094E+03
     -0.739  0.2070E+03  0.3139E+03
     -0.717  0.2088E+03  0.3184E+03
     -0.696  0.2229E+03  0.3232E+03
     -0.674  0.2354E+03  0.3283E+03
     -0.653  0.2331E+03  0.3333E+03
     -0.631  0.2085E+03  0.3378E+03
     -0.610  0.1797E+03  0.3416E+03
     -0.588  0.1699E+03  0.3453E+03
     -0.567  0.1752E+03  0.3491E+03
     -0.545  0.1781E+03  0.3529E+03
     -0.524  0.1777E+03  0.3567E+03
     -0.502  0.1867E+03  0.3607E+03
     -0.481  0.1926E+03  0.3649E+03
     -0.459  0.1933E+03  0.3691E+03
     -0.437  0.1995E+03  0.3734E+03
     -0.416  0.2056E+03  0.3778E+03
     -0.394  0.2073E+03  0.3822E+03
     -0.373  0.2154E+03  0.3869E+03
     -0.351  0.2319E+03  0.3919E+03
     -0.330  0.2473E+03  0.3972E+03
     -0.308  0.2551E+03  0.4027E+03
     -0.287  0.2527E+03  0.4081E+03
     -0.265  0.2350E+03  0.4132E+03
     -0.244  0.2210E+03  0.4180E+03
     -0.222  0.2175E+03  0.4226E+03
     -0.201  0.2158E+03  0.4273E+03
     -0.179  0.2119E+03  0.4319E+03
     -0.158  0.2096E+03  0.4364E+03
     -0.136  0.2068E+03  0.4408E+03
     -0.114  0.2037E+03  0.4452E+03
     -0.093  0.2036E+03  0.4496E+03
     -0.071  0.2053E+03  0.4540E+03
     -0.050  0.2041E+03  0.4584E+03
     -0.028  0.2098E+03  0.4629E+03
     -0.007  0.2257E+03  0.4678E+03
      0.015  0.2251E+03  0.4726E+03
      0.036  0.2252E+03  0.4775E+03
      0.058  0.2423E+03  0.4827E+03
      0.079  0.2538E+03  0.4882E+03
      0.101  0.2608E+03  0.4938E+03
      0.122  0.2595E+03  0.4994E+03
      0.144  0.2596E+03  0.5050E+03
      0.165  0.2707E+03  0.5108E+03
      0.187  0.2771E+03  0.5168E+03
      0.209  0.2843E+03  0.5229E+03
      0.230  0.2875E+03  0.5291E+03
      0.252  0.2815E+03  0.5351E+03
      0.273  0.2741E+03  0.5410E+03
      0.295  0.2640E+03  0.5467E+03
      0.316  0.2573E+03  0.5523E+03
      0.338  0.2589E+03  0.5578E+03
      0.359  0.2672E+03  0.5636E+03
      0.381  0.2654E+03  0.5693E+03
      0.402  0.2507E+03  0.5747E+03
      0.424  0.2357E+03  0.5798E+03
      0.445  0.2244E+03  0.5846E+03
      0.467  0.2207E+03  0.5894E+03
      0.489  0.2228E+03  0.5942E+03
      0.510  0.2188E+03  0.5989E+03
      0.532  0.2145E+03  0.6035E+03
      0.553  0.2136E+03  0.6081E+03
      0.575  0.2056E+03  0.6125E+03
      0.596  0.2104E+03  0.6171E+03
      0.618  0.2263E+03  0.6219E+03
      0.639  0.2261E+03  0.6268E+03
      0.661  0.2151E+03  0.6314E+03
      0.682  0.2131E+03  0.6360E+03
      0.704  0.2203E+03  0.6408E+03
      0.725  0.2359E+03  0.6458E+03
      0.747  0.2447E+03  0.6511E+03
      0.768  0.2495E+03  0.6565E+03
      0.790  0.2544E+03  0.6620E+03
      0.812  0.2527E+03  0.6674E+03
      0.833  0.2481E+03  0.6727E+03
      0.855  0.2462E+03  0.6781E+03
      0.876  0.2404E+03  0.6832E+03
      0.898  0.2331E+03  0.6882E+03
      0.919  0.2323E+03  0.6933E+03
      0.941  0.2340E+03  0.6983E+03
      0.962  0.2292E+03  0.7032E+03
      0.984  0.2255E+03  0.7081E+03
      1.005  0.2266E+03  0.7130E+03
      1.027  0.2206E+03  0.7177E+03
      1.048  0.2193E+03  0.7224E+03
      1.070  0.2307E+03  0.7274E+03
      1.091  0.2322E+03  0.7324E+03
      1.113  0.2201E+03  0.7371E+03
      1.135  0.2130E+03  0.7417E+03
      1.156  0.2148E+03  0.7464E+03
      1.178  0.2159E+03  0.7510E+03
      1.199  0.2160E+03  0.7557E+03
      1.221  0.2152E+03  0.7603E+03
      1.242  0.2230E+03  0.7651E+03
      1.264  0.2352E+03  0.7702E+03
      1.285  0.2364E+03  0.7752E+03
      1.307  0.2345E+03  0.7803E+03
      1.328  0.2372E+03  0.7854E+03
      1.350  0.2376E+03  0.7905E+03
      1.371  0.2267E+03  0.7954E+03
      1.393  0.2129E+03  0.8000E+03
      1.415  0.2209E+03  0.8047E+03
      1.436  0.2350E+03  0.8098E+03
      1.458  0.2308E+03  0.8148E+03
      1.479  0.2226E+03  0.8196E+03
      1.501  0.2181E+03  0.8243E+03
      1.522  0.2143E+03  0.8289E+03
      1.544  0.2122E+03  0.8334E+03
      1.565  0.2052E+03  0.8379E+03
      1.587  0.1952E+03  0.8421E+03
      1.608  0.1958E+03  0.8463E+03
      1.630  0.2025E+03  0.8506E+03
      1.651  0.2052E+03  0.8551E+03
      1.673  0.2057E+03  0.8595E+03
      1.694  0.2032E+03  0.8639E+03
      1.716  0.1934E+03  0.8680E+03
      1.738  0.1850E+03  0.8720E+03
      1.759  0.1830E+03  0.8760E+03
      1.781  0.1907E+03  0.8801E+03
      1.802  0.2017E+03  0.8844E+03
      1.824  0.2040E+03  0.8888E+03
      1.845  0.1928E+03  0.8930E+03
      1.867  0.1818E+03  0.8969E+03
      1.888  0.1743E+03  0.9006E+03
      1.910  0.1630E+03  0.9041E+03
      1.931  0.1565E+03  0.9075E+03
      1.953  0.1522E+03  0.9108E+03
      1.974  0.1536E+03  0.9141E+03
      1.996  0.1628E+03  0.9176E+03
      2.017  0.1685E+03  0.9212E+03
      2.039  0.1661E+03  0.9248E+03
      2.061  0.1638E+03  0.9283E+03
      2.082  0.1667E+03  0.9319E+03
      2.104  0.1640E+03  0.9355E+03
      2.125  0.1559E+03  0.9388E+03
      2.147  0.1544E+03  0.9421E+03
      2.168  0.1543E+03  0.9455E+03
      2.190  0.1500E+03  0.9487E+03
      2.211  0.1568E+03  0.9521E+03
      2.233  0.1660E+03  0.9556E+03
      2.254  0.1603E+03  0.9591E+03
      2.276  0.1571E+03  0.9625E+03
      2.297  0.1588E+03  0.9659E+03
      2.319  0.1609E+03  0.9694E+03
      2.340  0.1582E+03  0.9728E+03
      2.362  0.1504E+03  0.9760E+03
      2.384  0.1427E+03  0.9791E+03
      2.405  0.1369E+03  0.9820E+03
      2.427  0.1390E+03  0.9850E+03
      2.448  0.1379E+03  0.9880E+03
      2.470  0.1274E+03  0.9907E+03
      2.491  0.1228E+03  0.9934E+03
      2.513  0.1227E+03  0.9960E+03
      2.534  0.1252E+03  0.9987E+03
      2.556  0.1307E+03  0.1002E+04
      2.577  0.1302E+03  0.1004E+04
      2.599  0.1185E+03  0.1007E+04
      2.620  0.8800E+02  0.1009E+04
      2.642  0.4361E+02  0.1010E+04
      2.664  0.1174E+02  0.1010E+04
      2.685  0.1459E+01  0.1010E+04
      2.707  0.7556E-01  0.1010E+04
      2.728  0.1538E-02  0.1010E+04
      2.750  0.1192E-04  0.1010E+04
      2.771  0.3452E-07  0.1010E+04
      2.793  0.3689E-10  0.1010E+04
      2.814  0.1547E-13  0.1010E+04
      2.836  0.0000E+00  0.1010E+04
      2.857  0.0000E+00  0.1010E+04
      2.879  0.0000E+00  0.1010E+04
      2.900  0.0000E+00  0.1010E+04
      2.922  0.0000E+00  0.1010E+04
