       N       E                     dE             d eps       ncg     rms          rms(c)
DAV:   1    -0.288339994252E+03   -0.28834E+03   -0.11904E+05  4040   0.647E+02
DAV:   2    -0.870876266264E+03   -0.58254E+03   -0.53214E+03  4644   0.650E+01
DAV:   3    -0.914489470389E+03   -0.43613E+02   -0.40026E+02  5280   0.141E+01
DAV:   4    -0.916037027476E+03   -0.15476E+01   -0.15243E+01  4784   0.289E+00
DAV:   5    -0.916074953158E+03   -0.37926E-01   -0.37850E-01  4968   0.474E-01    0.111E+01
DAV:   6    -0.910560990052E+03    0.55140E+01   -0.15262E+01  4840   0.540E+00    0.899E+00
DAV:   7    -0.900929587392E+03    0.96314E+01   -0.13369E+01  5032   0.519E+00    0.572E+00
DAV:   8    -0.897583885791E+03    0.33457E+01   -0.82417E+00  4816   0.295E+00    0.338E+00
DAV:   9    -0.897030315239E+03    0.55357E+00   -0.41641E+00  4736   0.207E+00    0.243E+00
DAV:  10    -0.896389540512E+03    0.64077E+00   -0.19638E+00  4736   0.135E+00    0.129E+00
DAV:  11    -0.896320239335E+03    0.69301E-01   -0.60058E-01  4488   0.620E-01    0.740E-01
DAV:  12    -0.896329439477E+03   -0.92001E-02   -0.14102E-01  5048   0.416E-01    0.647E-01
DAV:  13    -0.896289146904E+03    0.40293E-01   -0.58780E-02  4872   0.270E-01    0.293E-01
DAV:  14    -0.896290945017E+03   -0.17981E-02   -0.22937E-02  4736   0.155E-01    0.218E-01
DAV:  15    -0.896288093839E+03    0.28512E-02   -0.12012E-02  4848   0.122E-01    0.143E-01
DAV:  16    -0.896286362604E+03    0.17312E-02   -0.37764E-03  4752   0.671E-02    0.712E-02
DAV:  17    -0.896286500926E+03   -0.13832E-03   -0.13002E-03  4776   0.420E-02    0.618E-02
DAV:  18    -0.896286045127E+03    0.45580E-03   -0.74416E-04  4760   0.303E-02    0.277E-02
DAV:  19    -0.896286012491E+03    0.32636E-04   -0.26266E-04  4520   0.146E-02    0.151E-02
DAV:  20    -0.896285998348E+03    0.14143E-04   -0.79463E-05  4464   0.842E-03    0.868E-03
DAV:  21    -0.896285999372E+03   -0.10241E-05   -0.16436E-05  3256   0.525E-03
   1 F= -.89628600E+03 E0= -.89622690E+03  d E =-.118198E+00
