Li                                      
           1
   -11.070570   19.174790    0.000000
   -18.978120  -10.957023    0.000000
     0.000000    0.000000   23.220300
   Li
   504
Direct configuration=     1
   0.99453525  0.01350442  0.97415414
   0.90897017  0.05226782  0.67511006
   0.82449813  0.09524926  0.32676565
   0.79915551  0.11540560  0.01471979
   0.71814325  0.16375632  0.68156153
   0.63193246  0.24975602  0.34982440
   0.59283642  0.22455070  0.01472084
   0.48713443  0.26182556  0.64619406
   0.43295090  0.34080984  0.34601585
   0.35699459  0.37578490  0.00250828
   0.26999121  0.41806996  0.66863798
   0.18370503  0.45047796  0.33454789
   0.07096896  0.04763085  0.64344350
   0.02840771  0.05447480  0.33134889
   0.92486867  0.14883594  0.99841201
   0.84291282  0.18002548  0.66656660
   0.77047287  0.22052432  0.31751570
   0.71870680  0.22913592  0.02281146
   0.62064808  0.28413536  0.67117981
   0.55050785  0.34705112  0.35384890
   0.48375041  0.38412141  0.03299434
   0.41733138  0.40809434  0.68199031
   0.34811566  0.47206702  0.33348842
   0.30726116  0.50757722  0.98881888
   0.15804806  0.10761170  0.32702779
   0.07913227  0.12540250  0.99570601
   0.97272087  0.15882369  0.66276981
   0.91731947  0.20935711  0.32513967
   0.84304329  0.23759192  0.02658156
   0.77118883  0.29866299  0.68680269
   0.70885492  0.36776119  0.35495372
   0.61291177  0.36037876  0.99301288
   0.55933502  0.39184487  0.67694031
   0.49425421  0.45535425  0.34458107
   0.45323111  0.51587583  0.97302002
   0.36315929  0.53983947  0.65581261
   0.21782365  0.12474819  0.01423194
   0.12987566  0.15619912  0.64706505
   0.06324759  0.19567661  0.32814016
   0.01073765  0.24846921  0.00835495
   0.92105351  0.30158692  0.65055907
   0.83583415  0.34436082  0.33374361
   0.74507633  0.38023252  0.99796226
   0.70435811  0.43065804  0.69414461
   0.63173868  0.48337626  0.34734129
   0.58033031  0.50268411  0.99943967
   0.50749082  0.51335482  0.67142985
   0.42146312  0.61118874  0.32985164
   0.27854612  0.15819524  0.67870811
   0.19384992  0.21260716  0.31509838
   0.11789955  0.26071497  0.98854349
   0.06364692  0.28950480  0.66576629
   0.97000604  0.32296970  0.32694726
   0.93271263  0.36859999  0.00150564
   0.85351047  0.43597706  0.67228573
   0.80651732  0.48022754  0.33804040
   0.69168038  0.53190128  0.01570202
   0.64286380  0.52325782  0.68312645
   0.57480833  0.60980855  0.34650216
   0.52669875  0.61907860  0.97449647
   0.35979393  0.21727902  0.32581942
   0.28971138  0.23953915  0.98539114
   0.20932954  0.30994171  0.66587848
   0.10548320  0.33283172  0.34189074
   0.06592581  0.36439048  0.97398253
   0.00628160  0.42426253  0.67225918
   0.93389189  0.44706739  0.32967563
   0.84834976  0.50328603  0.00152037
   0.79640691  0.56739980  0.69425000
   0.71362955  0.58848081  0.33124349
   0.63123986  0.63720845  0.01267443
   0.56825242  0.66419407  0.66766999
   0.46093087  0.24161772  0.02223191
   0.34253484  0.27385974  0.66485292
   0.27828878  0.33810675  0.32054301
   0.19900598  0.35960135  0.98689292
   0.12515406  0.42452525  0.67480921
   0.06382747  0.46165678  0.32914884
   0.99757653  0.49768990  0.00759613
   0.95583508  0.55156869  0.68450203
   0.85007443  0.58645117  0.33645261
   0.76614773  0.62839739  0.00084253
   0.71728659  0.67786382  0.67572037
   0.66009649  0.74668006  0.32595460
   0.14822631  0.48422895  0.00271972
   0.07579399  0.53315448  0.67364769
   0.99936789  0.59635533  0.31520241
   0.91560523  0.59433471  0.02829089
   0.84763262  0.67330558  0.68518014
   0.80794636  0.68052428  0.36235100
   0.72283063  0.77112782  0.01083716
   0.21298772  0.52314993  0.65209031
   0.14780520  0.57791159  0.31316763
   0.06247154  0.63687257  0.01142045
   0.00685952  0.65548378  0.66964458
   0.93161542  0.71749027  0.32064003
   0.84240598  0.75146357  0.98844181
   0.80489327  0.78227497  0.68372240
   0.28174316  0.55060321  0.33733558
   0.20898784  0.63161597  0.99920013
   0.12917087  0.68436860  0.66293558
   0.09512096  0.71507328  0.28998599
   0.99501655  0.72367562  0.01963884
   0.94223471  0.81120778  0.67786137
   0.87128686  0.81937457  0.32800555
   0.36066680  0.64581878  0.98810498
   0.25284535  0.67724295  0.67084545
   0.23408176  0.73700442  0.33450639
   0.12467181  0.74905705  0.99463429
   0.10189448  0.81177095  0.64356686
   0.00259098  0.84900277  0.34242875
   0.94552109  0.88108685  0.99374364
   0.43220620  0.65168950  0.67748862
   0.36586720  0.69885494  0.32258623
   0.28252226  0.74383993  0.99093256
   0.20485384  0.80221279  0.65956573
   0.12963207  0.86703383  0.32400397
   0.04034695  0.87803531  0.98524445
   0.99419935  0.92718987  0.66135019
   0.93258832  0.95417408  0.33327441
   0.87674754  0.00709766  0.00215326
   0.78519638  0.02332823  0.66963558
   0.70455939  0.10513313  0.33908918
   0.64927178  0.13091459  0.01533847
   0.56222692  0.14654466  0.70746831
   0.48368709  0.20588077  0.31833921
   0.08534722  0.96121987  0.32868872
   0.13642540  0.97458466  0.99847433
   0.20654685  0.03774035  0.66310294
   0.30135038  0.08971022  0.32327944
   0.36832551  0.10250690  0.98354174
   0.41472280  0.15893581  0.66939382
   0.87010543  0.92252144  0.66659724
   0.79430054  0.96562517  0.33764882
   0.71480489  0.98671396  0.97901708
   0.65058719  0.02879029  0.68577350
   0.58990789  0.09418280  0.35005339
   0.51375031  0.09490389  0.97882478
   0.13356800  0.92740160  0.64486918
   0.23821702  0.98428723  0.31321159
   0.28453243  0.98741347  0.99240918
   0.36703727  0.01831431  0.66477195
   0.42830427  0.09154114  0.34268931
   0.79004517  0.89930676  0.99883800
   0.72865615  0.89816314  0.69345820
   0.65255366  0.93912717  0.34474659
   0.57138739  0.00630971  0.00234800
   0.51336297  0.03224094  0.67580800
   0.21764280  0.85119333  0.01279557
   0.30073603  0.90461183  0.67247089
   0.38719792  0.96423564  0.32979423
   0.43192051  0.98104354  0.99155138
   0.73930681  0.80415611  0.34390172
   0.65119783  0.87044886  0.98292489
   0.57929146  0.88730809  0.66487120
   0.54652532  0.97396822  0.33082574
   0.28043163  0.85402493  0.31778240
   0.34792202  0.88790873  0.99609499
   0.45666149  0.90633718  0.65091427
   0.64078122  0.76008448  0.66482175
   0.60049594  0.84933396  0.35228918
   0.50117525  0.86308110  0.00178717
   0.35913536  0.78724059  0.64829383
   0.42297212  0.84195337  0.34474682
   0.59567282  0.74641463  0.99428560
   0.48325024  0.79148152  0.66907679
   0.43080926  0.76912032  0.01118615
   0.51643693  0.73684942  0.30902995
   0.99706784  0.01301286  0.77596943
   0.90188694  0.05747594  0.44028882
   0.88956228  0.08557363  0.09293336
   0.77917205  0.11095671  0.77831705
   0.66360586  0.16326912  0.43845890
   0.65223094  0.21936055  0.14168927
   0.58876318  0.25949819  0.77967329
   0.49751916  0.27438005  0.44338018
   0.42652780  0.35840313  0.10701948
   0.34372022  0.38142797  0.77911245
   0.30096503  0.45278219  0.46374054
   0.22873837  0.44760725  0.09493398
   0.06252929  0.03443901  0.44161089
   0.98726173  0.06583526  0.09479455
   0.89727319  0.11728314  0.76919418
   0.81133499  0.14490977  0.44736587
   0.78686975  0.19103024  0.13233894
   0.71701374  0.25051928  0.79407414
   0.61670141  0.30351267  0.45228118
   0.57710801  0.31350521  0.10771868
   0.49027994  0.37293809  0.80431369
   0.41912570  0.41805884  0.44089223
   0.37383566  0.47400437  0.10438492
   0.28033900  0.49431152  0.76999051
   0.14342230  0.08922207  0.11827636
   0.05671668  0.12413259  0.75109756
   0.99004769  0.17845312  0.43775869
   0.93098438  0.21709954  0.10498521
   0.84605067  0.26561216  0.77716765
   0.76971610  0.28626061  0.46059937
   0.68724488  0.32876095  0.11447605
   0.67155282  0.37034716  0.81713573
   0.56468278  0.43084268  0.45287567
   0.49963630  0.46608166  0.09900117
   0.40212290  0.50222469  0.78027738
   0.35519954  0.55365086  0.43832794
   0.18663789  0.12031745  0.80068122
   0.12716409  0.15231687  0.45603895
   0.06093057  0.20755161  0.10759725
   0.97499251  0.24683164  0.76908732
   0.91123291  0.29442916  0.44612546
   0.82759225  0.32539191  0.09242543
   0.79232172  0.38559548  0.80166245
   0.72520868  0.43318202  0.45953414
   0.63651150  0.42993586  0.11977783
   0.59215123  0.47039824  0.78086714
   0.49250877  0.55536890  0.45257366
   0.48461496  0.58118881  0.08980221
   0.26668237  0.16840027  0.44514819
   0.21459347  0.22789112  0.10631474
   0.13776968  0.23382801  0.76744852
   0.05500299  0.29633677  0.43612867
   0.00773122  0.33502675  0.12287697
   0.93034436  0.36703911  0.78984394
   0.85135579  0.42033215  0.46342348
   0.77079444  0.46111993  0.12502125
   0.72055172  0.50539788  0.78003683
   0.63618706  0.54318082  0.45934459
   0.57446710  0.58884891  0.11235523
   0.49440605  0.59673836  0.76728151
   0.37200588  0.20358070  0.08456544
   0.29187177  0.23916680  0.79670569
   0.17442839  0.31602047  0.46654428
   0.13443349  0.33242417  0.12079401
   0.05396978  0.38227896  0.78310228
   0.99842969  0.40522076  0.46079194
   0.93011515  0.48007135  0.11642769
   0.87906991  0.51861807  0.77836858
   0.79153117  0.54899916  0.45909750
   0.71103595  0.59045825  0.11796531
   0.63176091  0.63213570  0.77436511
   0.56469797  0.67708638  0.45143077
   0.43188418  0.23421361  0.78300287
   0.33989230  0.31058617  0.42866609
   0.28733907  0.34060607  0.08122660
   0.18610383  0.37337365  0.77683591
   0.13910122  0.41636689  0.45873111
   0.07372292  0.43734124  0.11867507
   0.00528492  0.50452989  0.79014764
   0.94283330  0.54021779  0.43902371
   0.83544938  0.57099053  0.12628957
   0.76683016  0.61634088  0.81017854
   0.71028620  0.67333555  0.45122925
   0.64647604  0.71359957  0.12427672
   0.14051252  0.48448047  0.78223570
   0.07087073  0.55941162  0.44158704
   0.99414700  0.59138621  0.10061820
   0.93418241  0.62656727  0.78906557
   0.86784318  0.65753410  0.44837149
   0.77453021  0.70022588  0.11213179
   0.72273112  0.75846663  0.76730673
   0.21038810  0.53548223  0.44414758
   0.13755589  0.58195984  0.09792242
   0.08185158  0.61437957  0.79747238
   0.96792170  0.67788075  0.43678331
   0.93126051  0.70423042  0.11412009
   0.86313607  0.76038476  0.78245186
   0.76428675  0.79370975  0.42797544
   0.30560439  0.55678002  0.09357897
   0.18192474  0.61719582  0.76950955
   0.13298142  0.69445974  0.41771722
   0.08180491  0.70751674  0.11387214
   0.02503362  0.76898759  0.74754095
   0.91612222  0.78387905  0.46227900
   0.88865931  0.82107066  0.09524123
   0.33667635  0.63826187  0.76568329
   0.26165240  0.66224519  0.45914794
   0.25179855  0.70669932  0.09191691
   0.14967481  0.75341105  0.78009648
   0.06940844  0.77597200  0.42344837
   0.00284797  0.81176867  0.11692465
   0.92826306  0.86902598  0.78170212
   0.41561392  0.68252749  0.45186652
   0.39381279  0.68919736  0.07949267
   0.26470010  0.75943860  0.78712331
   0.19441166  0.81552607  0.43640551
   0.14179701  0.81413048  0.09124996
   0.06603776  0.88287950  0.76640524
   0.00481136  0.92826243  0.43444578
   0.92505515  0.97009718  0.10780110
   0.86449290  0.00073272  0.77144907
   0.76051904  0.02014429  0.47138602
   0.73292202  0.07477001  0.11336504
   0.63652636  0.08787785  0.80063625
   0.56224559  0.17014095  0.43652054
   0.49540906  0.21490471  0.11232129
   0.05412756  0.92936243  0.09702181
   0.13329937  0.01223835  0.75132258
   0.20802222  0.02556801  0.42083100
   0.28732110  0.09221071  0.10500839
   0.35991382  0.12934827  0.76656693
   0.40507525  0.17418039  0.43333547
   0.86744420  0.91688662  0.44382375
   0.78320046  0.96675249  0.12785297
   0.72793749  0.96850190  0.77376142
   0.63647051  0.04206953  0.44125983
   0.58628780  0.11591734  0.10633365
   0.51484706  0.11914650  0.78128162
   0.14030273  0.92083354  0.45031853
   0.23525653  0.93614421  0.10581127
   0.28749166  0.01485015  0.75777405
   0.36013610  0.05889903  0.42811279
   0.44742893  0.10354336  0.08718926
   0.80129376  0.85934503  0.78535957
   0.69636374  0.91248110  0.44009519
   0.67790934  0.97165504  0.09849169
   0.57502138  0.96816383  0.79431625
   0.50159507  0.06264036  0.44691636
   0.18969798  0.89667122  0.75708299
   0.29560624  0.91584257  0.43440910
   0.36072117  0.97858780  0.09949563
   0.42611396  0.00445348  0.77381697
   0.72161341  0.84671851  0.12319942
   0.63790656  0.83469029  0.77201351
   0.58920373  0.89640016  0.47580101
   0.52558828  0.96642296  0.10587557
   0.31208206  0.83683247  0.10688458
   0.35690715  0.87802910  0.74976283
   0.45061858  0.95430065  0.43224684
   0.63650628  0.77811670  0.45934464
   0.58297141  0.85301539  0.12195711
   0.50368828  0.86480307  0.76540037
   0.35831968  0.76881737  0.43339486
   0.43066901  0.83356143  0.10983262
   0.56319764  0.74294342  0.78614515
   0.48960933  0.77401854  0.44281689
   0.44325141  0.71857288  0.76883697
   0.52138886  0.71636292  0.10862857
   0.99743975  0.00533327  0.22490579
   0.92400601  0.05243688  0.88381221
   0.83956972  0.09010194  0.54923967
   0.79635504  0.14976720  0.21119790
   0.71990388  0.15394884  0.91245140
   0.60022533  0.22832179  0.55061303
   0.58126884  0.25324176  0.25131844
   0.52477348  0.27421351  0.89390348
   0.41906701  0.31913323  0.54834968
   0.35038173  0.38043031  0.20553786
   0.31073726  0.42152367  0.89134970
   0.20318655  0.45354114  0.57170838
   0.05554010  0.04376801  0.86534729
   0.01199909  0.09417741  0.53618304
   0.92364101  0.11940541  0.20853417
   0.84409973  0.18055846  0.89539565
   0.76346938  0.23637382  0.55532640
   0.73068151  0.27820862  0.23736969
   0.65139142  0.29125373  0.91239893
   0.55217412  0.32015382  0.55935284
   0.49607956  0.41258921  0.25335043
   0.43268315  0.42592812  0.89395526
   0.36348072  0.46448775  0.53757112
   0.28082555  0.48913177  0.22977618
   0.15100114  0.06077137  0.54227314
   0.04884815  0.11241203  0.21160877
   0.97774940  0.17120238  0.86642230
   0.90788153  0.18710986  0.55616500
   0.88351571  0.25112397  0.23319116
   0.78412490  0.31484314  0.90190721
   0.68215181  0.34980864  0.57268423
   0.62944922  0.36565159  0.22080167
   0.55905220  0.41661839  0.91019231
   0.49468546  0.43159896  0.55766856
   0.41592207  0.50673827  0.22307672
   0.36761042  0.53648526  0.85895082
   0.21623756  0.10718433  0.21877450
   0.13253076  0.15143878  0.89954735
   0.06532392  0.22861143  0.55259541
   0.00503575  0.22945215  0.21487975
   0.93179645  0.28738713  0.89457043
   0.81945928  0.32513072  0.57669806
   0.79022023  0.37646901  0.23313808
   0.70436111  0.42085915  0.91030089
   0.64775218  0.45593791  0.55498413
   0.58785112  0.50245328  0.23073294
   0.53563459  0.52936345  0.85195008
   0.43145564  0.58297869  0.57575664
   0.28942587  0.16736062  0.89451635
   0.21945289  0.20422986  0.55018955
   0.14802020  0.23197365  0.22927205
   0.08533516  0.29141812  0.88485660
   0.00841615  0.32921267  0.55723225
   0.93929670  0.39734293  0.18378376
   0.86650803  0.44908657  0.89290395
   0.78107783  0.44884990  0.58770307
   0.73458671  0.50728865  0.23680539
   0.64566765  0.54746328  0.88710174
   0.59008245  0.58292498  0.55377539
   0.50566828  0.62053597  0.22591646
   0.36162059  0.19659085  0.57763349
   0.27731714  0.24231036  0.19581154
   0.21771911  0.27961036  0.87490984
   0.13503272  0.34724724  0.56973216
   0.06081948  0.35548038  0.23473728
   0.99309363  0.43333160  0.87683657
   0.92418429  0.44900859  0.56054188
   0.86740981  0.51889229  0.24597387
   0.78732066  0.53681362  0.89193817
   0.72921575  0.57924893  0.56244955
   0.63303211  0.63885869  0.24360511
   0.56867236  0.67205196  0.88296257
   0.43005315  0.27669633  0.21736683
   0.37867346  0.28290722  0.89366711
   0.27861696  0.34458847  0.56223095
   0.21396392  0.35959700  0.20435300
   0.14625401  0.43124374  0.89404042
   0.08172466  0.47623058  0.53778898
   0.00350902  0.51376212  0.22750981
   0.91108933  0.52507528  0.89975451
   0.86231840  0.58545792  0.55112135
   0.77169913  0.63662727  0.22837981
   0.72612534  0.67778704  0.89841929
   0.63555589  0.68494064  0.54539569
   0.14292137  0.47231690  0.23166692
   0.05529022  0.52549257  0.90878422
   0.00410211  0.58526221  0.55181018
   0.92069685  0.63696876  0.19900887
   0.88694933  0.65764352  0.89714905
   0.79369453  0.71667782  0.53790900
   0.74171248  0.75265654  0.23006956
   0.20586707  0.56691322  0.89016223
   0.15072469  0.59929382  0.55080891
   0.06815046  0.62511597  0.20485211
   0.00781559  0.67179422  0.87691211
   0.94662420  0.68209663  0.57382102
   0.86201994  0.75241376  0.21737293
   0.79115266  0.75861515  0.88988485
   0.27028335  0.56953712  0.57480962
   0.22829118  0.62123790  0.22350366
   0.13045676  0.67346307  0.88334827
   0.07231796  0.72062677  0.54585963
   0.01373009  0.74732498  0.22080783
   0.93610720  0.79323847  0.89067915
   0.88467866  0.84042510  0.55724804
   0.36306258  0.63559711  0.19830931
   0.26748672  0.68751429  0.85597719
   0.19158204  0.71408749  0.54814843
   0.16176403  0.75202068  0.18241554
   0.05714341  0.82176359  0.89017363
   0.02205093  0.83811232  0.54028261
   0.93000452  0.88672522  0.21766164
   0.41643498  0.65209176  0.88466181
   0.34550306  0.68473264  0.58264783
   0.30821348  0.74636213  0.20982058
   0.20612767  0.82066006  0.86350460
   0.12542185  0.84324224  0.52844189
   0.08570787  0.87257514  0.19276687
   0.99939646  0.92163599  0.88192340
   0.91873255  0.96294008  0.53752315
   0.86135497  0.02025781  0.20719344
   0.79766593  0.02404606  0.88544614
   0.69009198  0.10391125  0.56373150
   0.66178822  0.15228998  0.22621787
   0.58892894  0.15185767  0.90086596
   0.50884106  0.18040218  0.55198938
   0.07794043  0.95529189  0.54930488
   0.14517797  0.97068811  0.23893213
   0.22165582  0.03230717  0.89211233
   0.26250643  0.07565964  0.55954504
   0.36892448  0.12169298  0.22973008
   0.43542990  0.15994299  0.88252018
   0.87228512  0.89503659  0.87354162
   0.78198101  0.96711457  0.58311949
   0.72791600  0.03216066  0.21715550
   0.63378520  0.00520351  0.89764510
   0.56627525  0.08367510  0.56167321
   0.52970785  0.11259726  0.24428720
   0.12661468  0.94205998  0.87652844
   0.22258450  0.94044641  0.54092608
   0.31661483  0.01508622  0.21593198
   0.36673589  0.99992907  0.88675656
   0.40590107  0.06309177  0.56136203
   0.80026714  0.88422021  0.22065583
   0.71907316  0.86668462  0.87154420
   0.65668313  0.95933819  0.57811009
   0.58910316  0.00467664  0.21390368
   0.50660260  0.02993684  0.88791006
   0.22171232  0.87850044  0.21353080
   0.26777711  0.91772887  0.87922907
   0.35626760  0.93650053  0.53592332
   0.45445282  0.98787248  0.23323532
   0.73584838  0.82591099  0.57282738
   0.65487629  0.88544503  0.24946895
   0.57444714  0.87265358  0.89478431
   0.53212638  0.93624686  0.54824782
   0.26761914  0.79353281  0.57091781
   0.37017653  0.89153065  0.20311024
   0.43354772  0.88853539  0.89325675
   0.64364357  0.76945782  0.89712375
   0.58415656  0.82072988  0.55382142
   0.52866268  0.88687962  0.25945352
   0.37106610  0.77682393  0.88297532
   0.42055146  0.83522234  0.53328067
   0.60691560  0.77163941  0.23993028
   0.47936188  0.77318185  0.89983796
   0.43449773  0.76278417  0.20425140
   0.50049501  0.72168093  0.55512495
