 500 500   0   0
  0.2153794E+02  0.2208300E-08  0.2208300E-08  0.2208300E-08  0.5000000E-15
  1.000000000000000E-004
  CAR 
 Li                                      
      3.08635943     -3.50345107  301      0.23380535      1.00000000
     -3.503  0.0000E+00  0.0000E+00
     -3.481  0.0000E+00  0.0000E+00
     -3.460  0.0000E+00  0.0000E+00
     -3.438  0.0000E+00  0.0000E+00
     -3.416  0.0000E+00  0.0000E+00
     -3.394  0.0000E+00  0.0000E+00
     -3.372  0.9350E-13  0.2054E-14
     -3.350  0.2327E-09  0.5114E-11
     -3.328  0.2019E-06  0.4441E-08
     -3.306  0.6152E-04  0.1356E-05
     -3.284  0.6634E-02  0.1471E-03
     -3.262  0.2561E+00  0.5772E-02
     -3.240  0.3585E+01  0.8453E-01
     -3.218  0.1848E+02  0.4905E+00
     -3.196  0.3552E+02  0.1271E+01
     -3.174  0.2561E+02  0.1833E+01
     -3.152  0.7348E+01  0.1995E+01
     -3.130  0.6860E+01  0.2145E+01
     -3.108  0.3402E+02  0.2893E+01
     -3.086  0.8063E+02  0.4664E+01
     -3.064  0.8930E+02  0.6625E+01
     -3.042  0.4870E+02  0.7695E+01
     -3.020  0.1528E+02  0.8030E+01
     -2.998  0.2070E+02  0.8485E+01
     -2.976  0.5936E+02  0.9789E+01
     -2.954  0.8854E+02  0.1173E+02
     -2.932  0.6972E+02  0.1327E+02
     -2.910  0.3110E+02  0.1395E+02
     -2.888  0.2793E+02  0.1456E+02
     -2.866  0.7245E+02  0.1615E+02
     -2.844  0.1117E+03  0.1861E+02
     -2.823  0.9571E+02  0.2071E+02
     -2.801  0.4916E+02  0.2179E+02
     -2.779  0.3302E+02  0.2252E+02
     -2.757  0.7756E+02  0.2422E+02
     -2.735  0.1387E+03  0.2727E+02
     -2.713  0.1413E+03  0.3037E+02
     -2.691  0.9818E+02  0.3253E+02
     -2.669  0.5224E+02  0.3367E+02
     -2.647  0.3151E+02  0.3437E+02
     -2.625  0.5569E+02  0.3559E+02
     -2.603  0.8669E+02  0.3749E+02
     -2.581  0.7594E+02  0.3916E+02
     -2.559  0.4610E+02  0.4017E+02
     -2.537  0.5772E+02  0.4144E+02
     -2.515  0.1112E+03  0.4388E+02
     -2.493  0.1490E+03  0.4716E+02
     -2.471  0.1319E+03  0.5005E+02
     -2.449  0.7894E+02  0.5179E+02
     -2.427  0.6227E+02  0.5316E+02
     -2.405  0.1137E+03  0.5565E+02
     -2.383  0.1744E+03  0.5948E+02
     -2.361  0.1885E+03  0.6362E+02
     -2.339  0.1550E+03  0.6703E+02
     -2.317  0.9527E+02  0.6912E+02
     -2.295  0.4972E+02  0.7021E+02
     -2.273  0.5739E+02  0.7147E+02
     -2.251  0.8533E+02  0.7335E+02
     -2.229  0.7658E+02  0.7503E+02
     -2.207  0.5036E+02  0.7614E+02
     -2.185  0.7071E+02  0.7769E+02
     -2.164  0.1336E+03  0.8062E+02
     -2.142  0.1680E+03  0.8431E+02
     -2.120  0.1484E+03  0.8757E+02
     -2.098  0.9541E+02  0.8967E+02
     -2.076  0.7825E+02  0.9139E+02
     -2.054  0.1285E+03  0.9421E+02
     -2.032  0.1814E+03  0.9820E+02
     -2.010  0.1853E+03  0.1023E+03
     -1.988  0.1482E+03  0.1055E+03
     -1.966  0.9622E+02  0.1076E+03
     -1.944  0.8215E+02  0.1094E+03
     -1.922  0.1189E+03  0.1121E+03
     -1.900  0.1453E+03  0.1152E+03
     -1.878  0.1278E+03  0.1180E+03
     -1.856  0.9035E+02  0.1200E+03
     -1.834  0.1004E+03  0.1222E+03
     -1.812  0.1641E+03  0.1258E+03
     -1.790  0.2026E+03  0.1303E+03
     -1.768  0.1805E+03  0.1343E+03
     -1.746  0.1224E+03  0.1369E+03
     -1.724  0.9315E+02  0.1390E+03
     -1.702  0.1375E+03  0.1420E+03
     -1.680  0.1959E+03  0.1463E+03
     -1.658  0.1914E+03  0.1505E+03
     -1.636  0.1409E+03  0.1536E+03
     -1.614  0.9143E+02  0.1556E+03
     -1.592  0.8660E+02  0.1575E+03
     -1.570  0.1226E+03  0.1602E+03
     -1.548  0.1407E+03  0.1633E+03
     -1.527  0.1211E+03  0.1660E+03
     -1.505  0.9604E+02  0.1681E+03
     -1.483  0.1085E+03  0.1705E+03
     -1.461  0.1429E+03  0.1736E+03
     -1.439  0.1472E+03  0.1768E+03
     -1.417  0.1122E+03  0.1793E+03
     -1.395  0.1020E+03  0.1815E+03
     -1.373  0.1590E+03  0.1850E+03
     -1.351  0.2284E+03  0.1900E+03
     -1.329  0.2637E+03  0.1958E+03
     -1.307  0.2586E+03  0.2015E+03
     -1.285  0.2153E+03  0.2062E+03
     -1.263  0.1545E+03  0.2096E+03
     -1.241  0.1383E+03  0.2127E+03
     -1.219  0.1776E+03  0.2166E+03
     -1.197  0.2045E+03  0.2211E+03
     -1.175  0.1783E+03  0.2250E+03
     -1.153  0.1275E+03  0.2278E+03
     -1.131  0.1093E+03  0.2302E+03
     -1.109  0.1413E+03  0.2333E+03
     -1.087  0.1744E+03  0.2371E+03
     -1.065  0.1572E+03  0.2406E+03
     -1.043  0.1330E+03  0.2435E+03
     -1.021  0.1713E+03  0.2473E+03
     -0.999  0.2187E+03  0.2521E+03
     -0.977  0.2221E+03  0.2569E+03
     -0.955  0.1941E+03  0.2612E+03
     -0.933  0.1459E+03  0.2644E+03
     -0.911  0.9759E+02  0.2666E+03
     -0.889  0.7988E+02  0.2683E+03
     -0.868  0.7943E+02  0.2701E+03
     -0.846  0.7702E+02  0.2718E+03
     -0.824  0.1036E+03  0.2740E+03
     -0.802  0.1818E+03  0.2780E+03
     -0.780  0.2465E+03  0.2834E+03
     -0.758  0.2702E+03  0.2894E+03
     -0.736  0.2694E+03  0.2953E+03
     -0.714  0.2466E+03  0.3007E+03
     -0.692  0.2137E+03  0.3054E+03
     -0.670  0.2088E+03  0.3100E+03
     -0.648  0.2414E+03  0.3153E+03
     -0.626  0.2640E+03  0.3211E+03
     -0.604  0.2532E+03  0.3266E+03
     -0.582  0.2148E+03  0.3314E+03
     -0.560  0.1594E+03  0.3349E+03
     -0.538  0.1283E+03  0.3377E+03
     -0.516  0.1344E+03  0.3406E+03
     -0.494  0.1475E+03  0.3439E+03
     -0.472  0.1720E+03  0.3477E+03
     -0.450  0.2050E+03  0.3522E+03
     -0.428  0.2177E+03  0.3569E+03
     -0.406  0.2103E+03  0.3616E+03
     -0.384  0.1834E+03  0.3656E+03
     -0.362  0.1684E+03  0.3693E+03
     -0.340  0.1868E+03  0.3734E+03
     -0.318  0.2186E+03  0.3782E+03
     -0.296  0.2321E+03  0.3833E+03
     -0.274  0.2303E+03  0.3883E+03
     -0.252  0.2272E+03  0.3933E+03
     -0.231  0.2156E+03  0.3981E+03
     -0.209  0.2103E+03  0.4027E+03
     -0.187  0.2172E+03  0.4075E+03
     -0.165  0.2065E+03  0.4120E+03
     -0.143  0.1783E+03  0.4159E+03
     -0.121  0.1749E+03  0.4198E+03
     -0.099  0.2036E+03  0.4242E+03
     -0.077  0.2286E+03  0.4293E+03
     -0.055  0.2365E+03  0.4344E+03
     -0.033  0.2335E+03  0.4396E+03
     -0.011  0.2234E+03  0.4445E+03
      0.011  0.2168E+03  0.4492E+03
      0.033  0.2173E+03  0.4540E+03
      0.055  0.2136E+03  0.4587E+03
      0.077  0.1998E+03  0.4631E+03
      0.099  0.1936E+03  0.4674E+03
      0.121  0.2139E+03  0.4721E+03
      0.143  0.2432E+03  0.4774E+03
      0.165  0.2565E+03  0.4830E+03
      0.187  0.2534E+03  0.4886E+03
      0.209  0.2450E+03  0.4940E+03
      0.231  0.2409E+03  0.4993E+03
      0.253  0.2437E+03  0.5046E+03
      0.275  0.2397E+03  0.5099E+03
      0.297  0.2372E+03  0.5151E+03
      0.319  0.2464E+03  0.5205E+03
      0.341  0.2623E+03  0.5263E+03
      0.363  0.2764E+03  0.5323E+03
      0.385  0.2903E+03  0.5387E+03
      0.407  0.2950E+03  0.5452E+03
      0.428  0.2879E+03  0.5515E+03
      0.450  0.2886E+03  0.5579E+03
      0.472  0.2824E+03  0.5641E+03
      0.494  0.2707E+03  0.5700E+03
      0.516  0.2671E+03  0.5759E+03
      0.538  0.2653E+03  0.5817E+03
      0.560  0.2506E+03  0.5872E+03
      0.582  0.2276E+03  0.5922E+03
      0.604  0.2150E+03  0.5969E+03
      0.626  0.2077E+03  0.6015E+03
      0.648  0.2083E+03  0.6061E+03
      0.670  0.2102E+03  0.6107E+03
      0.692  0.2058E+03  0.6152E+03
      0.714  0.2087E+03  0.6198E+03
      0.736  0.2160E+03  0.6245E+03
      0.758  0.2116E+03  0.6292E+03
      0.780  0.1962E+03  0.6335E+03
      0.802  0.1918E+03  0.6377E+03
      0.824  0.2049E+03  0.6422E+03
      0.846  0.2186E+03  0.6470E+03
      0.868  0.2251E+03  0.6520E+03
      0.890  0.2275E+03  0.6569E+03
      0.912  0.2380E+03  0.6622E+03
      0.934  0.2484E+03  0.6676E+03
      0.956  0.2445E+03  0.6730E+03
      0.978  0.2458E+03  0.6784E+03
      1.000  0.2569E+03  0.6840E+03
      1.022  0.2537E+03  0.6896E+03
      1.044  0.2362E+03  0.6948E+03
      1.065  0.2279E+03  0.6998E+03
      1.087  0.2283E+03  0.7048E+03
      1.109  0.2268E+03  0.7098E+03
      1.131  0.2221E+03  0.7147E+03
      1.153  0.2194E+03  0.7195E+03
      1.175  0.2148E+03  0.7242E+03
      1.197  0.2108E+03  0.7289E+03
      1.219  0.2134E+03  0.7335E+03
      1.241  0.2168E+03  0.7383E+03
      1.263  0.2078E+03  0.7429E+03
      1.285  0.2019E+03  0.7473E+03
      1.307  0.2038E+03  0.7518E+03
      1.329  0.2018E+03  0.7562E+03
      1.351  0.1904E+03  0.7604E+03
      1.373  0.1812E+03  0.7644E+03
      1.395  0.1832E+03  0.7684E+03
      1.417  0.1824E+03  0.7724E+03
      1.439  0.1673E+03  0.7761E+03
      1.461  0.1514E+03  0.7794E+03
      1.483  0.1574E+03  0.7829E+03
      1.505  0.1725E+03  0.7867E+03
      1.527  0.1739E+03  0.7905E+03
      1.549  0.1719E+03  0.7943E+03
      1.571  0.1757E+03  0.7981E+03
      1.593  0.1887E+03  0.8023E+03
      1.615  0.1999E+03  0.8066E+03
      1.637  0.2015E+03  0.8111E+03
      1.659  0.2036E+03  0.8155E+03
      1.681  0.2043E+03  0.8200E+03
      1.702  0.2014E+03  0.8245E+03
      1.724  0.1993E+03  0.8288E+03
      1.746  0.2028E+03  0.8333E+03
      1.768  0.2031E+03  0.8377E+03
      1.790  0.2010E+03  0.8422E+03
      1.812  0.1982E+03  0.8465E+03
      1.834  0.1862E+03  0.8506E+03
      1.856  0.1785E+03  0.8545E+03
      1.878  0.1723E+03  0.8583E+03
      1.900  0.1579E+03  0.8618E+03
      1.922  0.1465E+03  0.8650E+03
      1.944  0.1480E+03  0.8683E+03
      1.966  0.1538E+03  0.8716E+03
      1.988  0.1573E+03  0.8751E+03
      2.010  0.1571E+03  0.8785E+03
      2.032  0.1583E+03  0.8820E+03
      2.054  0.1589E+03  0.8855E+03
      2.076  0.1522E+03  0.8888E+03
      2.098  0.1615E+03  0.8924E+03
      2.120  0.1824E+03  0.8964E+03
      2.142  0.1790E+03  0.9003E+03
      2.164  0.1637E+03  0.9039E+03
      2.186  0.1521E+03  0.9073E+03
      2.208  0.1498E+03  0.9106E+03
      2.230  0.1577E+03  0.9140E+03
      2.252  0.1653E+03  0.9176E+03
      2.274  0.1633E+03  0.9212E+03
      2.296  0.1546E+03  0.9246E+03
      2.318  0.1553E+03  0.9280E+03
      2.340  0.1626E+03  0.9316E+03
      2.361  0.1636E+03  0.9352E+03
      2.383  0.1663E+03  0.9389E+03
      2.405  0.1640E+03  0.9425E+03
      2.427  0.1574E+03  0.9459E+03
      2.449  0.1540E+03  0.9493E+03
      2.471  0.1584E+03  0.9528E+03
      2.493  0.1606E+03  0.9563E+03
      2.515  0.1706E+03  0.9601E+03
      2.537  0.1786E+03  0.9640E+03
      2.559  0.1678E+03  0.9677E+03
      2.581  0.1657E+03  0.9713E+03
      2.603  0.1703E+03  0.9750E+03
      2.625  0.1667E+03  0.9787E+03
      2.647  0.1583E+03  0.9822E+03
      2.669  0.1513E+03  0.9855E+03
      2.691  0.1464E+03  0.9887E+03
      2.713  0.1448E+03  0.9919E+03
      2.735  0.1508E+03  0.9952E+03
      2.757  0.1421E+03  0.9983E+03
      2.779  0.1009E+03  0.1001E+04
      2.801  0.4938E+02  0.1002E+04
      2.823  0.1427E+02  0.1002E+04
      2.845  0.1984E+01  0.1002E+04
      2.867  0.1151E+00  0.1002E+04
      2.889  0.2586E-02  0.1002E+04
      2.911  0.2166E-04  0.1002E+04
      2.933  0.6607E-07  0.1002E+04
      2.955  0.7231E-10  0.1002E+04
      2.977  0.2527E-13  0.1002E+04
      2.998  0.0000E+00  0.1002E+04
      3.020  0.0000E+00  0.1002E+04
      3.042  0.0000E+00  0.1002E+04
      3.064  0.0000E+00  0.1002E+04
      3.086  0.0000E+00  0.1002E+04
