Li                                      
           1
    22.083000   -0.000000    0.000000
    -0.000000   22.083000    0.000000
     0.000000    0.000000   22.083000
   Li
   500
Direct configuration=     1
   0.99022713  0.00770730  0.00906322
   0.99595386  0.08999529  0.10637337
   0.00707671  0.20232796  0.19604940
   0.99492580  0.29392927  0.30427478
   0.01166821  0.39604481  0.42742985
   0.99659969  0.51223559  0.49388552
   0.00758685  0.60057889  0.62263102
   0.00486507  0.72497117  0.71093105
   0.00357705  0.83239226  0.83924658
   0.97926752  0.90339471  0.94296228
   0.09057663  0.01460830  0.09976614
   0.10656099  0.09832044  0.20202902
   0.10446578  0.19484311  0.31254919
   0.12345626  0.30753963  0.43013089
   0.11265148  0.42780146  0.52565600
   0.10807232  0.50530281  0.61038385
   0.07712839  0.62175982  0.69554165
   0.08826784  0.72726152  0.80872581
   0.08226767  0.82090249  0.92380074
   0.08041406  0.89596887  0.01891977
   0.18567137  0.99796852  0.19607135
   0.23081559  0.09380131  0.28403154
   0.21109714  0.19448068  0.39558319
   0.22306857  0.31227220  0.49022415
   0.18596852  0.38977241  0.62685313
   0.21636429  0.52613818  0.69722274
   0.18671580  0.63600161  0.81673611
   0.17852963  0.73308290  0.89905423
   0.20192220  0.81405954  0.00103923
   0.18302406  0.89275637  0.09076408
   0.31474596  0.98214481  0.30512853
   0.29492554  0.10090612  0.37393293
   0.28525383  0.21211365  0.48172848
   0.29434005  0.30724498  0.59329852
   0.28976068  0.39284190  0.70745275
   0.28886610  0.54075297  0.81432359
   0.30389058  0.62609721  0.89386201
   0.27981187  0.69053570  0.00569602
   0.29690768  0.79356122  0.10812430
   0.31243827  0.89141648  0.22955177
   0.41407625  0.00032997  0.40971709
   0.41414948  0.11342608  0.49396963
   0.39468847  0.22357578  0.60649882
   0.39201122  0.31494133  0.69150213
   0.39987998  0.40969230  0.81063324
   0.39993745  0.48244410  0.90572769
   0.37391963  0.60414105  0.00721688
   0.39202899  0.68013081  0.09976202
   0.40909837  0.76225957  0.21483984
   0.40384614  0.88070766  0.31327758
   0.52456722  0.02232125  0.50127651
   0.51568366  0.11344734  0.61397985
   0.50227478  0.19879780  0.71414374
   0.50167711  0.29815996  0.80062765
   0.52883417  0.38843195  0.90200669
   0.48091961  0.50466041  0.99693043
   0.49814442  0.57804343  0.10155419
   0.51323525  0.70658551  0.19131405
   0.50658559  0.80454558  0.30987301
   0.53297753  0.88715545  0.41504243
   0.60765912  0.99641271  0.58793904
   0.63444649  0.11077436  0.71802384
   0.59739771  0.20305424  0.81840259
   0.58553964  0.31194968  0.91148995
   0.61947619  0.42797160  0.01556645
   0.61474341  0.49096325  0.08997728
   0.60875504  0.59739656  0.20522545
   0.59850460  0.70670903  0.31507655
   0.62706087  0.79331692  0.41382553
   0.63029268  0.87948964  0.50395804
   0.73456729  0.98279580  0.71363692
   0.70475362  0.07741438  0.80057048
   0.70267760  0.19287769  0.90232667
   0.70464061  0.30613996  0.00152209
   0.70702021  0.41591017  0.10850881
   0.70969090  0.49271396  0.20959640
   0.71039320  0.61116063  0.30201563
   0.72279964  0.68118106  0.40196714
   0.70239561  0.77633783  0.49886903
   0.72334797  0.88015042  0.59543634
   0.81926039  0.98954771  0.81279630
   0.78877884  0.09819481  0.88830644
   0.79561558  0.18740363  0.99163228
   0.79852506  0.29084946  0.10744295
   0.81360528  0.38104771  0.21454097
   0.82117982  0.51253500  0.29244645
   0.81013664  0.61506206  0.40317857
   0.80761644  0.70611400  0.49184847
   0.82423371  0.79853015  0.58942547
   0.82295991  0.87716821  0.69522256
   0.87457520  0.99784450  0.91895946
   0.89485869  0.09296039  0.01793267
   0.91482571  0.20285742  0.10690613
   0.89582203  0.31007524  0.21200919
   0.90305292  0.38405071  0.30717436
   0.92304709  0.49305301  0.40532018
   0.90765555  0.60538553  0.50877723
   0.90724092  0.70077129  0.60137335
   0.90468592  0.79064880  0.71390820
   0.91229999  0.87395699  0.81610705
   0.09071077  0.08764057  0.01380693
   0.11549211  0.19438763  0.09832633
   0.08574426  0.28758458  0.21708165
   0.09905716  0.36241749  0.29422926
   0.07881139  0.49761241  0.40892077
   0.07065277  0.59195973  0.49279747
   0.08302604  0.71701677  0.58888351
   0.09247379  0.83312435  0.69062497
   0.08212974  0.91319475  0.81475882
   0.07891050  0.00631389  0.92768792
   0.20409341  0.09851741  0.11362496
   0.19480784  0.20391824  0.19292590
   0.20210680  0.31057737  0.29757115
   0.19308039  0.42122951  0.37765512
   0.19560942  0.52126832  0.49874357
   0.17719712  0.63576295  0.59949685
   0.17136255  0.73110777  0.69357977
   0.20701746  0.83700188  0.81556903
   0.17625701  0.91870324  0.94174060
   0.19716351  0.99050449  0.01710263
   0.31636797  0.11209476  0.22525030
   0.32310380  0.20752390  0.25470189
   0.30887042  0.30044712  0.36342910
   0.29951278  0.41169114  0.50452327
   0.28824131  0.50142656  0.62634888
   0.27085902  0.62293149  0.70938699
   0.28727232  0.73452748  0.79025607
   0.31122077  0.82054939  0.90498296
   0.31593621  0.91541554  0.03757829
   0.30300683  0.00853260  0.13777116
   0.40158360  0.09751419  0.30051007
   0.40332375  0.20482345  0.38586536
   0.39667025  0.28029692  0.48546725
   0.38149113  0.37985350  0.58973010
   0.37990404  0.49550521  0.69835338
   0.37685273  0.62528584  0.80248402
   0.39461356  0.72780520  0.90925445
   0.39582878  0.78498292  0.01256148
   0.40380330  0.90010022  0.09832521
   0.41247300  0.98939024  0.19132845
   0.50091221  0.12774261  0.39190349
   0.48935650  0.18984286  0.51946541
   0.49001578  0.28465248  0.61943686
   0.51469297  0.41808207  0.68074924
   0.48163316  0.48014528  0.78151918
   0.46909732  0.60602310  0.87818043
   0.49127476  0.69265850  0.00237231
   0.52196610  0.79335899  0.08746288
   0.49750251  0.87668083  0.19928205
   0.51969589  0.99742171  0.30768981
   0.62098668  0.11842441  0.50962193
   0.61922705  0.20910001  0.60721258
   0.57931926  0.30383631  0.69320674
   0.60524088  0.41630853  0.78817463
   0.56739542  0.48619299  0.92123526
   0.60321778  0.59212850  0.01988014
   0.61639663  0.68003847  0.08655698
   0.61153486  0.79605276  0.21505844
   0.60482781  0.88539725  0.29776671
   0.61506870  0.99205249  0.40684520
   0.71422437  0.07920049  0.59650981
   0.69725424  0.22143621  0.71713264
   0.66634750  0.31629756  0.80411982
   0.67187658  0.41780148  0.90384370
   0.70847869  0.47634576  0.98651879
   0.71887946  0.58358989  0.10717154
   0.70966767  0.69546138  0.20453671
   0.70273059  0.78419032  0.30958414
   0.71184788  0.90246629  0.37014530
   0.70076329  0.98691488  0.48063702
   0.79330085  0.12752491  0.70905458
   0.80346055  0.22208522  0.79408442
   0.79995788  0.30141742  0.88492965
   0.82363325  0.40010993  0.99198947
   0.82584180  0.47853005  0.09620543
   0.81278614  0.60828801  0.20284919
   0.83750404  0.69632619  0.30445096
   0.77358668  0.79143313  0.39517610
   0.78475546  0.92873026  0.49668447
   0.78289133  0.02557488  0.61667874
   0.89896736  0.10232253  0.81247497
   0.90100082  0.20163805  0.89562677
   0.88747848  0.27038312  0.99919549
   0.91187228  0.35431320  0.08742336
   0.92512391  0.49924667  0.20441808
   0.92232641  0.58761628  0.30831655
   0.89125905  0.73091076  0.39622324
   0.87840436  0.82254376  0.48749246
   0.87423991  0.91138966  0.60403593
   0.88672035  0.00373261  0.70793618
   0.00175096  0.10200388  0.89207140
   0.99042838  0.15881227  0.98882515
   0.02333881  0.27476481  0.05887741
   0.98323018  0.37996483  0.17772538
   0.01835092  0.49861373  0.29618203
   0.99125548  0.62931730  0.39817896
   0.98217530  0.70473370  0.49643277
   0.96318732  0.81730720  0.57694338
   0.98547244  0.91035780  0.69230149
   0.99104361  0.99612337  0.82562455
   0.19879128  0.18838648  0.01099902
   0.17737537  0.30569195  0.09815679
   0.19363122  0.38296987  0.20068567
   0.18860940  0.48252168  0.30230798
   0.19340629  0.59958606  0.41017388
   0.21068881  0.71086847  0.47382367
   0.18846263  0.82828585  0.55680797
   0.19087738  0.90689971  0.65302493
   0.18842556  0.99843180  0.78475718
   0.19717535  0.08242801  0.91146256
   0.31511874  0.19656020  0.10267039
   0.29223933  0.31013136  0.20206767
   0.31571598  0.41653712  0.28481792
   0.30439819  0.52327096  0.40484846
   0.29598241  0.58243072  0.50661768
   0.29445845  0.70934076  0.58905577
   0.30665517  0.83816991  0.67428225
   0.31378346  0.92694074  0.79224516
   0.29118369  0.01167903  0.89190305
   0.29983796  0.10201517  0.99977787
   0.42437306  0.19516171  0.18176320
   0.40804327  0.32242209  0.27000268
   0.41206439  0.39101155  0.40838540
   0.44509666  0.49405953  0.50019369
   0.39122278  0.57311505  0.59514596
   0.38369021  0.69641691  0.69637804
   0.38135089  0.77957097  0.79077622
   0.40252460  0.87449938  0.89724777
   0.38547896  0.00040252  0.98901538
   0.41199521  0.07819556  0.08494593
   0.48146260  0.18980733  0.27454489
   0.50065532  0.28142353  0.41444075
   0.51686105  0.40509739  0.51048981
   0.50919818  0.52439128  0.59479082
   0.50881070  0.59283462  0.70451276
   0.47123279  0.71515049  0.79428289
   0.50071382  0.76488974  0.90043668
   0.49737178  0.87432428  0.97777491
   0.50659733  0.97521015  0.07602810
   0.52978771  0.08674061  0.19915616
   0.59795592  0.20705433  0.41034115
   0.61300319  0.28696434  0.52638454
   0.62629179  0.38475641  0.60360854
   0.62309453  0.52082245  0.66778209
   0.59151418  0.60244592  0.81144492
   0.56517019  0.69284430  0.89861540
   0.60441924  0.77957912  0.98211040
   0.60428985  0.87206046  0.08448707
   0.57705241  0.98217603  0.18862580
   0.61567382  0.09469173  0.31622203
   0.72109166  0.19866216  0.51856702
   0.72021111  0.28507274  0.60360623
   0.70660620  0.38735209  0.68644613
   0.70649530  0.49966664  0.80882834
   0.70482232  0.56872689  0.89826573
   0.69165142  0.66756328  0.01611904
   0.71739283  0.78376864  0.08851194
   0.68417389  0.87382093  0.19575394
   0.69201451  0.01606805  0.29713368
   0.69061954  0.10024315  0.39314009
   0.80138718  0.17431976  0.58717904
   0.80929233  0.28648720  0.69838031
   0.80241599  0.38816839  0.80340675
   0.81369805  0.48489713  0.88438881
   0.82451119  0.59327797  0.00105668
   0.79302547  0.68431004  0.09768839
   0.79660974  0.79601599  0.19570365
   0.77365621  0.89863271  0.27020343
   0.78484656  0.03440209  0.35234884
   0.79211143  0.08008808  0.48677027
   0.92233927  0.18942726  0.70779078
   0.90244217  0.31368820  0.80499241
   0.92491861  0.38452500  0.92139536
   0.91258414  0.51535756  0.01782135
   0.90320806  0.62075743  0.13505899
   0.91335288  0.67683041  0.18407966
   0.90511370  0.79235597  0.29139226
   0.85809153  0.91488330  0.36376256
   0.89525081  0.99521005  0.49561286
   0.89193497  0.10072236  0.59929577
   0.01401782  0.21186921  0.80382326
   0.99735798  0.28096662  0.88586900
   0.02422364  0.39759497  0.00926986
   0.98421054  0.50250971  0.09885850
   0.00092101  0.59078051  0.19913656
   0.00842628  0.71345686  0.29812231
   0.98897583  0.80750814  0.40516356
   0.99747008  0.91552863  0.49617063
   0.98726122  0.00098650  0.58003400
   0.96927322  0.08982711  0.69800320
   0.10765787  0.21210257  0.91333934
   0.11636272  0.30171907  0.00970356
   0.09906393  0.40087347  0.11198467
   0.10415500  0.48287676  0.18504970
   0.08040086  0.61297314  0.31743825
   0.09113400  0.73021155  0.42567664
   0.07698398  0.79535292  0.49760191
   0.08504541  0.91090031  0.58647147
   0.07382963  0.00932546  0.68594584
   0.09943718  0.10626967  0.78974194
   0.29856142  0.30585381  0.00797763
   0.27814677  0.39232592  0.08463979
   0.27059552  0.48874374  0.20095425
   0.28896583  0.61164846  0.28066074
   0.30569125  0.67990829  0.39162818
   0.30981028  0.79495336  0.48545851
   0.28555480  0.93337563  0.57841090
   0.29941079  0.97970210  0.67883007
   0.27256974  0.07306903  0.77654595
   0.30171679  0.20168368  0.89394431
   0.40263614  0.32450406  0.10075534
   0.40019694  0.41895114  0.17937100
   0.40280903  0.50900231  0.28232751
   0.39629785  0.58259619  0.37685978
   0.39963446  0.69505816  0.49061854
   0.39017739  0.80278177  0.58300012
   0.41209649  0.89759735  0.68193799
   0.40303560  0.00986956  0.79955786
   0.39664882  0.09092413  0.88619599
   0.41417080  0.19341115  0.01082604
   0.51194563  0.32158252  0.19251262
   0.48717529  0.41547841  0.29821392
   0.48648874  0.50822406  0.41455587
   0.50165977  0.58878193  0.47331847
   0.47596555  0.68355022  0.57800771
   0.50265029  0.78722064  0.67331399
   0.50601864  0.86395481  0.79112899
   0.47314353  0.99227433  0.87379101
   0.49469296  0.07597362  0.98453704
   0.49906059  0.20496651  0.11035068
   0.61027512  0.30495971  0.30696182
   0.60605603  0.37662347  0.39474528
   0.59020504  0.52557274  0.50596009
   0.60948094  0.61425359  0.59701995
   0.60059777  0.70470656  0.71129543
   0.63050454  0.81294644  0.81135459
   0.61102702  0.89335348  0.88298539
   0.59542651  0.99192892  0.96809642
   0.58950907  0.09379446  0.09383616
   0.58857418  0.21774702  0.19842499
   0.71701783  0.30774004  0.41636552
   0.68000949  0.41245955  0.50746310
   0.72147195  0.54719551  0.59006750
   0.73795006  0.62281508  0.71336989
   0.71611401  0.70899610  0.80404693
   0.70562993  0.77081294  0.92633623
   0.69525142  0.87582364  0.00777021
   0.65006867  0.99173677  0.08344254
   0.67700796  0.11391156  0.18256547
   0.69960934  0.19129177  0.28147912
   0.79881770  0.32224485  0.52062891
   0.79538066  0.40966771  0.61702200
   0.80196279  0.51284229  0.70620606
   0.83525715  0.59853248  0.80609475
   0.83563940  0.68105395  0.91448222
   0.80404901  0.78898815  0.01418579
   0.79585712  0.89202096  0.11156461
   0.76480300  0.98827556  0.18042881
   0.79044655  0.11447850  0.26469047
   0.77372392  0.18105164  0.39962141
   0.88754239  0.28460231  0.60211387
   0.90338983  0.39448637  0.69807207
   0.91980697  0.47914121  0.81298235
   0.93530343  0.58823969  0.89422962
   0.90910337  0.68348551  0.03833995
   0.89335889  0.78252083  0.12259407
   0.87915798  0.88552735  0.20094094
   0.88073961  0.00423600  0.27189605
   0.87632609  0.11408313  0.35943948
   0.88238802  0.20412532  0.48809051
   0.00979235  0.29996788  0.68085557
   0.01343783  0.39307614  0.79692157
   0.01872486  0.51339793  0.91934491
   0.00266813  0.61789992  0.04108144
   0.00551924  0.69738796  0.11337416
   0.02222000  0.79714761  0.20686016
   0.00741297  0.90582968  0.29758091
   0.99284062  0.00418927  0.39212678
   0.97854696  0.09460244  0.45865766
   0.99247273  0.19284585  0.57984168
   0.11837897  0.30086884  0.78062897
   0.09682289  0.39787742  0.89233137
   0.11927288  0.51673358  0.03004346
   0.09483944  0.58946310  0.11819981
   0.10726746  0.70753488  0.21948522
   0.12151081  0.83587683  0.30825343
   0.10338955  0.88687823  0.40372451
   0.07420982  0.99447526  0.48618038
   0.08262638  0.09799871  0.58490551
   0.08602346  0.18355697  0.69978464
   0.20338444  0.29332666  0.88811675
   0.18434623  0.39058411  0.00078590
   0.21485400  0.49633329  0.10137306
   0.17316496  0.60826747  0.21794264
   0.18547630  0.70503262  0.30480255
   0.20291038  0.81760711  0.40238096
   0.19436350  0.91486545  0.50100628
   0.16880456  0.01212716  0.59404891
   0.15036412  0.10374294  0.67939372
   0.20289111  0.18469110  0.79985990
   0.39320729  0.39054401  0.98700686
   0.39026108  0.49082562  0.09182356
   0.38501985  0.57365933  0.19355259
   0.41599922  0.68314192  0.29690754
   0.40322745  0.78647926  0.38690582
   0.41425570  0.89331728  0.46903097
   0.41872855  0.99745228  0.56576422
   0.40885299  0.09818680  0.68629763
   0.37230506  0.20936300  0.80399545
   0.43712544  0.31147610  0.89661371
   0.54734919  0.42554530  0.09876795
   0.48772438  0.49498376  0.19828547
   0.49236324  0.58351615  0.28059516
   0.52878428  0.67835746  0.40304043
   0.49842875  0.78492381  0.48567530
   0.51332350  0.89983665  0.60437084
   0.51340266  0.00886164  0.67904552
   0.50638395  0.10587787  0.79752794
   0.50066873  0.19538071  0.88799255
   0.49858803  0.31830934  0.01093986
   0.62250871  0.41943176  0.22381698
   0.60538960  0.48133151  0.32974855
   0.60408367  0.59983925  0.41241607
   0.61681197  0.69472435  0.50312884
   0.60334958  0.79061925  0.59571246
   0.62421970  0.89693648  0.70154260
   0.59373039  0.99231422  0.77470022
   0.60087058  0.07687522  0.88317891
   0.58306077  0.20191315  0.00907900
   0.57362316  0.31610540  0.09422293
   0.71859338  0.39783750  0.28658810
   0.71795855  0.50558168  0.41721235
   0.72557948  0.60743017  0.50107904
   0.71697528  0.69348745  0.58861459
   0.71880194  0.78714574  0.68673814
   0.71919077  0.89227582  0.79416740
   0.69915091  0.98605334  0.89538818
   0.71529281  0.10341344  0.01144859
   0.68467916  0.20712618  0.10658158
   0.67624670  0.31898834  0.18517604
   0.79116472  0.40507387  0.38471739
   0.82757786  0.51117352  0.46748767
   0.82286950  0.60662481  0.61703747
   0.82419549  0.70476737  0.71124159
   0.79946414  0.81104254  0.79637676
   0.79463309  0.87053981  0.91120028
   0.77275554  0.00375707  0.99159057
   0.80360687  0.08463543  0.11479764
   0.78519286  0.22035913  0.19900908
   0.80449771  0.27426706  0.30707781
   0.88933944  0.40825552  0.52392742
   0.88258525  0.52709973  0.60544199
   0.89526318  0.61347058  0.72378894
   0.91328532  0.72407859  0.81152685
   0.88295564  0.78438034  0.93922676
   0.87498614  0.90063063  0.03514600
   0.89373959  0.99689015  0.10208408
   0.89899281  0.11519495  0.19614879
   0.91099508  0.20973531  0.29954275
   0.88544679  0.31952117  0.41247731
   0.99437353  0.42241005  0.61911279
   0.98543558  0.51053516  0.69934064
   0.99963296  0.61452546  0.82367295
   0.00729858  0.70919474  0.92174610
   0.95721282  0.79114741  0.00795434
   0.99098203  0.89402955  0.09861811
   0.98449685  0.99583411  0.19528296
   0.98236147  0.07827985  0.31640577
   0.00317759  0.20466714  0.40535344
   0.98251256  0.32139058  0.52461089
   0.09669727  0.39500292  0.69488080
   0.09153871  0.51853452  0.77575716
   0.09295444  0.60429341  0.93095948
   0.08072503  0.72117268  0.00596627
   0.10675723  0.79711700  0.10164277
   0.09373229  0.91518356  0.18661438
   0.09926769  0.98740695  0.31506334
   0.12058552  0.10258682  0.38761030
   0.11650557  0.19083284  0.52351776
   0.11514672  0.29660946  0.58817475
   0.19610698  0.43683026  0.78482126
   0.20705232  0.50988471  0.90737008
   0.18415935  0.61804936  0.01454318
   0.17605402  0.69019753  0.09797285
   0.18498778  0.80274572  0.21098396
   0.20721726  0.89685661  0.28590035
   0.21035207  0.98917721  0.39604010
   0.18810661  0.07615444  0.48693342
   0.19771047  0.17593872  0.59874288
   0.19057157  0.26798903  0.73281162
   0.28945338  0.38456948  0.88417422
   0.30048949  0.49751012  0.98417857
   0.29459804  0.59262529  0.11056605
   0.30317861  0.69884344  0.21102106
   0.28814586  0.77982050  0.31440474
   0.30497302  0.90164410  0.40881497
   0.32326366  0.01084722  0.50148524
   0.32081941  0.08938655  0.60189807
   0.29274728  0.18225152  0.69040890
   0.29434222  0.29742178  0.79462882
