 432 432   0   0
  0.1915683E+02  0.2022720E-08  0.2022720E-08  0.2022720E-08  0.5000000E-15
  1.000000000000000E-004
  CAR 
 Li                                      
      3.96481782     -3.37948918  301      0.56384245      1.00000000
     -3.379  0.0000E+00  0.0000E+00
     -3.355  0.0000E+00  0.0000E+00
     -3.331  0.0000E+00  0.0000E+00
     -3.306  0.0000E+00  0.0000E+00
     -3.282  0.0000E+00  0.0000E+00
     -3.257  0.0000E+00  0.0000E+00
     -3.233  0.0000E+00  0.0000E+00
     -3.208  0.7585E-12  0.1857E-13
     -3.184  0.3148E-08  0.7709E-10
     -3.159  0.3548E-05  0.8693E-07
     -3.135  0.1096E-02  0.2692E-04
     -3.110  0.9425E-01  0.2334E-02
     -3.086  0.2305E+01  0.5876E-01
     -3.061  0.1646E+02  0.4618E+00
     -3.037  0.3523E+02  0.1324E+01
     -3.012  0.2287E+02  0.1884E+01
     -2.988  0.4569E+01  0.1996E+01
     -2.963  0.2984E+01  0.2069E+01
     -2.939  0.2485E+02  0.2677E+01
     -2.914  0.7842E+02  0.4597E+01
     -2.890  0.9174E+02  0.6843E+01
     -2.865  0.4051E+02  0.7835E+01
     -2.841  0.7065E+01  0.8008E+01
     -2.816  0.1006E+02  0.8254E+01
     -2.792  0.4967E+02  0.9470E+01
     -2.767  0.9310E+02  0.1175E+02
     -2.743  0.6931E+02  0.1345E+02
     -2.719  0.2064E+02  0.1395E+02
     -2.694  0.6771E+01  0.1412E+02
     -2.670  0.3397E+02  0.1495E+02
     -2.645  0.9883E+02  0.1737E+02
     -2.621  0.1188E+03  0.2028E+02
     -2.596  0.5864E+02  0.2171E+02
     -2.572  0.1374E+02  0.2205E+02
     -2.547  0.2629E+02  0.2269E+02
     -2.523  0.9706E+02  0.2507E+02
     -2.498  0.1656E+03  0.2912E+02
     -2.474  0.1378E+03  0.3250E+02
     -2.449  0.5289E+02  0.3379E+02
     -2.425  0.9972E+01  0.3403E+02
     -2.400  0.2071E+02  0.3454E+02
     -2.376  0.7479E+02  0.3637E+02
     -2.351  0.9632E+02  0.3873E+02
     -2.327  0.4438E+02  0.3982E+02
     -2.302  0.8910E+01  0.4004E+02
     -2.278  0.2220E+02  0.4058E+02
     -2.253  0.9526E+02  0.4291E+02
     -2.229  0.1695E+03  0.4706E+02
     -2.204  0.1404E+03  0.5050E+02
     -2.180  0.5451E+02  0.5183E+02
     -2.155  0.2460E+02  0.5243E+02
     -2.131  0.8269E+02  0.5446E+02
     -2.106  0.1897E+03  0.5910E+02
     -2.082  0.2297E+03  0.6473E+02
     -2.058  0.1539E+03  0.6849E+02
     -2.033  0.5350E+02  0.6980E+02
     -2.009  0.1481E+02  0.7017E+02
     -1.984  0.4076E+02  0.7116E+02
     -1.960  0.8713E+02  0.7330E+02
     -1.935  0.7732E+02  0.7519E+02
     -1.911  0.2939E+02  0.7591E+02
     -1.886  0.1414E+02  0.7625E+02
     -1.862  0.6640E+02  0.7788E+02
     -1.837  0.1693E+03  0.8202E+02
     -1.813  0.1933E+03  0.8676E+02
     -1.788  0.1054E+03  0.8934E+02
     -1.764  0.2811E+02  0.9003E+02
     -1.739  0.3370E+02  0.9085E+02
     -1.715  0.1241E+03  0.9389E+02
     -1.690  0.2300E+03  0.9952E+02
     -1.666  0.2204E+03  0.1049E+03
     -1.641  0.1035E+03  0.1075E+03
     -1.617  0.2360E+02  0.1080E+03
     -1.592  0.3020E+02  0.1088E+03
     -1.568  0.1085E+03  0.1114E+03
     -1.543  0.1742E+03  0.1157E+03
     -1.519  0.1290E+03  0.1188E+03
     -1.494  0.4650E+02  0.1200E+03
     -1.470  0.4757E+02  0.1212E+03
     -1.445  0.1456E+03  0.1247E+03
     -1.421  0.2297E+03  0.1303E+03
     -1.397  0.1994E+03  0.1352E+03
     -1.372  0.9441E+02  0.1375E+03
     -1.348  0.3762E+02  0.1385E+03
     -1.323  0.9094E+02  0.1407E+03
     -1.299  0.1975E+03  0.1455E+03
     -1.274  0.2307E+03  0.1512E+03
     -1.250  0.1472E+03  0.1548E+03
     -1.225  0.4654E+02  0.1559E+03
     -1.201  0.2621E+02  0.1565E+03
     -1.176  0.8835E+02  0.1587E+03
     -1.152  0.1612E+03  0.1627E+03
     -1.127  0.1453E+03  0.1662E+03
     -1.103  0.6209E+02  0.1677E+03
     -1.078  0.1549E+02  0.1681E+03
     -1.054  0.4012E+02  0.1691E+03
     -1.029  0.1119E+03  0.1718E+03
     -1.005  0.1487E+03  0.1755E+03
     -0.980  0.1262E+03  0.1786E+03
     -0.956  0.7889E+02  0.1805E+03
     -0.931  0.1260E+03  0.1836E+03
     -0.907  0.2409E+03  0.1895E+03
     -0.882  0.3007E+03  0.1968E+03
     -0.858  0.2842E+03  0.2038E+03
     -0.833  0.1847E+03  0.2083E+03
     -0.809  0.8529E+02  0.2104E+03
     -0.785  0.1204E+03  0.2133E+03
     -0.760  0.2115E+03  0.2185E+03
     -0.736  0.2020E+03  0.2235E+03
     -0.711  0.1272E+03  0.2266E+03
     -0.687  0.5106E+02  0.2278E+03
     -0.662  0.3398E+02  0.2287E+03
     -0.638  0.1089E+03  0.2313E+03
     -0.613  0.1952E+03  0.2361E+03
     -0.589  0.1655E+03  0.2402E+03
     -0.564  0.7053E+02  0.2419E+03
     -0.540  0.5797E+02  0.2433E+03
     -0.515  0.1608E+03  0.2472E+03
     -0.491  0.2667E+03  0.2538E+03
     -0.466  0.2694E+03  0.2604E+03
     -0.442  0.1847E+03  0.2649E+03
     -0.417  0.1169E+03  0.2678E+03
     -0.393  0.1007E+03  0.2702E+03
     -0.368  0.5710E+02  0.2716E+03
     -0.344  0.1551E+02  0.2720E+03
     -0.319  0.2014E+02  0.2725E+03
     -0.295  0.9768E+02  0.2749E+03
     -0.270  0.2179E+03  0.2802E+03
     -0.246  0.2583E+03  0.2865E+03
     -0.221  0.2185E+03  0.2919E+03
     -0.197  0.1529E+03  0.2956E+03
     -0.172  0.1406E+03  0.2991E+03
     -0.148  0.1824E+03  0.3035E+03
     -0.124  0.1955E+03  0.3083E+03
     -0.099  0.2151E+03  0.3136E+03
     -0.075  0.2248E+03  0.3191E+03
     -0.050  0.2254E+03  0.3246E+03
     -0.026  0.1978E+03  0.3295E+03
     -0.001  0.1315E+03  0.3327E+03
      0.023  0.1086E+03  0.3353E+03
      0.048  0.1036E+03  0.3379E+03
      0.072  0.1149E+03  0.3407E+03
      0.097  0.1321E+03  0.3439E+03
      0.121  0.1643E+03  0.3479E+03
      0.146  0.2484E+03  0.3540E+03
      0.170  0.3068E+03  0.3615E+03
      0.195  0.3153E+03  0.3693E+03
      0.219  0.2634E+03  0.3757E+03
      0.244  0.1442E+03  0.3792E+03
      0.268  0.7783E+02  0.3811E+03
      0.293  0.1416E+03  0.3846E+03
      0.317  0.2289E+03  0.3902E+03
      0.342  0.2502E+03  0.3963E+03
      0.366  0.1980E+03  0.4012E+03
      0.391  0.1047E+03  0.4037E+03
      0.415  0.7994E+02  0.4057E+03
      0.440  0.1253E+03  0.4088E+03
      0.464  0.1542E+03  0.4125E+03
      0.489  0.1929E+03  0.4173E+03
      0.513  0.2107E+03  0.4224E+03
      0.537  0.1884E+03  0.4270E+03
      0.562  0.1870E+03  0.4316E+03
      0.586  0.2244E+03  0.4371E+03
      0.611  0.2396E+03  0.4430E+03
      0.635  0.2350E+03  0.4487E+03
      0.660  0.2228E+03  0.4542E+03
      0.684  0.1925E+03  0.4589E+03
      0.709  0.1583E+03  0.4628E+03
      0.733  0.1362E+03  0.4661E+03
      0.758  0.1374E+03  0.4695E+03
      0.782  0.1694E+03  0.4736E+03
      0.807  0.2059E+03  0.4786E+03
      0.831  0.2134E+03  0.4839E+03
      0.856  0.2208E+03  0.4893E+03
      0.880  0.2487E+03  0.4954E+03
      0.905  0.2778E+03  0.5022E+03
      0.929  0.2915E+03  0.5093E+03
      0.954  0.2914E+03  0.5164E+03
      0.978  0.2742E+03  0.5231E+03
      1.003  0.2369E+03  0.5289E+03
      1.027  0.2125E+03  0.5341E+03
      1.052  0.2177E+03  0.5395E+03
      1.076  0.2316E+03  0.5451E+03
      1.101  0.2341E+03  0.5509E+03
      1.125  0.2283E+03  0.5565E+03
      1.150  0.2321E+03  0.5622E+03
      1.174  0.2271E+03  0.5677E+03
      1.198  0.2097E+03  0.5728E+03
      1.223  0.2169E+03  0.5782E+03
      1.247  0.2482E+03  0.5842E+03
      1.272  0.2649E+03  0.5907E+03
      1.296  0.2547E+03  0.5969E+03
      1.321  0.2361E+03  0.6027E+03
      1.345  0.2234E+03  0.6082E+03
      1.370  0.2163E+03  0.6135E+03
      1.394  0.1944E+03  0.6183E+03
      1.419  0.1644E+03  0.6223E+03
      1.443  0.1683E+03  0.6264E+03
      1.468  0.1947E+03  0.6312E+03
      1.492  0.2057E+03  0.6362E+03
      1.517  0.1974E+03  0.6410E+03
      1.541  0.1794E+03  0.6454E+03
      1.566  0.1465E+03  0.6490E+03
      1.590  0.8944E+02  0.6512E+03
      1.615  0.4444E+02  0.6523E+03
      1.639  0.7409E+02  0.6541E+03
      1.664  0.1458E+03  0.6577E+03
      1.688  0.1594E+03  0.6616E+03
      1.713  0.1273E+03  0.6647E+03
      1.737  0.1327E+03  0.6679E+03
      1.762  0.1571E+03  0.6718E+03
      1.786  0.1817E+03  0.6762E+03
      1.810  0.1967E+03  0.6810E+03
      1.835  0.1917E+03  0.6857E+03
      1.859  0.1683E+03  0.6899E+03
      1.884  0.1230E+03  0.6929E+03
      1.908  0.8995E+02  0.6951E+03
      1.933  0.1151E+03  0.6979E+03
      1.957  0.1566E+03  0.7017E+03
      1.982  0.1823E+03  0.7062E+03
      2.006  0.1885E+03  0.7108E+03
      2.031  0.1953E+03  0.7156E+03
      2.055  0.1855E+03  0.7201E+03
      2.080  0.1665E+03  0.7242E+03
      2.104  0.1728E+03  0.7284E+03
      2.129  0.1991E+03  0.7333E+03
      2.153  0.2140E+03  0.7385E+03
      2.178  0.1982E+03  0.7434E+03
      2.202  0.1721E+03  0.7476E+03
      2.227  0.1502E+03  0.7513E+03
      2.251  0.1371E+03  0.7546E+03
      2.276  0.1483E+03  0.7583E+03
      2.300  0.1618E+03  0.7622E+03
      2.325  0.1648E+03  0.7663E+03
      2.349  0.1540E+03  0.7700E+03
      2.374  0.1460E+03  0.7736E+03
      2.398  0.1480E+03  0.7772E+03
      2.423  0.1296E+03  0.7804E+03
      2.447  0.9210E+02  0.7827E+03
      2.471  0.6170E+02  0.7842E+03
      2.496  0.7163E+02  0.7859E+03
      2.520  0.1044E+03  0.7885E+03
      2.545  0.1142E+03  0.7913E+03
      2.569  0.1054E+03  0.7939E+03
      2.594  0.6616E+02  0.7955E+03
      2.618  0.1914E+02  0.7959E+03
      2.643  0.2435E+01  0.7960E+03
      2.667  0.7718E+01  0.7962E+03
      2.692  0.4551E+02  0.7973E+03
      2.716  0.9399E+02  0.7996E+03
      2.741  0.7275E+02  0.8014E+03
      2.765  0.2210E+02  0.8019E+03
      2.790  0.2555E+01  0.8020E+03
      2.814  0.1024E+00  0.8020E+03
      2.839  0.2535E-01  0.8020E+03
      2.863  0.8398E+00  0.8020E+03
      2.888  0.9607E+01  0.8023E+03
      2.912  0.4226E+02  0.8033E+03
      2.937  0.8693E+02  0.8054E+03
      2.961  0.1025E+03  0.8079E+03
      2.986  0.9992E+02  0.8104E+03
      3.010  0.9766E+02  0.8128E+03
      3.035  0.9579E+02  0.8151E+03
      3.059  0.8687E+02  0.8172E+03
      3.084  0.7886E+02  0.8192E+03
      3.108  0.1008E+03  0.8216E+03
      3.132  0.1212E+03  0.8246E+03
      3.157  0.1302E+03  0.8278E+03
      3.181  0.1436E+03  0.8313E+03
      3.206  0.1584E+03  0.8352E+03
      3.230  0.1452E+03  0.8387E+03
      3.255  0.1019E+03  0.8412E+03
      3.279  0.7366E+02  0.8430E+03
      3.304  0.8862E+02  0.8452E+03
      3.328  0.7768E+02  0.8471E+03
      3.353  0.3129E+02  0.8479E+03
      3.377  0.7720E+01  0.8481E+03
      3.402  0.1960E+02  0.8485E+03
      3.426  0.5109E+02  0.8498E+03
      3.451  0.6220E+02  0.8513E+03
      3.475  0.5680E+02  0.8527E+03
      3.500  0.7785E+02  0.8546E+03
      3.524  0.1075E+03  0.8572E+03
      3.549  0.1093E+03  0.8599E+03
      3.573  0.7796E+02  0.8618E+03
      3.598  0.5994E+02  0.8633E+03
      3.622  0.6190E+02  0.8648E+03
      3.647  0.3776E+02  0.8657E+03
      3.671  0.9850E+01  0.8660E+03
      3.696  0.9632E+00  0.8660E+03
      3.720  0.3182E-01  0.8660E+03
      3.744  0.3273E-03  0.8660E+03
      3.769  0.9884E-06  0.8660E+03
      3.793  0.8434E-09  0.8660E+03
      3.818  0.1973E-12  0.8660E+03
      3.842  0.0000E+00  0.8660E+03
      3.867  0.0000E+00  0.8660E+03
      3.891  0.0000E+00  0.8660E+03
      3.916  0.0000E+00  0.8660E+03
      3.940  0.0000E+00  0.8660E+03
      3.965  0.0000E+00  0.8660E+03
