 running on   64 total cores
 distrk:  each k-point on   32 cores,    2 groups
 distr:  one band on   32 cores,    1 groups
 vasp.6.2.1 16May21 (build Nov 23 2021 15:40:41) complex                        
  
 POSCAR found type information on POSCAR Li
 POSCAR found :  1 types and     432 ions
 scaLAPACK will be used
 -----------------------------------------------------------------------------
|                                                                             |
|           W    W    AA    RRRRR   N    N  II  N    N   GGGG   !!!           |
|           W    W   A  A   R    R  NN   N  II  NN   N  G    G  !!!           |
|           W    W  A    A  R    R  N N  N  II  N N  N  G       !!!           |
|           W WW W  AAAAAA  RRRRR   N  N N  II  N  N N  G  GGG   !            |
|           WW  WW  A    A  R   R   N   NN  II  N   NN  G    G                |
|           W    W  A    A  R    R  N    N  II  N    N   GGGG   !!!           |
|                                                                             |
|     For optimal performance we recommend to set                             |
|       NCORE = 2 up to number-of-cores-per-socket                            |
|     NCORE specifies how many cores store one orbital (NPAR=cpu/NCORE).      |
|     This setting can greatly improve the performance of VASP for DFT.       |
|     The default, NCORE=1 might be grossly inefficient on modern             |
|     multi-core architectures or massively parallel machines. Do your        |
|     own testing! More info at https://www.vasp.at/wiki/index.php/NCORE      |
|     Unfortunately you need to use the default for GW and RPA                |
|     calculations (for HF NCORE is supported but not extensively tested      |
|     yet).                                                                   |
|                                                                             |
 -----------------------------------------------------------------------------

 -----------------------------------------------------------------------------
|                                                                             |
|               ----> ADVICE to this user running VASP <----                  |
|                                                                             |
|     You have a (more or less) 'large supercell' and for larger cells it     |
|     might be more efficient to use real-space projection operators.         |
|     Therefore, try LREAL= Auto in the INCAR file.                           |
|     Mind: If you want to do very accurate calculations, keep the            |
|     reciprocal projection scheme (i.e. LREAL=.FALSE.).                      |
|                                                                             |
 -----------------------------------------------------------------------------

 LDA part: xc-table for Pade appr. of Perdew
 POSCAR found type information on POSCAR Li
 POSCAR found :  1 types and     432 ions
 POSCAR, INCAR and KPOINTS ok, starting setup
 FFT: planning ...
 WAVECAR not read
 entering main loop
       N       E                     dE             d eps       ncg     rms          rms(c)
DAV:   1    -0.244515393831E+03   -0.24452E+03   -0.10638E+05  3464   0.661E+02
DAV:   2    -0.771095832441E+03   -0.52658E+03   -0.48191E+03  3988   0.686E+01
DAV:   3    -0.807118886950E+03   -0.36023E+02   -0.32757E+02  4320   0.142E+01
DAV:   4    -0.808274758649E+03   -0.11559E+01   -0.11402E+01  3904   0.281E+00
DAV:   5    -0.808300012581E+03   -0.25254E-01   -0.25228E-01  4040   0.444E-01    0.718E+00
DAV:   6    -0.807363172469E+03    0.93684E+00   -0.66027E+00  3912   0.411E+00    0.634E+00
DAV:   7    -0.801904111487E+03    0.54591E+01   -0.58435E+00  3992   0.369E+00    0.342E+00
DAV:   8    -0.800761240708E+03    0.11429E+01   -0.24927E+00  3896   0.171E+00    0.193E+00
DAV:   9    -0.800517696486E+03    0.24354E+00   -0.12798E+00  3736   0.942E-01    0.103E+00
DAV:  10    -0.800537612984E+03   -0.19916E-01   -0.20357E-01  4016   0.545E-01    0.853E-01
DAV:  11    -0.800462462271E+03    0.75151E-01   -0.97619E-02  3920   0.403E-01    0.417E-01
DAV:  12    -0.800456930408E+03    0.55319E-02   -0.32101E-02  3752   0.163E-01    0.187E-01
DAV:  13    -0.800456357610E+03    0.57280E-03   -0.80714E-03  3792   0.945E-02    0.107E-01
DAV:  14    -0.800456070649E+03    0.28696E-03   -0.17547E-03  3904   0.602E-02    0.779E-02
DAV:  15    -0.800455422133E+03    0.64852E-03   -0.69584E-04  3856   0.360E-02    0.335E-02
DAV:  16    -0.800455341921E+03    0.80212E-04   -0.43164E-04  3680   0.175E-02    0.132E-02
DAV:  17    -0.800455338553E+03    0.33681E-05   -0.60385E-05  4104   0.975E-03
   1 F= -.80045534E+03 E0= -.80040862E+03  d E =-.934371E-01
