Li                                      
           1
    20.227200    0.000000    0.000000
     0.000000   20.227200    0.000000
     0.000000    0.000000   20.227200
   Li
   432
Direct configuration=     1
   0.98617566  0.99394009  0.02348238
   0.90388530  0.09162559  0.08826425
   0.83095598  0.17071368  0.18296257
   0.74454308  0.24626953  0.27307123
   0.65146922  0.34386219  0.31812223
   0.58304913  0.41720292  0.39581063
   0.49748628  0.49511463  0.49206354
   0.41023426  0.58904187  0.58062632
   0.32604505  0.67088832  0.67235225
   0.25411135  0.76183207  0.75119539
   0.15219168  0.83516259  0.81256533
   0.08872142  0.91778793  0.91118388
   0.07381025  0.91953013  0.09124412
   0.99349388  0.00441279  0.17180980
   0.90489981  0.07810786  0.27320195
   0.83112265  0.17878778  0.34911312
   0.73748740  0.26512200  0.41376272
   0.65548455  0.32894458  0.49535319
   0.57657269  0.40097691  0.58769538
   0.50645725  0.50253108  0.65691332
   0.41568198  0.58389532  0.73993127
   0.32847894  0.66962440  0.82729777
   0.23785752  0.77373128  0.91729501
   0.16625506  0.83818452  0.00452713
   0.15668938  0.84437255  0.16947147
   0.07413285  0.91411604  0.26000186
   0.99662546  0.00208438  0.34568014
   0.91630468  0.07907823  0.41541380
   0.81624927  0.17762617  0.48747735
   0.74974466  0.25234398  0.58048543
   0.66923073  0.34010968  0.67119267
   0.58300332  0.42560356  0.74310268
   0.49350124  0.49692088  0.84425103
   0.40091070  0.56929804  0.90660475
   0.33037161  0.68215825  0.98097251
   0.25410917  0.74372364  0.08149677
   0.23551380  0.75998115  0.25565291
   0.15477727  0.82661534  0.35256763
   0.08035204  0.92380577  0.42568305
   0.99297668  0.99431205  0.51074162
   0.90586856  0.09177540  0.56877361
   0.83746198  0.16705739  0.65934658
   0.75079534  0.25001093  0.75575841
   0.64960766  0.33091974  0.82959794
   0.58132657  0.42114233  0.91788271
   0.49192503  0.50453928  0.01599415
   0.39363619  0.58843313  0.08032204
   0.35700571  0.67032699  0.18437630
   0.32812615  0.68045723  0.32921205
   0.24523492  0.75105427  0.41352526
   0.16147824  0.83808352  0.49603561
   0.08934450  0.93184332  0.57785452
   0.00466218  0.00912085  0.66014838
   0.90243021  0.07582912  0.74202645
   0.83948767  0.18187914  0.84177468
   0.74541813  0.24491888  0.92095874
   0.65367215  0.33721927  0.00393627
   0.57329966  0.41399750  0.09962388
   0.48707955  0.51112960  0.18120273
   0.42609848  0.57789264  0.25945360
   0.40986026  0.57376374  0.41477140
   0.33094687  0.66128738  0.51532773
   0.24363704  0.76283816  0.58528763
   0.15343758  0.85144169  0.67647122
   0.07683198  0.92872631  0.74059132
   0.99276658  0.00405570  0.84497960
   0.90944300  0.08333769  0.91693493
   0.84366393  0.17840768  0.99170314
   0.73759084  0.23164037  0.08372251
   0.68261724  0.33024812  0.16570894
   0.57601104  0.40794655  0.23483510
   0.49615109  0.48672685  0.33365725
   0.06909273  0.08640188  0.92874171
   0.99377111  0.16569056  0.00275602
   0.93066945  0.25285444  0.08016308
   0.83531940  0.33017983  0.16670717
   0.74215321  0.42262534  0.24153235
   0.66563522  0.49862378  0.32094498
   0.58335700  0.58534151  0.41633387
   0.50756230  0.67761159  0.48544442
   0.40826499  0.75899839  0.58889453
   0.34413684  0.85332827  0.67736021
   0.25698888  0.92039399  0.76456683
   0.17695903  0.01272129  0.84885611
   0.15162203  0.99532658  0.00395906
   0.07712280  0.09512943  0.08554719
   0.98249262  0.17451147  0.18488852
   0.91306297  0.24615098  0.27543849
   0.81568293  0.33791793  0.33888170
   0.73743976  0.42407258  0.42183400
   0.66547801  0.49485509  0.50828562
   0.58335958  0.59692023  0.57392039
   0.51484272  0.66217735  0.65909225
   0.42646980  0.73667978  0.75159086
   0.34096241  0.83649582  0.83061691
   0.25036075  0.92551397  0.91596935
   0.26195682  0.90207005  0.08277465
   0.17122765  0.01699398  0.17157318
   0.07976623  0.08539293  0.25176644
   0.00810557  0.16770772  0.34251689
   0.91382329  0.24991610  0.42544744
   0.83248005  0.34289951  0.49270535
   0.74018676  0.40506231  0.59554485
   0.65813665  0.50493673  0.67141205
   0.55912945  0.58100778  0.74443964
   0.50229820  0.66724659  0.84753075
   0.42165157  0.75607080  0.91567420
   0.34087547  0.82092909  0.00008295
   0.33187637  0.82332966  0.17832569
   0.23872112  0.90972115  0.24898336
   0.16715030  0.00193903  0.33919488
   0.08140484  0.06836348  0.43098742
   0.99583411  0.16023710  0.49880227
   0.91821796  0.25751838  0.58450982
   0.83716153  0.33661350  0.66196839
   0.74098438  0.40854644  0.75398083
   0.66734756  0.50030218  0.82784243
   0.58264747  0.57955511  0.91308095
   0.46607749  0.65757184  0.99518515
   0.41521629  0.75494023  0.07641683
   0.42493313  0.75848934  0.27275189
   0.31981863  0.82931682  0.32362155
   0.25467911  0.91865863  0.40003330
   0.17814543  0.99114119  0.49530263
   0.08968935  0.08291601  0.58564344
   0.99432299  0.16479003  0.65610411
   0.92642164  0.26528893  0.75956207
   0.83109598  0.34127890  0.82429012
   0.75129611  0.41585705  0.91574029
   0.67471045  0.50401892  0.99156710
   0.58474643  0.59031546  0.08483947
   0.49151968  0.67212854  0.17045332
   0.48641447  0.67872208  0.34519617
   0.40299492  0.76126568  0.43371415
   0.31198667  0.85397786  0.49779616
   0.24006694  0.92706980  0.58972393
   0.17044575  0.00814513  0.66035194
   0.07949390  0.08285784  0.75087545
   0.99367115  0.17247666  0.82901470
   0.92937606  0.26581070  0.91374254
   0.84794476  0.34046991  0.00347104
   0.75364599  0.42400194  0.08668528
   0.65007937  0.51560691  0.16829065
   0.57773460  0.59622754  0.26753293
   0.15533620  0.16747420  0.83984412
   0.08608893  0.26414502  0.92341764
   0.99544065  0.34506451  0.01554177
   0.90836437  0.44162645  0.08940649
   0.82358544  0.49690620  0.17684376
   0.74304437  0.57049218  0.24886280
   0.67039102  0.67794445  0.32419298
   0.60578376  0.74787179  0.41190253
   0.49975005  0.83483731  0.49064467
   0.42215819  0.92058678  0.56119314
   0.34356878  0.98597448  0.66849064
   0.25011580  0.08617256  0.74121845
   0.25875560  0.09030270  0.92824490
   0.16485692  0.16621013  0.99485299
   0.06956226  0.27316093  0.08278040
   0.98551315  0.34698449  0.18151351
   0.90874141  0.43475240  0.26694532
   0.82787987  0.48945426  0.35295084
   0.72921588  0.59305559  0.42486988
   0.66340154  0.68147058  0.51789358
   0.57488694  0.76294726  0.58481634
   0.48903729  0.84256396  0.66016941
   0.41997625  0.91118274  0.75960802
   0.34981175  0.01464155  0.81985117
   0.34173777  0.99885827  0.00022657
   0.25445902  0.08619642  0.06834015
   0.16618219  0.17679258  0.14468244
   0.08936727  0.24786496  0.24756603
   0.98967878  0.32665426  0.33796121
   0.92101882  0.42087924  0.43344163
   0.81783870  0.51480652  0.50390878
   0.73116677  0.58518496  0.58916432
   0.64976196  0.66325964  0.67827931
   0.55593801  0.74541984  0.75609627
   0.51248473  0.83456102  0.84361947
   0.41462832  0.92314315  0.92188056
   0.42978667  0.89742028  0.08450071
   0.33788604  0.98105416  0.15144284
   0.26132136  0.08234618  0.24261985
   0.16507407  0.16025747  0.33926944
   0.08941925  0.24880871  0.42882950
   0.00429029  0.32594559  0.50637186
   0.92625778  0.41200122  0.57376522
   0.83012501  0.48070775  0.66619534
   0.75952184  0.57945232  0.74599396
   0.67328583  0.65827063  0.82850326
   0.59231378  0.73719303  0.92868978
   0.52124887  0.83285636  0.99606694
   0.49597789  0.82888755  0.17574148
   0.42782900  0.92430153  0.24817932
   0.33924770  0.99539769  0.31301721
   0.26031541  0.07967851  0.40744072
   0.18621437  0.14516869  0.49387396
   0.10034782  0.23754233  0.57134909
   0.01896512  0.31941328  0.64733703
   0.92903022  0.41645603  0.74027870
   0.83090612  0.49544337  0.81998939
   0.75183447  0.57877561  0.90031587
   0.67794293  0.65508106  0.99640697
   0.58285302  0.74963795  0.06396883
   0.56241225  0.74386272  0.25862407
   0.48651907  0.84182248  0.34334504
   0.41417142  0.92049371  0.40145803
   0.33802694  0.99262876  0.48271103
   0.27850857  0.07793027  0.57802043
   0.17425946  0.15664263  0.66307578
   0.08781584  0.24768007  0.74898156
   0.00915914  0.34742029  0.83801170
   0.91981310  0.43195594  0.91003874
   0.81861873  0.50520729  0.99476549
   0.75428709  0.58013742  0.08549334
   0.65918282  0.66311543  0.17960151
   0.26451005  0.25400246  0.75315288
   0.17312241  0.33368769  0.81638117
   0.07071113  0.42781239  0.92869993
   0.00384511  0.51128532  0.99352624
   0.90882130  0.57065543  0.08081914
   0.82670902  0.67305295  0.16718175
   0.74629396  0.76467139  0.25390463
   0.65510193  0.84927986  0.32661001
   0.57436592  0.93521460  0.41333078
   0.50770096  0.00320182  0.48848720
   0.41171267  0.07111417  0.56603792
   0.34452457  0.15271430  0.67152940
   0.35614693  0.16070905  0.82811513
   0.24933510  0.25257999  0.90443967
   0.17521596  0.35609428  0.00116276
   0.07044287  0.44342006  0.08974568
   0.00860216  0.51702728  0.17183754
   0.90313206  0.58065556  0.25684781
   0.83849419  0.66142544  0.32970977
   0.73553370  0.75929368  0.41946729
   0.66867448  0.83892776  0.49284324
   0.57677638  0.91710886  0.57275122
   0.48974671  0.99130847  0.65877579
   0.44292441  0.07451369  0.74738076
   0.42886936  0.08907755  0.92984454
   0.33998709  0.17007895  0.00429312
   0.24964740  0.25161034  0.06999807
   0.16042343  0.33896681  0.15873115
   0.08045167  0.41524115  0.25655426
   0.99525492  0.51599682  0.33649194
   0.91509860  0.58230904  0.42727378
   0.82908515  0.67767601  0.49431299
   0.72169226  0.76028730  0.59703558
   0.65616729  0.83980253  0.67406186
   0.56996348  0.92950930  0.74930464
   0.50810668  0.98690504  0.85311293
   0.50542051  0.00561075  0.99281441
   0.40276169  0.07875681  0.08299583
   0.33897660  0.17307017  0.16869758
   0.24211077  0.24261389  0.25811914
   0.15829382  0.32513622  0.34853001
   0.06443774  0.42492038  0.41644552
   0.00740000  0.51914287  0.50280059
   0.91698730  0.59459401  0.58333037
   0.82443433  0.66887449  0.65552432
   0.75327328  0.75769460  0.74182931
   0.65714303  0.84008053  0.84382090
   0.59246980  0.91652072  0.92891675
   0.58167794  0.90307873  0.09493341
   0.50525189  0.01373693  0.14590234
   0.41950482  0.08248432  0.23833443
   0.34017061  0.15519805  0.34594972
   0.25066634  0.25117912  0.42154404
   0.18157360  0.34160629  0.49296079
   0.09445982  0.41468658  0.56469814
   0.01841011  0.49090155  0.64970705
   0.92515343  0.57390885  0.72220046
   0.85014778  0.65409469  0.81388758
   0.77252757  0.73877508  0.88171644
   0.68599985  0.81459692  0.99412564
   0.65920348  0.81044070  0.15305314
   0.57149377  0.91334151  0.23282211
   0.50731444  0.99774278  0.33502899
   0.41173238  0.08091719  0.40716823
   0.34922317  0.15792186  0.49469221
   0.26590493  0.23355518  0.59862154
   0.17540305  0.32519984  0.66205260
   0.08349464  0.40468787  0.75311559
   0.99852136  0.50982921  0.81834217
   0.91141334  0.56603966  0.91544443
   0.85057659  0.65597685  0.99406820
   0.75871665  0.73634492  0.08819313
   0.34290726  0.33260720  0.66277681
   0.25516626  0.42074791  0.75506057
   0.16605389  0.49409221  0.82342798
   0.07179911  0.56912779  0.92222126
   0.00699457  0.64994778  0.00353018
   0.91576263  0.72761701  0.08054630
   0.83525238  0.82080295  0.18404687
   0.75086974  0.91768143  0.23660331
   0.66318805  0.98860223  0.31704581
   0.58862984  0.09583144  0.40345170
   0.51210409  0.15344145  0.50129364
   0.42006497  0.23750573  0.58317715
   0.42962618  0.24332097  0.73549244
   0.35009641  0.34352655  0.83252196
   0.26326612  0.42328310  0.90120499
   0.17351036  0.49031451  0.01112976
   0.08582406  0.57814216  0.09078102
   0.99179767  0.65211826  0.15910291
   0.90822980  0.74282056  0.25204976
   0.83201998  0.83362897  0.34964150
   0.73687168  0.92140647  0.41645981
   0.66986550  0.99859159  0.50512427
   0.58320488  0.07155054  0.59060145
   0.49733037  0.14711934  0.64738513
   0.50634913  0.17112825  0.83415469
   0.42739593  0.24732781  0.93037679
   0.32081627  0.34600991  0.00223230
   0.27390062  0.41741936  0.08998793
   0.19005095  0.49901594  0.16620133
   0.08796625  0.58589414  0.25880524
   0.99475888  0.66360160  0.32331896
   0.92254741  0.74624355  0.42126794
   0.83037074  0.83692718  0.50594961
   0.74056423  0.92161925  0.59573714
   0.67799026  0.98916736  0.67656802
   0.57468788  0.06729424  0.75964333
   0.59592560  0.07476195  0.93019357
   0.50900496  0.16721255  0.01146651
   0.42011890  0.24526267  0.09262210
   0.33860646  0.31179287  0.16052425
   0.25456922  0.41611337  0.24525244
   0.17894127  0.50841152  0.33954149
   0.07562538  0.58128612  0.43074139
   0.00447757  0.66615889  0.50873307
   0.92077154  0.73877892  0.57910144
   0.84233248  0.82747382  0.66379837
   0.76172258  0.92336190  0.73469393
   0.68198342  0.00366954  0.84577252
   0.66981843  0.99972960  0.02242196
   0.59848383  0.09173106  0.08582377
   0.51127892  0.16334760  0.16040597
   0.42623173  0.23899871  0.24987073
   0.33623380  0.32214954  0.31334319
   0.26255885  0.40412721  0.40848381
   0.18270565  0.49268282  0.49506159
   0.11207144  0.58758641  0.58466032
   0.99426542  0.65403498  0.66101714
   0.93878632  0.75140441  0.74900320
   0.85961317  0.83777607  0.82178564
   0.75598111  0.91122123  0.92697925
   0.75457132  0.90003665  0.09171525
   0.67318852  0.99791061  0.15179368
   0.58643583  0.07375572  0.22998624
   0.49691818  0.15849265  0.32022913
   0.41304111  0.23466768  0.41159141
   0.34086543  0.32467636  0.50366817
   0.25614203  0.41974066  0.58362628
   0.17120925  0.49235095  0.66136505
   0.10189998  0.58239755  0.71906565
   0.99764298  0.65732611  0.83088283
   0.93100024  0.74851501  0.92202995
   0.82772221  0.81244623  0.99614751
   0.43760161  0.41095440  0.56818580
   0.34482997  0.48494710  0.65724460
   0.24876491  0.57225709  0.72946133
   0.17258151  0.67036135  0.82712191
   0.08436818  0.74401340  0.92065752
   0.00428600  0.82120542  0.00331110
   0.92036359  0.89874686  0.09202366
   0.83866543  0.98983360  0.16443368
   0.77284287  0.07706368  0.25921487
   0.65822120  0.16218919  0.32200771
   0.58078559  0.25562951  0.41235707
   0.49614478  0.31744261  0.48352975
   0.49630745  0.32408231  0.65655450
   0.42450510  0.41805159  0.73741474
   0.33640388  0.50434047  0.82455943
   0.24269156  0.57506472  0.90953146
   0.16328696  0.65749791  0.99174323
   0.08894357  0.74115309  0.08648748
   0.00450196  0.82857761  0.16377902
   0.91104325  0.92115403  0.25234643
   0.83092122  0.98917782  0.34673997
   0.74161582  0.09075141  0.41067181
   0.66545688  0.16915898  0.50118096
   0.59232223  0.24322777  0.58378802
   0.57061637  0.25310715  0.74110911
   0.49885354  0.34181420  0.83618759
   0.42335046  0.41044638  0.91349260
   0.33206851  0.50553094  0.00365828
   0.26351052  0.58717149  0.08241042
   0.17098599  0.66313216  0.15546838
   0.07382142  0.75178156  0.23476602
   0.99729387  0.84080450  0.33532327
   0.91144825  0.90546114  0.42577272
   0.83088724  0.01170769  0.50031798
   0.75397598  0.08963769  0.57816551
   0.66034935  0.17016645  0.68046273
   0.65228294  0.16358498  0.83571325
   0.57360934  0.25453826  0.92674845
   0.49935243  0.34187196  0.00871830
   0.41127538  0.41361367  0.10356379
   0.31849406  0.50621438  0.17274627
   0.24583661  0.57843295  0.24441681
   0.15136595  0.66494325  0.33602416
   0.06787652  0.75012466  0.41521373
   0.00309286  0.84753793  0.51197386
   0.90914355  0.91272805  0.60725373
   0.82780042  0.01062837  0.65508078
   0.75256947  0.08451926  0.75322844
   0.74501301  0.08846417  0.93165517
   0.65956837  0.17533360  0.99779677
   0.58396034  0.25540378  0.09426750
   0.50592636  0.34001725  0.17937056
   0.41597204  0.42050179  0.26292892
   0.32375349  0.49831154  0.32712829
   0.25836069  0.58191319  0.41962232
   0.17209763  0.64756821  0.49102970
   0.09371695  0.75662462  0.58862046
   0.01025294  0.83641243  0.66203643
   0.91668756  0.91622915  0.73617305
   0.81621080  0.00126076  0.82501979
   0.82285950  0.98124135  0.00953634
   0.75903414  0.09347888  0.07245864
   0.67914300  0.17047466  0.17335604
   0.58585396  0.23782303  0.24270742
   0.49607191  0.31329652  0.34001058
   0.40117021  0.40436387  0.40624331
   0.31722775  0.49273341  0.50577701
   0.24559458  0.57890912  0.59588718
   0.17920266  0.68808851  0.67298367
   0.07889991  0.74903371  0.74873338
   0.00680909  0.83887515  0.83181694
   0.90678049  0.91176231  0.92691259
