 432 432   0   0
  0.2356206E+02  0.2167200E-08  0.2167200E-08  0.2167200E-08  0.5000000E-15
  1.000000000000000E-004
  CAR 
 Li                                      
      2.77741049     -3.58639357  301      0.02249880      1.00000000
     -3.586  0.0000E+00  0.0000E+00
     -3.565  0.0000E+00  0.0000E+00
     -3.544  0.0000E+00  0.0000E+00
     -3.523  0.0000E+00  0.0000E+00
     -3.502  0.0000E+00  0.0000E+00
     -3.480  0.0000E+00  0.0000E+00
     -3.459  0.1570E-13  0.3331E-15
     -3.438  0.4193E-10  0.8898E-12
     -3.417  0.3728E-07  0.7917E-09
     -3.395  0.1247E-04  0.2652E-06
     -3.374  0.1578E-02  0.3374E-04
     -3.353  0.7626E-01  0.1651E-02
     -3.332  0.1422E+01  0.3182E-01
     -3.311  0.1036E+02  0.2515E+00
     -3.289  0.2979E+02  0.8833E+00
     -3.268  0.3409E+02  0.1607E+01
     -3.247  0.1568E+02  0.1939E+01
     -3.226  0.5022E+01  0.2046E+01
     -3.205  0.1517E+02  0.2367E+01
     -3.183  0.4652E+02  0.3354E+01
     -3.162  0.7840E+02  0.5017E+01
     -3.141  0.8011E+02  0.6717E+01
     -3.120  0.4623E+02  0.7697E+01
     -3.099  0.1616E+02  0.8040E+01
     -3.077  0.2092E+02  0.8484E+01
     -3.056  0.5360E+02  0.9621E+01
     -3.035  0.8181E+02  0.1136E+02
     -3.014  0.7539E+02  0.1296E+02
     -2.992  0.3943E+02  0.1379E+02
     -2.971  0.1737E+02  0.1416E+02
     -2.950  0.3509E+02  0.1490E+02
     -2.929  0.7790E+02  0.1656E+02
     -2.908  0.1077E+03  0.1884E+02
     -2.886  0.9299E+02  0.2081E+02
     -2.865  0.4904E+02  0.2185E+02
     -2.844  0.3423E+02  0.2258E+02
     -2.823  0.6799E+02  0.2402E+02
     -2.802  0.1173E+03  0.2651E+02
     -2.780  0.1415E+03  0.2951E+02
     -2.759  0.1201E+03  0.3206E+02
     -2.738  0.6748E+02  0.3349E+02
     -2.717  0.2798E+02  0.3409E+02
     -2.695  0.3533E+02  0.3484E+02
     -2.674  0.7523E+02  0.3643E+02
     -2.653  0.9252E+02  0.3839E+02
     -2.632  0.5853E+02  0.3964E+02
     -2.611  0.2709E+02  0.4021E+02
     -2.589  0.4518E+02  0.4117E+02
     -2.568  0.9286E+02  0.4314E+02
     -2.547  0.1320E+03  0.4594E+02
     -2.526  0.1394E+03  0.4890E+02
     -2.505  0.1014E+03  0.5105E+02
     -2.483  0.6236E+02  0.5237E+02
     -2.462  0.7943E+02  0.5406E+02
     -2.441  0.1333E+03  0.5688E+02
     -2.420  0.1720E+03  0.6053E+02
     -2.398  0.1733E+03  0.6421E+02
     -2.377  0.1443E+03  0.6727E+02
     -2.356  0.9241E+02  0.6923E+02
     -2.335  0.5146E+02  0.7032E+02
     -2.314  0.5918E+02  0.7158E+02
     -2.292  0.8179E+02  0.7331E+02
     -2.271  0.7480E+02  0.7490E+02
     -2.250  0.4555E+02  0.7587E+02
     -2.229  0.3991E+02  0.7671E+02
     -2.208  0.7939E+02  0.7840E+02
     -2.186  0.1299E+03  0.8115E+02
     -2.165  0.1521E+03  0.8438E+02
     -2.144  0.1368E+03  0.8728E+02
     -2.123  0.9765E+02  0.8935E+02
     -2.102  0.7951E+02  0.9104E+02
     -2.080  0.1127E+03  0.9343E+02
     -2.059  0.1581E+03  0.9679E+02
     -2.038  0.1787E+03  0.1006E+03
     -2.017  0.1660E+03  0.1041E+03
     -1.995  0.1209E+03  0.1067E+03
     -1.974  0.7714E+02  0.1083E+03
     -1.953  0.8283E+02  0.1101E+03
     -1.932  0.1149E+03  0.1125E+03
     -1.911  0.1296E+03  0.1152E+03
     -1.889  0.1225E+03  0.1178E+03
     -1.868  0.9586E+02  0.1199E+03
     -1.847  0.9695E+02  0.1219E+03
     -1.826  0.1397E+03  0.1249E+03
     -1.805  0.1770E+03  0.1287E+03
     -1.783  0.1850E+03  0.1326E+03
     -1.762  0.1514E+03  0.1358E+03
     -1.741  0.9894E+02  0.1379E+03
     -1.720  0.8823E+02  0.1398E+03
     -1.698  0.1273E+03  0.1425E+03
     -1.677  0.1712E+03  0.1461E+03
     -1.656  0.1841E+03  0.1500E+03
     -1.635  0.1525E+03  0.1532E+03
     -1.614  0.1079E+03  0.1555E+03
     -1.592  0.9063E+02  0.1574E+03
     -1.571  0.1042E+03  0.1597E+03
     -1.550  0.1206E+03  0.1622E+03
     -1.529  0.1183E+03  0.1647E+03
     -1.508  0.9529E+02  0.1667E+03
     -1.486  0.7421E+02  0.1683E+03
     -1.465  0.8436E+02  0.1701E+03
     -1.444  0.1176E+03  0.1726E+03
     -1.423  0.1410E+03  0.1756E+03
     -1.401  0.1334E+03  0.1784E+03
     -1.380  0.1243E+03  0.1811E+03
     -1.359  0.1552E+03  0.1843E+03
     -1.338  0.2066E+03  0.1887E+03
     -1.317  0.2436E+03  0.1939E+03
     -1.295  0.2499E+03  0.1992E+03
     -1.274  0.2261E+03  0.2040E+03
     -1.253  0.1845E+03  0.2079E+03
     -1.232  0.1492E+03  0.2111E+03
     -1.211  0.1503E+03  0.2143E+03
     -1.189  0.1657E+03  0.2178E+03
     -1.168  0.1685E+03  0.2214E+03
     -1.147  0.1562E+03  0.2247E+03
     -1.126  0.1216E+03  0.2272E+03
     -1.105  0.9753E+02  0.2293E+03
     -1.083  0.1214E+03  0.2319E+03
     -1.062  0.1535E+03  0.2351E+03
     -1.041  0.1551E+03  0.2384E+03
     -1.020  0.1304E+03  0.2412E+03
     -0.998  0.1265E+03  0.2439E+03
     -0.977  0.1620E+03  0.2473E+03
     -0.956  0.1992E+03  0.2515E+03
     -0.935  0.2138E+03  0.2561E+03
     -0.914  0.1985E+03  0.2603E+03
     -0.892  0.1596E+03  0.2637E+03
     -0.871  0.1237E+03  0.2663E+03
     -0.850  0.1122E+03  0.2687E+03
     -0.829  0.1003E+03  0.2708E+03
     -0.808  0.7796E+02  0.2725E+03
     -0.786  0.9179E+02  0.2744E+03
     -0.765  0.1416E+03  0.2774E+03
     -0.744  0.1978E+03  0.2816E+03
     -0.723  0.2341E+03  0.2866E+03
     -0.701  0.2352E+03  0.2916E+03
     -0.680  0.2168E+03  0.2962E+03
     -0.659  0.1955E+03  0.3003E+03
     -0.638  0.1799E+03  0.3041E+03
     -0.617  0.1914E+03  0.3082E+03
     -0.595  0.2217E+03  0.3129E+03
     -0.574  0.2432E+03  0.3180E+03
     -0.553  0.2457E+03  0.3233E+03
     -0.532  0.2190E+03  0.3279E+03
     -0.511  0.1719E+03  0.3316E+03
     -0.489  0.1325E+03  0.3344E+03
     -0.468  0.1312E+03  0.3371E+03
     -0.447  0.1548E+03  0.3404E+03
     -0.426  0.1682E+03  0.3440E+03
     -0.404  0.1794E+03  0.3478E+03
     -0.383  0.2012E+03  0.3521E+03
     -0.362  0.2232E+03  0.3568E+03
     -0.341  0.2335E+03  0.3618E+03
     -0.320  0.2261E+03  0.3666E+03
     -0.298  0.2103E+03  0.3710E+03
     -0.277  0.2025E+03  0.3753E+03
     -0.256  0.2032E+03  0.3796E+03
     -0.235  0.2029E+03  0.3839E+03
     -0.214  0.2007E+03  0.3882E+03
     -0.192  0.1988E+03  0.3924E+03
     -0.171  0.1969E+03  0.3966E+03
     -0.150  0.1839E+03  0.4005E+03
     -0.129  0.1606E+03  0.4039E+03
     -0.108  0.1518E+03  0.4071E+03
     -0.086  0.1622E+03  0.4105E+03
     -0.065  0.1832E+03  0.4144E+03
     -0.044  0.2020E+03  0.4187E+03
     -0.023  0.2000E+03  0.4230E+03
     -0.001  0.1948E+03  0.4271E+03
      0.020  0.2044E+03  0.4314E+03
      0.041  0.2101E+03  0.4359E+03
      0.062  0.2050E+03  0.4402E+03
      0.083  0.1995E+03  0.4445E+03
      0.105  0.2017E+03  0.4487E+03
      0.126  0.2087E+03  0.4532E+03
      0.147  0.2165E+03  0.4578E+03
      0.168  0.2177E+03  0.4624E+03
      0.189  0.2083E+03  0.4668E+03
      0.211  0.2085E+03  0.4712E+03
      0.232  0.2138E+03  0.4758E+03
      0.253  0.2115E+03  0.4802E+03
      0.274  0.2178E+03  0.4849E+03
      0.296  0.2347E+03  0.4898E+03
      0.317  0.2492E+03  0.4951E+03
      0.338  0.2573E+03  0.5006E+03
      0.359  0.2561E+03  0.5060E+03
      0.380  0.2489E+03  0.5113E+03
      0.402  0.2446E+03  0.5165E+03
      0.423  0.2449E+03  0.5217E+03
      0.444  0.2463E+03  0.5269E+03
      0.465  0.2398E+03  0.5320E+03
      0.486  0.2377E+03  0.5370E+03
      0.508  0.2459E+03  0.5423E+03
      0.529  0.2436E+03  0.5474E+03
      0.550  0.2311E+03  0.5523E+03
      0.571  0.2182E+03  0.5570E+03
      0.593  0.2160E+03  0.5615E+03
      0.614  0.2295E+03  0.5664E+03
      0.635  0.2407E+03  0.5715E+03
      0.656  0.2394E+03  0.5766E+03
      0.677  0.2356E+03  0.5816E+03
      0.699  0.2321E+03  0.5865E+03
      0.720  0.2258E+03  0.5913E+03
      0.741  0.2249E+03  0.5961E+03
      0.762  0.2254E+03  0.6009E+03
      0.783  0.2167E+03  0.6054E+03
      0.805  0.2021E+03  0.6097E+03
      0.826  0.1947E+03  0.6139E+03
      0.847  0.1963E+03  0.6180E+03
      0.868  0.1889E+03  0.6220E+03
      0.889  0.1826E+03  0.6259E+03
      0.911  0.1882E+03  0.6299E+03
      0.932  0.1910E+03  0.6340E+03
      0.953  0.1847E+03  0.6379E+03
      0.974  0.1833E+03  0.6418E+03
      0.996  0.1900E+03  0.6458E+03
      1.017  0.1970E+03  0.6500E+03
      1.038  0.1905E+03  0.6540E+03
      1.059  0.1724E+03  0.6577E+03
      1.080  0.1681E+03  0.6612E+03
      1.102  0.1764E+03  0.6650E+03
      1.123  0.1803E+03  0.6688E+03
      1.144  0.1790E+03  0.6726E+03
      1.165  0.1866E+03  0.6766E+03
      1.186  0.1957E+03  0.6807E+03
      1.208  0.1938E+03  0.6848E+03
      1.229  0.1883E+03  0.6888E+03
      1.250  0.1813E+03  0.6927E+03
      1.271  0.1788E+03  0.6964E+03
      1.293  0.1863E+03  0.7004E+03
      1.314  0.1953E+03  0.7045E+03
      1.335  0.2013E+03  0.7088E+03
      1.356  0.1977E+03  0.7130E+03
      1.377  0.1917E+03  0.7171E+03
      1.399  0.1952E+03  0.7212E+03
      1.420  0.1931E+03  0.7253E+03
      1.441  0.1766E+03  0.7291E+03
      1.462  0.1694E+03  0.7327E+03
      1.483  0.1796E+03  0.7365E+03
      1.505  0.1797E+03  0.7403E+03
      1.526  0.1742E+03  0.7440E+03
      1.547  0.1799E+03  0.7478E+03
      1.568  0.1800E+03  0.7516E+03
      1.590  0.1702E+03  0.7552E+03
      1.611  0.1552E+03  0.7585E+03
      1.632  0.1480E+03  0.7616E+03
      1.653  0.1535E+03  0.7649E+03
      1.674  0.1494E+03  0.7681E+03
      1.696  0.1349E+03  0.7709E+03
      1.717  0.1360E+03  0.7738E+03
      1.738  0.1373E+03  0.7767E+03
      1.759  0.1286E+03  0.7795E+03
      1.780  0.1282E+03  0.7822E+03
      1.802  0.1292E+03  0.7849E+03
      1.823  0.1208E+03  0.7875E+03
      1.844  0.1054E+03  0.7897E+03
      1.865  0.9577E+02  0.7917E+03
      1.886  0.8465E+02  0.7935E+03
      1.908  0.6485E+02  0.7949E+03
      1.929  0.4792E+02  0.7959E+03
      1.950  0.4649E+02  0.7969E+03
      1.971  0.6593E+02  0.7983E+03
      1.993  0.8559E+02  0.8001E+03
      2.014  0.8685E+02  0.8020E+03
      2.035  0.8405E+02  0.8038E+03
      2.056  0.9540E+02  0.8058E+03
      2.077  0.1086E+03  0.8081E+03
      2.099  0.1170E+03  0.8106E+03
      2.120  0.1279E+03  0.8133E+03
      2.141  0.1359E+03  0.8162E+03
      2.162  0.1430E+03  0.8192E+03
      2.183  0.1505E+03  0.8224E+03
      2.205  0.1500E+03  0.8256E+03
      2.226  0.1410E+03  0.8286E+03
      2.247  0.1432E+03  0.8316E+03
      2.268  0.1490E+03  0.8348E+03
      2.290  0.1446E+03  0.8378E+03
      2.311  0.1461E+03  0.8409E+03
      2.332  0.1517E+03  0.8442E+03
      2.353  0.1529E+03  0.8474E+03
      2.374  0.1492E+03  0.8506E+03
      2.396  0.1453E+03  0.8536E+03
      2.417  0.1487E+03  0.8568E+03
      2.438  0.1542E+03  0.8601E+03
      2.459  0.1415E+03  0.8631E+03
      2.480  0.9370E+02  0.8651E+03
      2.502  0.3646E+02  0.8658E+03
      2.523  0.7256E+01  0.8660E+03
      2.544  0.6805E+00  0.8660E+03
      2.565  0.2842E-01  0.8660E+03
      2.586  0.5035E-03  0.8660E+03
      2.608  0.3629E-05  0.8660E+03
      2.629  0.1031E-07  0.8660E+03
      2.650  0.1127E-10  0.8660E+03
      2.671  0.5234E-14  0.8660E+03
      2.693  0.0000E+00  0.8660E+03
      2.714  0.0000E+00  0.8660E+03
      2.735  0.0000E+00  0.8660E+03
      2.756  0.0000E+00  0.8660E+03
      2.777  0.0000E+00  0.8660E+03
