Li                                      
           1
    21.672000    0.000000    0.000000
     0.000000   21.672000    0.000000
     0.000000    0.000000   21.672000
   Li
   432
Direct configuration=     1
   0.02376682  0.98883207  0.01812501
   0.92097016  0.06623232  0.06999649
   0.85411260  0.16620014  0.19820903
   0.75814508  0.28153205  0.24262563
   0.64554409  0.36882808  0.35986853
   0.59168469  0.42119922  0.44165387
   0.50444384  0.48122297  0.50325239
   0.43800885  0.55851918  0.59156621
   0.32823684  0.63872080  0.67946578
   0.24373518  0.74477847  0.74780239
   0.13966917  0.83388993  0.83807384
   0.04567257  0.91133047  0.92116519
   0.09190929  0.90857955  0.10383622
   0.98021686  0.00069944  0.16370050
   0.88320907  0.06791465  0.25926349
   0.82932310  0.18748404  0.30049850
   0.72611482  0.26846265  0.40092825
   0.68853873  0.31230781  0.50933670
   0.59931345  0.41632363  0.56534732
   0.52458356  0.47764264  0.67123722
   0.44416142  0.56755049  0.78514171
   0.32635941  0.65753333  0.84330685
   0.23377076  0.77962060  0.91004665
   0.17072495  0.83881865  0.01637047
   0.16274282  0.84463968  0.18668776
   0.07334558  0.92824201  0.24428706
   0.98044732  0.99397463  0.33365780
   0.88734213  0.07254264  0.42337188
   0.80871144  0.17043948  0.46624700
   0.77815658  0.26079268  0.60172306
   0.67371879  0.32037058  0.64622601
   0.59554832  0.41151678  0.74645577
   0.49574518  0.49246529  0.85856418
   0.42486191  0.62355850  0.87575753
   0.32324403  0.67153292  0.97219750
   0.23310810  0.75860375  0.08135518
   0.21132437  0.76294876  0.24819837
   0.17137658  0.84687172  0.31766476
   0.05910112  0.90642887  0.41377557
   0.99650015  0.00404353  0.52187888
   0.88184558  0.07771078  0.54946463
   0.82394685  0.16030441  0.67539271
   0.74703479  0.26356750  0.69439680
   0.69931045  0.30923392  0.81872069
   0.60754562  0.40163542  0.92507976
   0.47678729  0.49104995  0.98350967
   0.39901835  0.59869947  0.06858492
   0.29920418  0.69222296  0.15163571
   0.31937465  0.67778905  0.34838815
   0.23358686  0.76925570  0.40397149
   0.16705174  0.84708361  0.52218355
   0.07427874  0.91457348  0.59062323
   0.98548644  0.01559815  0.66268610
   0.89840655  0.08172716  0.74923383
   0.81579170  0.18640233  0.81231712
   0.77024370  0.24365670  0.93573481
   0.70074230  0.35156548  0.98713894
   0.55002461  0.41462508  0.06574595
   0.47904874  0.49559240  0.15707327
   0.38978809  0.60100536  0.25217544
   0.44734764  0.59291531  0.41474667
   0.35624279  0.65790348  0.48968517
   0.24702223  0.73611434  0.58290714
   0.17668212  0.84699038  0.67928577
   0.05482740  0.91935428  0.76196106
   0.99948038  0.99834110  0.82842271
   0.91405368  0.08612568  0.91303534
   0.84675143  0.15963501  0.01106970
   0.77671027  0.25029874  0.06893026
   0.68299047  0.35775126  0.13820239
   0.58715936  0.40853649  0.24184350
   0.52560221  0.48246227  0.33717409
   0.06823345  0.08453453  0.91149271
   0.99551280  0.15470289  0.99872302
   0.92846889  0.22158491  0.08587292
   0.85791651  0.33399923  0.15255165
   0.76006032  0.43162291  0.26088996
   0.64996821  0.50024488  0.33682672
   0.58614981  0.57394480  0.45814534
   0.48638772  0.69506535  0.49749117
   0.39692425  0.75507189  0.59912565
   0.29412903  0.84174962  0.69407971
   0.24601993  0.93887991  0.78114992
   0.14589841  0.00078162  0.81959252
   0.13820477  0.99930925  0.97126773
   0.08411872  0.10190265  0.08652301
   0.98641807  0.11909880  0.20676755
   0.93642267  0.27254547  0.26110852
   0.82644962  0.36093885  0.32027416
   0.77223332  0.43733164  0.41565919
   0.68043031  0.47696170  0.47820221
   0.57285817  0.58158610  0.56315306
   0.49446071  0.66057393  0.65451982
   0.40964352  0.75002001  0.73707820
   0.35215458  0.83372328  0.82038436
   0.22096901  0.92499420  0.90267935
   0.25793184  0.94435733  0.09648033
   0.15714550  0.02226632  0.16208571
   0.07336880  0.07623698  0.27166758
   0.97806348  0.16832120  0.31775781
   0.93781680  0.24900596  0.37211360
   0.86088093  0.33354709  0.48866881
   0.74588613  0.43110577  0.60203631
   0.66034419  0.50605124  0.66293940
   0.57521310  0.55421362  0.75170545
   0.50715818  0.67209235  0.84019596
   0.42481822  0.75305017  0.90173137
   0.34859071  0.84208533  0.97323600
   0.34685116  0.82851399  0.15454599
   0.23513050  0.93473301  0.23593795
   0.15863735  0.99036674  0.35123443
   0.04359252  0.05584722  0.40716839
   0.00295780  0.16298127  0.49937774
   0.89540354  0.26014419  0.56347564
   0.83685582  0.33775954  0.67530192
   0.74523521  0.42686106  0.75422259
   0.68724663  0.49183380  0.83363210
   0.58665301  0.57081545  0.90967646
   0.50786164  0.66303261  0.00300596
   0.39369139  0.72471766  0.06765479
   0.41942722  0.73773784  0.23735223
   0.32027248  0.81604604  0.32887370
   0.25028551  0.91840439  0.41704148
   0.15195628  0.00414820  0.50415452
   0.07375795  0.11137651  0.58892967
   0.99688232  0.14974833  0.65436742
   0.94924209  0.22981726  0.72911624
   0.83407699  0.32908167  0.79190307
   0.78532247  0.42344889  0.89800430
   0.67795674  0.48489019  0.99448126
   0.56149498  0.54756795  0.04874788
   0.48462176  0.64953799  0.11177432
   0.49761480  0.65826471  0.32469333
   0.42145433  0.77980533  0.41463528
   0.33912592  0.82761614  0.51185196
   0.26309130  0.92713578  0.59249355
   0.14973693  0.99129867  0.67945054
   0.06495170  0.07192092  0.74228390
   0.00486084  0.17126793  0.81837441
   0.91037177  0.24040440  0.91728286
   0.85565961  0.33645419  0.99679182
   0.76458905  0.41067530  0.07658387
   0.65341709  0.52763154  0.14472711
   0.55281173  0.59271744  0.26310267
   0.13535506  0.15602412  0.81617267
   0.06906172  0.25076732  0.92011325
   0.01429033  0.34828281  0.99540758
   0.92725686  0.40132991  0.07893055
   0.84323395  0.48323107  0.16011729
   0.74386152  0.57703424  0.24221655
   0.63994722  0.65101947  0.33293021
   0.58452380  0.75463078  0.41371682
   0.48406104  0.85313299  0.50150483
   0.41169873  0.93398430  0.58855690
   0.31315935  0.02850286  0.65201435
   0.24121009  0.07327979  0.75393482
   0.23640644  0.09033716  0.88555055
   0.15871020  0.16455564  0.99853469
   0.06732678  0.22086472  0.09671002
   0.00866100  0.35434949  0.16801736
   0.91892494  0.42164555  0.22970937
   0.83721389  0.51536267  0.30939468
   0.75576563  0.59527720  0.41757853
   0.65238317  0.65845472  0.51239837
   0.55077442  0.76602482  0.58845560
   0.48769390  0.85494917  0.67394072
   0.40452890  0.89373963  0.75312606
   0.32208728  0.98750543  0.83251583
   0.31117251  0.98416192  0.00089659
   0.24576295  0.11715201  0.04839835
   0.17369115  0.16421949  0.16998601
   0.08628264  0.27921088  0.24720376
   0.02053726  0.37484058  0.31482784
   0.93298144  0.42689419  0.41061837
   0.84175053  0.50530226  0.52109714
   0.75273802  0.57285681  0.55267606
   0.65908168  0.64521928  0.66482912
   0.56849349  0.72763821  0.74162990
   0.48210044  0.80819054  0.81041567
   0.42491428  0.96043859  0.93567842
   0.44942308  0.93694106  0.09512503
   0.34152723  0.02620567  0.17155474
   0.24884326  0.09345097  0.23620368
   0.13264468  0.14668106  0.33150932
   0.07537376  0.24917102  0.41528340
   0.98198684  0.31245779  0.47580513
   0.90953463  0.39684414  0.58806029
   0.84892482  0.48622742  0.67336007
   0.74189284  0.59442861  0.73574328
   0.66036054  0.66940852  0.84706897
   0.59249580  0.74810102  0.93145296
   0.51333433  0.84271675  0.99409921
   0.49070194  0.82081744  0.15909377
   0.41258989  0.92198552  0.25750514
   0.32312159  0.99691033  0.31076859
   0.23721325  0.08585366  0.40222911
   0.13274309  0.14872523  0.48379535
   0.09136586  0.23765866  0.57486872
   0.98474116  0.31739057  0.66768552
   0.94123239  0.43207574  0.77170406
   0.84155513  0.53264558  0.83508198
   0.75927847  0.59472941  0.90543647
   0.65793195  0.65340507  0.99990671
   0.58094723  0.74506670  0.06177491
   0.56167507  0.72101761  0.19586926
   0.52751277  0.84561859  0.30805194
   0.42924686  0.92448967  0.38843258
   0.34321746  0.03161202  0.48867975
   0.22533433  0.08552315  0.59501742
   0.20005574  0.17924361  0.66737273
   0.05821007  0.23315729  0.72669945
   0.01683521  0.30919417  0.80858543
   0.93004481  0.41234130  0.90747109
   0.83027193  0.50321695  0.98938228
   0.74711708  0.60297506  0.07693110
   0.63396202  0.62171698  0.14613484
   0.22385853  0.24824568  0.71889945
   0.15894342  0.32998270  0.81152061
   0.08598230  0.41608192  0.89254318
   0.00049581  0.49603590  0.99204869
   0.93383810  0.57806936  0.11404040
   0.83223385  0.67613965  0.15835981
   0.73985328  0.72091128  0.23681705
   0.66736107  0.80525463  0.31447700
   0.57913765  0.91215654  0.42404975
   0.52857174  0.98459779  0.51492808
   0.40081109  0.08399804  0.59030584
   0.31718205  0.15258718  0.67280380
   0.33272761  0.19095933  0.82417942
   0.21381985  0.23289062  0.90153549
   0.15707378  0.31771615  0.01811987
   0.10573356  0.43060282  0.09085084
   0.03081771  0.51365507  0.17240028
   0.92819835  0.57472320  0.26195672
   0.85230734  0.65247386  0.35410264
   0.73549190  0.72344853  0.44257402
   0.65641787  0.83021723  0.50752071
   0.57926551  0.93206675  0.60662998
   0.48252159  0.02363505  0.68799820
   0.38103740  0.07333759  0.78004464
   0.40769802  0.08863543  0.90468612
   0.34860108  0.18103861  0.99137046
   0.25626645  0.21406502  0.09981298
   0.19791502  0.32018316  0.15752909
   0.10157686  0.41416467  0.23303126
   0.01484636  0.49206286  0.33013509
   0.94357825  0.56615596  0.41650815
   0.81882364  0.65162765  0.50721950
   0.75272497  0.72883794  0.57970796
   0.68101862  0.81642059  0.67396286
   0.58082415  0.95954420  0.74151416
   0.50872028  0.00273826  0.85418436
   0.50782940  0.01910796  0.00767989
   0.38747891  0.08026946  0.07389738
   0.32937627  0.15909508  0.18141450
   0.26874605  0.25294083  0.27227671
   0.18868072  0.33956655  0.35218128
   0.10145039  0.41401107  0.44239540
   0.01950851  0.49249610  0.51578277
   0.96184555  0.57654856  0.56574333
   0.81585501  0.66054640  0.64376837
   0.75428056  0.73620614  0.75329721
   0.65363693  0.83067693  0.80402985
   0.59286630  0.93849991  0.93141399
   0.57447781  0.92834836  0.07260757
   0.50787444  0.01672989  0.19486891
   0.43708357  0.09611296  0.28831141
   0.33503124  0.12003607  0.34643383
   0.25398650  0.23361585  0.41495190
   0.14860358  0.32423310  0.51328749
   0.07170422  0.39723736  0.56951582
   0.99163588  0.50323457  0.66173783
   0.90829573  0.60826552  0.74532662
   0.82774254  0.68586085  0.83111287
   0.72214508  0.75865735  0.91918376
   0.67976487  0.83975968  0.00710774
   0.67998941  0.82846113  0.15167994
   0.60122002  0.89832374  0.22037920
   0.51773510  0.01727099  0.31461430
   0.45835277  0.08492819  0.40475505
   0.32643937  0.13191106  0.50993577
   0.25325599  0.23816916  0.56826406
   0.18421348  0.32340247  0.68234092
   0.07059434  0.43657126  0.76396136
   0.02037598  0.55171941  0.85390954
   0.93149078  0.61335035  0.94048019
   0.84186996  0.65249499  0.00108663
   0.74135903  0.71964193  0.06548113
   0.33751627  0.34020394  0.65893954
   0.24504740  0.42910220  0.73982036
   0.17067298  0.49086804  0.82648196
   0.12512540  0.58855962  0.96707801
   0.00884469  0.69040204  0.00577817
   0.90926521  0.74457182  0.06386054
   0.83404440  0.79474281  0.13990104
   0.74985634  0.89539324  0.24072026
   0.66694417  0.00100547  0.32760375
   0.59075592  0.10639205  0.42535798
   0.50632820  0.15749093  0.52383124
   0.39497522  0.22183286  0.57721333
   0.42633868  0.27122519  0.72969535
   0.32137722  0.30117716  0.83348756
   0.23245664  0.39582105  0.89492031
   0.17569263  0.48453915  0.98781943
   0.10382077  0.58727481  0.07562981
   0.00798744  0.70100535  0.16127939
   0.91385752  0.74776105  0.26213919
   0.81930015  0.80701883  0.34970471
   0.71387153  0.90527699  0.41456392
   0.67235654  0.02546442  0.52309485
   0.58355990  0.08314329  0.59217628
   0.47819738  0.16612095  0.65994796
   0.50893935  0.16876650  0.82926310
   0.44004854  0.27170374  0.92200442
   0.32146641  0.30440399  0.98275998
   0.24298513  0.44490075  0.09798637
   0.20121648  0.51332872  0.17478574
   0.10373653  0.59240317  0.23312434
   0.01391570  0.65919175  0.34256251
   0.92730573  0.74786313  0.42798397
   0.82791583  0.84080039  0.50667602
   0.72621926  0.90470034  0.56925626
   0.67699419  0.01862928  0.68640988
   0.57636740  0.10089133  0.75004540
   0.55992221  0.08846895  0.92355544
   0.52882904  0.16840495  0.00413095
   0.40527772  0.25930009  0.11013014
   0.33086857  0.30249845  0.15938238
   0.28227116  0.43158883  0.27120071
   0.18258984  0.49722793  0.33872515
   0.10063462  0.59098509  0.43580656
   0.02974633  0.67637438  0.51370526
   0.91720810  0.74726113  0.58735556
   0.82626237  0.86245710  0.67240851
   0.74879129  0.92640019  0.78075344
   0.64953198  0.02749639  0.83882150
   0.67740910  0.01240992  0.01255583
   0.59213291  0.08173585  0.12954483
   0.49850128  0.18263510  0.18075049
   0.40216627  0.24864896  0.26421665
   0.35171495  0.32793153  0.33624909
   0.26850422  0.42207640  0.42727099
   0.18280134  0.49636582  0.53793495
   0.09226357  0.57690731  0.57182661
   0.01145218  0.67565522  0.67274628
   0.91132986  0.73634378  0.74330633
   0.82991279  0.83620406  0.86268882
   0.72200474  0.91665481  0.91531035
   0.75146339  0.91537368  0.07500497
   0.67926361  0.99938029  0.18539961
   0.59147125  0.09452399  0.27969067
   0.51650170  0.17315746  0.36629292
   0.41938480  0.23821164  0.45395989
   0.32539699  0.32434755  0.50701265
   0.26010447  0.40539075  0.59806159
   0.14595623  0.50580868  0.65062675
   0.07082306  0.59680909  0.77329123
   0.01171665  0.67213034  0.83786524
   0.91691410  0.76025163  0.88723936
   0.82461159  0.82351084  0.97027490
   0.41299939  0.42247190  0.58821966
   0.32601234  0.51470507  0.66806700
   0.21714803  0.58391442  0.74331746
   0.14128129  0.66337886  0.84183650
   0.08914104  0.77719685  0.95389190
   0.95552058  0.85180827  0.01300704
   0.91716988  0.88979998  0.09561914
   0.83531721  0.01171789  0.17816614
   0.73439721  0.09975232  0.27900051
   0.66400491  0.18395734  0.37488523
   0.56621577  0.26293729  0.43786619
   0.48465592  0.33381309  0.50715086
   0.51817267  0.32007289  0.65448156
   0.42500605  0.42531394  0.75241220
   0.33673924  0.50825363  0.84260910
   0.23474713  0.59111429  0.88726706
   0.19020954  0.64808101  0.99683234
   0.08250557  0.76979830  0.07163497
   0.01654486  0.80750514  0.16486475
   0.91196529  0.88078765  0.25017858
   0.82927003  0.97489439  0.31221771
   0.75014775  0.08441311  0.38513189
   0.70008757  0.14525388  0.53314827
   0.59462402  0.22683136  0.59001212
   0.59698836  0.26367134  0.72751211
   0.49545115  0.34067591  0.79836687
   0.41528044  0.40179828  0.90182190
   0.32912449  0.52069134  0.95931573
   0.26280032  0.56095588  0.06058348
   0.19715332  0.67101671  0.15839051
   0.08659900  0.74067235  0.24649792
   0.00458336  0.80669297  0.33416095
   0.90316845  0.92371637  0.42392029
   0.80929621  0.96360749  0.48986553
   0.77914244  0.08796392  0.60188182
   0.66881407  0.13711350  0.68793551
   0.68117470  0.17396510  0.82587964
   0.59153286  0.26097291  0.91164395
   0.52066313  0.32176806  0.01923472
   0.39049298  0.40855125  0.09119097
   0.34153114  0.54885162  0.17696873
   0.25153208  0.61274451  0.26741064
   0.16784199  0.65985133  0.33347754
   0.09957544  0.76990325  0.43098063
   0.97974694  0.83477252  0.49924022
   0.91847583  0.91715990  0.56115563
   0.85140046  0.97583144  0.65640452
   0.76080336  0.05751470  0.77192012
   0.76771747  0.07469968  0.91946279
   0.65562218  0.17475937  0.99788668
   0.59750573  0.24777432  0.07755474
   0.50873767  0.32767301  0.19242885
   0.42401402  0.41620110  0.22888081
   0.34583032  0.49911675  0.32241764
   0.27965680  0.55829976  0.41218883
   0.19565599  0.66206267  0.53427998
   0.07787566  0.78462550  0.59450832
   0.97418243  0.84322643  0.66041602
   0.92446664  0.89295362  0.75431095
   0.87257499  0.98701092  0.86368621
   0.83021060  0.00441827  0.02055147
   0.75239269  0.08118261  0.11895958
   0.68980108  0.17209995  0.19019802
   0.60309858  0.26139819  0.27086688
   0.52728078  0.33492940  0.37497998
   0.41962288  0.41401875  0.44096869
   0.33055218  0.49696615  0.50274465
   0.26718389  0.56480158  0.56597626
   0.16456876  0.66514918  0.66146243
   0.08911490  0.77149710  0.75509573
   0.99620043  0.80496674  0.83891899
   0.89285298  0.92202319  0.94093042
