 running on   64 total cores
 distrk:  each k-point on   32 cores,    2 groups
 distr:  one band on   32 cores,    1 groups
 vasp.6.2.1 16May21 (build Nov 23 2021 15:40:41) complex                        
  
 POSCAR found type information on POSCAR Li
 POSCAR found :  1 types and     504 ions
 scaLAPACK will be used
 -----------------------------------------------------------------------------
|                                                                             |
|           W    W    AA    RRRRR   N    N  II  N    N   GGGG   !!!           |
|           W    W   A  A   R    R  NN   N  II  NN   N  G    G  !!!           |
|           W    W  A    A  R    R  N N  N  II  N N  N  G       !!!           |
|           W WW W  AAAAAA  RRRRR   N  N N  II  N  N N  G  GGG   !            |
|           WW  WW  A    A  R   R   N   NN  II  N   NN  G    G                |
|           W    W  A    A  R    R  N    N  II  N    N   GGGG   !!!           |
|                                                                             |
|     For optimal performance we recommend to set                             |
|       NCORE = 2 up to number-of-cores-per-socket                            |
|     NCORE specifies how many cores store one orbital (NPAR=cpu/NCORE).      |
|     This setting can greatly improve the performance of VASP for DFT.       |
|     The default, NCORE=1 might be grossly inefficient on modern             |
|     multi-core architectures or massively parallel machines. Do your        |
|     own testing! More info at https://www.vasp.at/wiki/index.php/NCORE      |
|     Unfortunately you need to use the default for GW and RPA                |
|     calculations (for HF NCORE is supported but not extensively tested      |
|     yet).                                                                   |
|                                                                             |
 -----------------------------------------------------------------------------

 -----------------------------------------------------------------------------
|                                                                             |
|               ----> ADVICE to this user running VASP <----                  |
|                                                                             |
|     You have a (more or less) 'large supercell' and for larger cells it     |
|     might be more efficient to use real-space projection operators.         |
|     Therefore, try LREAL= Auto in the INCAR file.                           |
|     Mind: If you want to do very accurate calculations, keep the            |
|     reciprocal projection scheme (i.e. LREAL=.FALSE.).                      |
|                                                                             |
 -----------------------------------------------------------------------------

 LDA part: xc-table for Pade appr. of Perdew
 POSCAR found type information on POSCAR Li
 POSCAR found :  1 types and     504 ions
 POSCAR, INCAR and KPOINTS ok, starting setup
 FFT: planning ...
 WAVECAR not read
 entering main loop
       N       E                     dE             d eps       ncg     rms          rms(c)
DAV:   1    -0.328551686907E+03   -0.32855E+03   -0.11797E+05  4040   0.644E+02
DAV:   2    -0.888469889183E+03   -0.55992E+03   -0.51301E+03  4636   0.637E+01
DAV:   3    -0.929188630694E+03   -0.40719E+02   -0.37202E+02  5216   0.135E+01
DAV:   4    -0.930638052307E+03   -0.14494E+01   -0.14256E+01  4712   0.277E+00
DAV:   5    -0.930671571813E+03   -0.33520E-01   -0.33454E-01  4872   0.451E-01    0.802E+00
DAV:   6    -0.926738122147E+03    0.39334E+01   -0.74600E+00  4648   0.336E+00    0.606E+00
DAV:   7    -0.923945588222E+03    0.27925E+01   -0.60318E+00  4760   0.353E+00    0.461E+00
DAV:   8    -0.921537865034E+03    0.24077E+01   -0.40871E+00  4624   0.215E+00    0.260E+00
DAV:   9    -0.921237985424E+03    0.29988E+00   -0.22514E+00  4616   0.148E+00    0.188E+00
DAV:  10    -0.920871264280E+03    0.36672E+00   -0.11537E+00  4552   0.101E+00    0.102E+00
DAV:  11    -0.920830474475E+03    0.40790E-01   -0.33806E-01  4360   0.468E-01    0.596E-01
DAV:  12    -0.920847728616E+03   -0.17254E-01   -0.77978E-02  5000   0.326E-01    0.567E-01
DAV:  13    -0.920812098011E+03    0.35631E-01   -0.40444E-02  4784   0.237E-01    0.266E-01
DAV:  14    -0.920814736224E+03   -0.26382E-02   -0.13573E-02  4672   0.138E-01    0.217E-01
DAV:  15    -0.920809862620E+03    0.48736E-02   -0.92232E-03  4632   0.111E-01    0.107E-01
DAV:  16    -0.920809009203E+03    0.85342E-03   -0.29303E-03  4504   0.538E-02    0.554E-02
DAV:  17    -0.920808969138E+03    0.40064E-04   -0.89512E-04  4488   0.286E-02    0.347E-02
DAV:  18    -0.920808880810E+03    0.88328E-04   -0.27561E-04  4536   0.196E-02    0.227E-02
DAV:  19    -0.920808834981E+03    0.45829E-04   -0.87187E-05  4472   0.108E-02    0.122E-02
DAV:  20    -0.920808819675E+03    0.15306E-04   -0.45040E-05  4400   0.638E-03    0.531E-03
DAV:  21    -0.920808818979E+03    0.69562E-06   -0.11179E-05  2256   0.346E-03
   1 F= -.92080882E+03 E0= -.92074132E+03  d E =-.134997E+00
