 432 432   0   0
  0.2159961E+02  0.2105280E-08  0.2105280E-08  0.2105280E-08  0.5000000E-15
  1.000000000000000E-004
  CAR 
 Li                                      
      3.27273727     -3.51100143  301      0.24156085      1.00000000
     -3.511  0.0000E+00  0.0000E+00
     -3.488  0.0000E+00  0.0000E+00
     -3.466  0.0000E+00  0.0000E+00
     -3.443  0.0000E+00  0.0000E+00
     -3.421  0.0000E+00  0.0000E+00
     -3.398  0.0000E+00  0.0000E+00
     -3.375  0.1718E-13  0.3886E-15
     -3.353  0.6513E-10  0.1473E-11
     -3.330  0.8146E-07  0.1843E-08
     -3.307  0.3358E-04  0.7611E-06
     -3.285  0.4602E-02  0.1048E-03
     -3.262  0.2123E+00  0.4906E-02
     -3.240  0.3348E+01  0.8060E-01
     -3.217  0.1836E+02  0.4957E+00
     -3.194  0.3555E+02  0.1300E+01
     -3.172  0.2448E+02  0.1853E+01
     -3.149  0.6082E+01  0.1991E+01
     -3.127  0.2897E+01  0.2056E+01
     -3.104  0.1960E+02  0.2499E+01
     -3.081  0.6587E+02  0.3989E+01
     -3.059  0.9652E+02  0.6171E+01
     -3.036  0.6216E+02  0.7577E+01
     -3.014  0.1706E+02  0.7963E+01
     -2.991  0.5757E+01  0.8093E+01
     -2.968  0.2726E+02  0.8709E+01
     -2.946  0.7753E+02  0.1046E+02
     -2.923  0.9505E+02  0.1261E+02
     -2.900  0.4984E+02  0.1374E+02
     -2.878  0.1250E+02  0.1402E+02
     -2.855  0.1703E+02  0.1441E+02
     -2.833  0.6259E+02  0.1582E+02
     -2.810  0.1156E+03  0.1844E+02
     -2.787  0.1049E+03  0.2081E+02
     -2.765  0.4462E+02  0.2182E+02
     -2.742  0.1451E+02  0.2215E+02
     -2.720  0.4142E+02  0.2308E+02
     -2.697  0.1145E+03  0.2567E+02
     -2.674  0.1653E+03  0.2941E+02
     -2.652  0.1329E+03  0.3241E+02
     -2.629  0.5736E+02  0.3371E+02
     -2.607  0.1534E+02  0.3406E+02
     -2.584  0.2380E+02  0.3460E+02
     -2.561  0.6578E+02  0.3608E+02
     -2.539  0.9163E+02  0.3816E+02
     -2.516  0.6152E+02  0.3955E+02
     -2.493  0.2260E+02  0.4006E+02
     -2.471  0.3419E+02  0.4083E+02
     -2.448  0.9845E+02  0.4306E+02
     -2.426  0.1525E+03  0.4651E+02
     -2.403  0.1404E+03  0.4968E+02
     -2.380  0.7933E+02  0.5147E+02
     -2.358  0.3696E+02  0.5231E+02
     -2.335  0.6822E+02  0.5385E+02
     -2.313  0.1477E+03  0.5719E+02
     -2.290  0.2048E+03  0.6182E+02
     -2.267  0.1950E+03  0.6623E+02
     -2.245  0.1202E+03  0.6895E+02
     -2.222  0.4228E+02  0.6991E+02
     -2.199  0.2388E+02  0.7045E+02
     -2.177  0.5911E+02  0.7178E+02
     -2.154  0.9065E+02  0.7383E+02
     -2.132  0.6880E+02  0.7539E+02
     -2.109  0.2951E+02  0.7606E+02
     -2.086  0.4085E+02  0.7698E+02
     -2.064  0.1089E+03  0.7944E+02
     -2.041  0.1685E+03  0.8325E+02
     -2.019  0.1657E+03  0.8700E+02
     -1.996  0.9974E+02  0.8925E+02
     -1.973  0.3866E+02  0.9013E+02
     -1.951  0.5685E+02  0.9141E+02
     -1.928  0.1448E+03  0.9469E+02
     -1.906  0.2181E+03  0.9962E+02
     -1.883  0.2068E+03  0.1043E+03
     -1.860  0.1203E+03  0.1070E+03
     -1.838  0.4377E+02  0.1080E+03
     -1.815  0.4512E+02  0.1090E+03
     -1.792  0.1148E+03  0.1116E+03
     -1.770  0.1667E+03  0.1154E+03
     -1.747  0.1342E+03  0.1184E+03
     -1.725  0.6719E+02  0.1199E+03
     -1.702  0.5972E+02  0.1213E+03
     -1.679  0.1196E+03  0.1240E+03
     -1.657  0.1892E+03  0.1283E+03
     -1.634  0.2104E+03  0.1330E+03
     -1.612  0.1509E+03  0.1364E+03
     -1.589  0.6987E+02  0.1380E+03
     -1.566  0.6852E+02  0.1396E+03
     -1.544  0.1485E+03  0.1429E+03
     -1.521  0.2203E+03  0.1479E+03
     -1.498  0.2053E+03  0.1526E+03
     -1.476  0.1147E+03  0.1552E+03
     -1.453  0.3968E+02  0.1560E+03
     -1.431  0.4501E+02  0.1571E+03
     -1.408  0.1104E+03  0.1596E+03
     -1.385  0.1534E+03  0.1630E+03
     -1.363  0.1323E+03  0.1660E+03
     -1.340  0.7087E+02  0.1676E+03
     -1.318  0.3956E+02  0.1685E+03
     -1.295  0.8437E+02  0.1704E+03
     -1.272  0.1529E+03  0.1739E+03
     -1.250  0.1564E+03  0.1774E+03
     -1.227  0.9929E+02  0.1797E+03
     -1.205  0.8493E+02  0.1816E+03
     -1.182  0.1522E+03  0.1850E+03
     -1.159  0.2416E+03  0.1905E+03
     -1.137  0.2938E+03  0.1971E+03
     -1.114  0.2777E+03  0.2034E+03
     -1.091  0.1932E+03  0.2078E+03
     -1.069  0.1059E+03  0.2102E+03
     -1.046  0.1094E+03  0.2127E+03
     -1.024  0.1754E+03  0.2166E+03
     -1.001  0.2003E+03  0.2211E+03
     -0.978  0.1640E+03  0.2249E+03
     -0.956  0.1030E+03  0.2272E+03
     -0.933  0.6738E+02  0.2287E+03
     -0.911  0.1045E+03  0.2311E+03
     -0.888  0.1750E+03  0.2350E+03
     -0.865  0.1796E+03  0.2391E+03
     -0.843  0.1059E+03  0.2415E+03
     -0.820  0.7001E+02  0.2431E+03
     -0.798  0.1315E+03  0.2460E+03
     -0.775  0.2167E+03  0.2509E+03
     -0.752  0.2491E+03  0.2566E+03
     -0.730  0.2176E+03  0.2615E+03
     -0.707  0.1567E+03  0.2650E+03
     -0.684  0.1171E+03  0.2677E+03
     -0.662  0.1013E+03  0.2700E+03
     -0.639  0.6563E+02  0.2715E+03
     -0.617  0.3287E+02  0.2722E+03
     -0.594  0.6056E+02  0.2736E+03
     -0.571  0.1475E+03  0.2769E+03
     -0.549  0.2226E+03  0.2819E+03
     -0.526  0.2496E+03  0.2876E+03
     -0.504  0.2461E+03  0.2932E+03
     -0.481  0.2081E+03  0.2979E+03
     -0.458  0.1575E+03  0.3014E+03
     -0.436  0.1459E+03  0.3047E+03
     -0.413  0.1836E+03  0.3089E+03
     -0.390  0.2253E+03  0.3140E+03
     -0.368  0.2554E+03  0.3197E+03
     -0.345  0.2607E+03  0.3256E+03
     -0.323  0.1950E+03  0.3300E+03
     -0.300  0.1141E+03  0.3326E+03
     -0.277  0.1101E+03  0.3351E+03
     -0.255  0.1358E+03  0.3382E+03
     -0.232  0.1415E+03  0.3414E+03
     -0.210  0.1390E+03  0.3445E+03
     -0.187  0.1732E+03  0.3484E+03
     -0.164  0.2377E+03  0.3538E+03
     -0.142  0.2680E+03  0.3599E+03
     -0.119  0.2675E+03  0.3659E+03
     -0.097  0.2560E+03  0.3717E+03
     -0.074  0.2135E+03  0.3765E+03
     -0.051  0.1508E+03  0.3800E+03
     -0.029  0.1440E+03  0.3832E+03
     -0.006  0.1897E+03  0.3875E+03
      0.017  0.2120E+03  0.3923E+03
      0.039  0.1999E+03  0.3968E+03
      0.062  0.1706E+03  0.4007E+03
      0.084  0.1432E+03  0.4039E+03
      0.107  0.1410E+03  0.4071E+03
      0.130  0.1563E+03  0.4106E+03
      0.152  0.1749E+03  0.4146E+03
      0.175  0.1995E+03  0.4191E+03
      0.197  0.2074E+03  0.4238E+03
      0.220  0.1876E+03  0.4280E+03
      0.243  0.1849E+03  0.4322E+03
      0.265  0.2085E+03  0.4369E+03
      0.288  0.2216E+03  0.4419E+03
      0.311  0.2183E+03  0.4469E+03
      0.333  0.2048E+03  0.4515E+03
      0.356  0.1943E+03  0.4559E+03
      0.378  0.1930E+03  0.4603E+03
      0.401  0.1928E+03  0.4646E+03
      0.424  0.1953E+03  0.4690E+03
      0.446  0.1907E+03  0.4734E+03
      0.469  0.1917E+03  0.4777E+03
      0.491  0.2085E+03  0.4824E+03
      0.514  0.2294E+03  0.4876E+03
      0.537  0.2478E+03  0.4932E+03
      0.559  0.2590E+03  0.4991E+03
      0.582  0.2581E+03  0.5049E+03
      0.604  0.2543E+03  0.5106E+03
      0.627  0.2487E+03  0.5163E+03
      0.650  0.2442E+03  0.5218E+03
      0.672  0.2455E+03  0.5273E+03
      0.695  0.2429E+03  0.5328E+03
      0.718  0.2454E+03  0.5384E+03
      0.740  0.2467E+03  0.5440E+03
      0.763  0.2395E+03  0.5494E+03
      0.785  0.2324E+03  0.5546E+03
      0.808  0.2239E+03  0.5597E+03
      0.831  0.2245E+03  0.5648E+03
      0.853  0.2296E+03  0.5700E+03
      0.876  0.2359E+03  0.5753E+03
      0.898  0.2486E+03  0.5809E+03
      0.921  0.2512E+03  0.5866E+03
      0.944  0.2327E+03  0.5919E+03
      0.966  0.2159E+03  0.5967E+03
      0.989  0.2166E+03  0.6016E+03
      1.011  0.2224E+03  0.6067E+03
      1.034  0.2208E+03  0.6117E+03
      1.057  0.1960E+03  0.6161E+03
      1.079  0.1700E+03  0.6199E+03
      1.102  0.1693E+03  0.6238E+03
      1.125  0.1820E+03  0.6279E+03
      1.147  0.2035E+03  0.6325E+03
      1.170  0.2159E+03  0.6374E+03
      1.192  0.2026E+03  0.6419E+03
      1.215  0.1796E+03  0.6460E+03
      1.238  0.1497E+03  0.6494E+03
      1.260  0.1189E+03  0.6521E+03
      1.283  0.1216E+03  0.6548E+03
      1.305  0.1493E+03  0.6582E+03
      1.328  0.1644E+03  0.6619E+03
      1.351  0.1597E+03  0.6655E+03
      1.373  0.1534E+03  0.6690E+03
      1.396  0.1591E+03  0.6726E+03
      1.419  0.1719E+03  0.6765E+03
      1.441  0.1814E+03  0.6806E+03
      1.464  0.1859E+03  0.6848E+03
      1.486  0.1882E+03  0.6890E+03
      1.509  0.1875E+03  0.6933E+03
      1.532  0.1791E+03  0.6973E+03
      1.554  0.1767E+03  0.7013E+03
      1.577  0.1852E+03  0.7055E+03
      1.599  0.1867E+03  0.7097E+03
      1.622  0.1837E+03  0.7139E+03
      1.645  0.1823E+03  0.7180E+03
      1.667  0.1880E+03  0.7223E+03
      1.690  0.1930E+03  0.7266E+03
      1.712  0.1957E+03  0.7311E+03
      1.735  0.1876E+03  0.7353E+03
      1.758  0.1765E+03  0.7393E+03
      1.780  0.1758E+03  0.7433E+03
      1.803  0.1716E+03  0.7471E+03
      1.826  0.1649E+03  0.7509E+03
      1.848  0.1622E+03  0.7545E+03
      1.871  0.1593E+03  0.7581E+03
      1.893  0.1528E+03  0.7616E+03
      1.916  0.1485E+03  0.7650E+03
      1.939  0.1418E+03  0.7682E+03
      1.961  0.1256E+03  0.7710E+03
      1.984  0.1255E+03  0.7738E+03
      2.006  0.1317E+03  0.7768E+03
      2.029  0.1318E+03  0.7798E+03
      2.052  0.1263E+03  0.7827E+03
      2.074  0.1073E+03  0.7851E+03
      2.097  0.9426E+02  0.7872E+03
      2.120  0.9912E+02  0.7895E+03
      2.142  0.1066E+03  0.7919E+03
      2.165  0.9004E+02  0.7939E+03
      2.187  0.5719E+02  0.7952E+03
      2.210  0.2817E+02  0.7958E+03
      2.233  0.1607E+02  0.7962E+03
      2.255  0.3472E+02  0.7970E+03
      2.278  0.7002E+02  0.7986E+03
      2.300  0.8318E+02  0.8004E+03
      2.323  0.5280E+02  0.8016E+03
      2.346  0.1958E+02  0.8021E+03
      2.368  0.2208E+02  0.8026E+03
      2.391  0.4419E+02  0.8036E+03
      2.413  0.6584E+02  0.8051E+03
      2.436  0.7814E+02  0.8068E+03
      2.459  0.8429E+02  0.8087E+03
      2.481  0.9188E+02  0.8108E+03
      2.504  0.1094E+03  0.8133E+03
      2.527  0.1301E+03  0.8162E+03
      2.549  0.1324E+03  0.8192E+03
      2.572  0.1351E+03  0.8223E+03
      2.594  0.1396E+03  0.8254E+03
      2.617  0.1359E+03  0.8285E+03
      2.640  0.1327E+03  0.8315E+03
      2.662  0.1349E+03  0.8346E+03
      2.685  0.1342E+03  0.8376E+03
      2.707  0.1206E+03  0.8403E+03
      2.730  0.1068E+03  0.8427E+03
      2.753  0.1005E+03  0.8450E+03
      2.775  0.8405E+02  0.8469E+03
      2.798  0.6728E+02  0.8484E+03
      2.820  0.7220E+02  0.8501E+03
      2.843  0.8444E+02  0.8520E+03
      2.866  0.9779E+02  0.8542E+03
      2.888  0.1129E+03  0.8567E+03
      2.911  0.1208E+03  0.8595E+03
      2.934  0.1222E+03  0.8622E+03
      2.956  0.1007E+03  0.8645E+03
      2.979  0.5094E+02  0.8657E+03
      3.001  0.1318E+02  0.8660E+03
      3.024  0.1548E+01  0.8660E+03
      3.047  0.7522E-01  0.8660E+03
      3.069  0.1400E-02  0.8660E+03
      3.092  0.9396E-05  0.8660E+03
      3.114  0.2183E-07  0.8660E+03
      3.137  0.1708E-10  0.8660E+03
      3.160  0.4910E-14  0.8660E+03
      3.182  0.0000E+00  0.8660E+03
      3.205  0.0000E+00  0.8660E+03
      3.228  0.0000E+00  0.8660E+03
      3.250  0.0000E+00  0.8660E+03
      3.273  0.0000E+00  0.8660E+03
