 running on   64 total cores
 distrk:  each k-point on   32 cores,    2 groups
 distr:  one band on   32 cores,    1 groups
 vasp.6.2.1 16May21 (build Nov 23 2021 15:40:41) complex                        
  
 POSCAR found type information on POSCAR Li
 POSCAR found :  1 types and     432 ions
 scaLAPACK will be used
 -----------------------------------------------------------------------------
|                                                                             |
|           W    W    AA    RRRRR   N    N  II  N    N   GGGG   !!!           |
|           W    W   A  A   R    R  NN   N  II  NN   N  G    G  !!!           |
|           W    W  A    A  R    R  N N  N  II  N N  N  G       !!!           |
|           W WW W  AAAAAA  RRRRR   N  N N  II  N  N N  G  GGG   !            |
|           WW  WW  A    A  R   R   N   NN  II  N   NN  G    G                |
|           W    W  A    A  R    R  N    N  II  N    N   GGGG   !!!           |
|                                                                             |
|     For optimal performance we recommend to set                             |
|       NCORE = 2 up to number-of-cores-per-socket                            |
|     NCORE specifies how many cores store one orbital (NPAR=cpu/NCORE).      |
|     This setting can greatly improve the performance of VASP for DFT.       |
|     The default, NCORE=1 might be grossly inefficient on modern             |
|     multi-core architectures or massively parallel machines. Do your        |
|     own testing! More info at https://www.vasp.at/wiki/index.php/NCORE      |
|     Unfortunately you need to use the default for GW and RPA                |
|     calculations (for HF NCORE is supported but not extensively tested      |
|     yet).                                                                   |
|                                                                             |
 -----------------------------------------------------------------------------

 -----------------------------------------------------------------------------
|                                                                             |
|               ----> ADVICE to this user running VASP <----                  |
|                                                                             |
|     You have a (more or less) 'large supercell' and for larger cells it     |
|     might be more efficient to use real-space projection operators.         |
|     Therefore, try LREAL= Auto in the INCAR file.                           |
|     Mind: If you want to do very accurate calculations, keep the            |
|     reciprocal projection scheme (i.e. LREAL=.FALSE.).                      |
|                                                                             |
 -----------------------------------------------------------------------------

 LDA part: xc-table for Pade appr. of Perdew
 POSCAR found type information on POSCAR Li
 POSCAR found :  1 types and     432 ions
 POSCAR, INCAR and KPOINTS ok, starting setup
 FFT: planning ...
 WAVECAR not read
 entering main loop
       N       E                     dE             d eps       ncg     rms          rms(c)
DAV:   1    -0.264212295665E+03   -0.26421E+03   -0.10284E+05  3464   0.649E+02
DAV:   2    -0.760950858922E+03   -0.49674E+03   -0.45411E+03  3988   0.653E+01
DAV:   3    -0.796775247415E+03   -0.35824E+02   -0.32753E+02  4432   0.138E+01
DAV:   4    -0.798000603686E+03   -0.12254E+01   -0.12080E+01  3976   0.281E+00
DAV:   5    -0.798028764530E+03   -0.28161E-01   -0.28123E-01  4128   0.453E-01    0.833E+00
DAV:   6    -0.799909430774E+03   -0.18807E+01   -0.88427E+00  4120   0.537E+00    0.822E+00
DAV:   7    -0.788547784178E+03    0.11362E+02   -0.89729E+00  4152   0.450E+00    0.363E+00
DAV:   8    -0.787456646095E+03    0.10911E+01   -0.48032E+00  3880   0.195E+00    0.197E+00
DAV:   9    -0.787269578709E+03    0.18707E+00   -0.20325E+00  3800   0.118E+00    0.107E+00
DAV:  10    -0.787303331065E+03   -0.33752E-01   -0.29525E-01  4048   0.640E-01    0.913E-01
DAV:  11    -0.787212122935E+03    0.91208E-01   -0.12709E-01  3960   0.441E-01    0.443E-01
DAV:  12    -0.787208614388E+03    0.35085E-02   -0.49842E-02  3768   0.189E-01    0.210E-01
DAV:  13    -0.787209251928E+03   -0.63754E-03   -0.11020E-02  4088   0.126E-01    0.159E-01
DAV:  14    -0.787206941110E+03    0.23108E-02   -0.34040E-03  3960   0.797E-02    0.814E-02
DAV:  15    -0.787206542929E+03    0.39818E-03   -0.13047E-03  3832   0.383E-02    0.399E-02
DAV:  16    -0.787206503513E+03    0.39416E-04   -0.55472E-04  3848   0.224E-02    0.203E-02
DAV:  17    -0.787206469740E+03    0.33772E-04   -0.13311E-04  3872   0.136E-02    0.129E-02
DAV:  18    -0.787206452578E+03    0.17162E-04   -0.30696E-05  3200   0.610E-03    0.596E-03
DAV:  19    -0.787206448214E+03    0.43638E-05   -0.11551E-05  1968   0.359E-03
   1 F= -.78720645E+03 E0= -.78716270E+03  d E =-.874983E-01
