Li                                      
           1
    21.052800    0.000000    0.000000
     0.000000   21.052800    0.000000
     0.000000    0.000000   21.052800
   Li
   432
Direct configuration=     1
   0.03381814  0.98473626  0.02696039
   0.92048459  0.05196902  0.08786845
   0.82610362  0.16615622  0.16246666
   0.75024612  0.27374268  0.23829799
   0.66220934  0.36047665  0.31475873
   0.56425978  0.41860337  0.39657127
   0.50040234  0.50038482  0.46794761
   0.41137857  0.57909892  0.56110368
   0.34424349  0.65378816  0.65244023
   0.26210675  0.75311185  0.74262640
   0.17052958  0.81418621  0.83973021
   0.07699328  0.91491176  0.92203852
   0.08573679  0.92045149  0.08055104
   0.00387034  0.98509761  0.17190794
   0.89488573  0.06611970  0.25233868
   0.82272616  0.14609070  0.32361138
   0.73690835  0.24297257  0.42157207
   0.68266747  0.32565809  0.48744351
   0.57363228  0.42313407  0.58477043
   0.50644760  0.49987933  0.67517827
   0.42984446  0.57194446  0.75030929
   0.33357892  0.64632156  0.83945360
   0.24559478  0.75101105  0.92523097
   0.17135959  0.83425904  0.02271482
   0.17179700  0.82715767  0.17718602
   0.08835346  0.92211749  0.27036722
   0.98293024  0.99382086  0.34975250
   0.91192953  0.09455433  0.41649186
   0.82769425  0.17190380  0.48858554
   0.77268713  0.23941007  0.59361021
   0.68666473  0.33838331  0.65361174
   0.60672770  0.41566293  0.75234215
   0.50542813  0.50889134  0.83146932
   0.39164419  0.55531791  0.93014358
   0.32037020  0.64760553  0.00241773
   0.26277350  0.77727390  0.10369784
   0.25731185  0.74281167  0.26355877
   0.15492139  0.82772914  0.33946821
   0.10433981  0.91619122  0.43707257
   0.98653752  0.99957505  0.49173062
   0.92297844  0.11102315  0.61484127
   0.82851119  0.17734183  0.68435686
   0.76393437  0.23375959  0.76316750
   0.66693418  0.33533867  0.83811256
   0.58348797  0.42663759  0.91410017
   0.48899445  0.52086227  0.99382718
   0.40400195  0.57806413  0.09194492
   0.33471177  0.66482644  0.18223364
   0.34121246  0.66459029  0.34517633
   0.26064652  0.74630435  0.40905382
   0.20251050  0.84453949  0.49135217
   0.11052847  0.90956517  0.57137048
   0.00087884  0.98645676  0.66324037
   0.92158981  0.08879698  0.74273978
   0.84424449  0.13849930  0.83185870
   0.75317578  0.24043797  0.92119711
   0.65289617  0.31580907  0.99076585
   0.58639034  0.41181442  0.05458374
   0.47341623  0.48806723  0.15518810
   0.39483007  0.58699566  0.24564602
   0.41801519  0.59366834  0.43516887
   0.33371345  0.66665516  0.50590994
   0.26205592  0.76185262  0.59506884
   0.18841826  0.83062397  0.66241793
   0.09898659  0.91096726  0.75745525
   0.02185557  0.01962195  0.83795530
   0.92183128  0.08281632  0.93684063
   0.84697466  0.15607176  0.98482786
   0.75652087  0.25438225  0.07505672
   0.67029815  0.35333528  0.13946648
   0.57081728  0.42249177  0.26085224
   0.49501935  0.50832399  0.33535723
   0.08493263  0.07939497  0.92240214
   0.01185927  0.15476580  0.01376028
   0.91285624  0.25227662  0.07936683
   0.83790849  0.33523017  0.16098044
   0.74314270  0.40972451  0.23393660
   0.66537585  0.50942019  0.31617438
   0.59797923  0.58793382  0.38213986
   0.50952514  0.65623338  0.47431205
   0.42614615  0.72963976  0.58882243
   0.35948794  0.85689715  0.66566610
   0.25178340  0.89985870  0.76861259
   0.13858202  0.99666646  0.82614104
   0.15818080  0.99090766  0.98106709
   0.09497928  0.07474963  0.11330450
   0.99755470  0.16524419  0.15944498
   0.90604235  0.23495710  0.23908653
   0.80909860  0.32614250  0.34159875
   0.73566402  0.45457200  0.39399416
   0.66158314  0.51175202  0.49985892
   0.56986341  0.57970989  0.57591195
   0.48773051  0.65941498  0.66135478
   0.41776042  0.75742602  0.76342101
   0.32670607  0.81541169  0.85385932
   0.23765913  0.91976814  0.91268095
   0.23766771  0.91333628  0.07752025
   0.18337240  0.00008993  0.16525923
   0.08741679  0.04510758  0.25165456
   0.00264124  0.14051378  0.32188205
   0.92848537  0.24922623  0.39425820
   0.82588916  0.34290900  0.50399453
   0.75010310  0.42631297  0.56573970
   0.68999032  0.49645133  0.65867241
   0.59447881  0.57723888  0.74217497
   0.47800004  0.64321970  0.84847288
   0.41359366  0.74965116  0.93011065
   0.32735860  0.84276931  0.98663824
   0.32492236  0.85560420  0.18352430
   0.24753446  0.92813579  0.25196923
   0.15804995  0.00045811  0.34189889
   0.08756830  0.07751212  0.44554751
   0.00157731  0.17644656  0.50488619
   0.91147508  0.25002429  0.56806771
   0.83043358  0.33281454  0.68203232
   0.73479841  0.40082424  0.77591792
   0.65733294  0.51057071  0.84685593
   0.57442426  0.58333960  0.93736708
   0.47939794  0.65819506  0.01331691
   0.39579119  0.74657955  0.10199009
   0.40634451  0.75157337  0.24413227
   0.32878870  0.83604587  0.35181956
   0.25232522  0.92325091  0.40847140
   0.17570306  0.01023095  0.51093387
   0.07559472  0.07872774  0.59259130
   0.01679162  0.17928741  0.67066228
   0.92430364  0.25126054  0.75913751
   0.85578338  0.33330242  0.83798035
   0.75493645  0.38517645  0.91997669
   0.68043205  0.49459916  0.98221082
   0.58072259  0.57165491  0.09019964
   0.49070316  0.65542216  0.16861495
   0.49789191  0.67459171  0.31124333
   0.42487554  0.75984554  0.40696729
   0.33801848  0.82428322  0.49348655
   0.26265401  0.91645749  0.58088522
   0.16490331  0.98146067  0.65483403
   0.07197954  0.06657368  0.73660347
   0.01263592  0.17280314  0.84431508
   0.92519034  0.23768006  0.91449315
   0.84397598  0.33344156  0.00631999
   0.75569911  0.42834737  0.07184105
   0.67784577  0.49557087  0.15742377
   0.58268041  0.57211999  0.22244382
   0.16072415  0.14478857  0.82356750
   0.09090150  0.26032513  0.90428343
   0.00676313  0.33941886  0.99256719
   0.91542261  0.42416111  0.06671564
   0.82852415  0.50565223  0.16273881
   0.75208389  0.60140352  0.23799237
   0.64442001  0.70002109  0.28800826
   0.58408748  0.76783086  0.39376962
   0.51311433  0.83362350  0.49172372
   0.44181779  0.92167705  0.55503318
   0.32754693  0.97543509  0.69596932
   0.26185808  0.06355144  0.75008847
   0.24734361  0.07927634  0.91010247
   0.15990451  0.17640993  0.98658457
   0.07458071  0.24182001  0.09839618
   0.98847353  0.33950578  0.17258522
   0.92365826  0.41590253  0.24131637
   0.81556925  0.50498284  0.31231911
   0.72393045  0.61672409  0.40960855
   0.63277625  0.67198306  0.48928475
   0.57422634  0.74175161  0.58309173
   0.49453142  0.82265657  0.65809643
   0.43009980  0.91227213  0.76293515
   0.33177732  0.01001400  0.84599522
   0.32866620  0.99809933  0.99007397
   0.23224830  0.07783464  0.06067045
   0.15535172  0.16956612  0.17720731
   0.07768487  0.24630785  0.23637649
   0.01440081  0.32615322  0.31477771
   0.89669122  0.40811224  0.39535464
   0.84065888  0.49843718  0.46059769
   0.77195192  0.57893391  0.56355938
   0.67352881  0.64713202  0.65889578
   0.58032280  0.73045042  0.76349527
   0.51125721  0.83736178  0.84664420
   0.43359444  0.90811381  0.90884412
   0.39300895  0.92609082  0.06483195
   0.32401539  0.00647783  0.16972014
   0.24817885  0.07780511  0.27186811
   0.16244242  0.16775664  0.34559870
   0.08651939  0.24875659  0.40477572
   0.99590485  0.33181210  0.50530613
   0.90574316  0.42465593  0.58166565
   0.82203937  0.50293091  0.66241389
   0.77171361  0.58689315  0.76000979
   0.65944197  0.66701078  0.86248921
   0.56618924  0.74042162  0.94489805
   0.47497367  0.81918449  0.02099482
   0.44695603  0.85842170  0.16403868
   0.38373900  0.92359826  0.26348219
   0.33582416  0.99122964  0.35433224
   0.24073596  0.07679284  0.42364468
   0.16235873  0.16897915  0.51508522
   0.10358752  0.24909131  0.58213433
   0.99389902  0.31839380  0.66833211
   0.90486746  0.43527560  0.73977629
   0.83046332  0.50497113  0.84997661
   0.74772535  0.59762860  0.90812804
   0.66751753  0.67237015  0.00674596
   0.55585400  0.76453119  0.10467706
   0.55821287  0.76537093  0.21340838
   0.50144110  0.84119295  0.32423129
   0.42267070  0.90830435  0.42392116
   0.35429851  0.99278788  0.48673287
   0.26296742  0.07547759  0.57421208
   0.17638676  0.16052474  0.66644277
   0.09060123  0.24928853  0.75043160
   0.98769746  0.35401367  0.82775386
   0.93275265  0.45043244  0.92225838
   0.83411342  0.52047686  0.98169507
   0.73619992  0.59712832  0.07869257
   0.66371931  0.66263290  0.15247728
   0.23974949  0.24957979  0.74409488
   0.16440328  0.34665558  0.82353309
   0.07801022  0.41948744  0.92134938
   0.03018760  0.52698077  0.02380132
   0.90799624  0.57765700  0.09634690
   0.84022527  0.67724870  0.15699364
   0.73770072  0.75493112  0.21859602
   0.65897796  0.82351427  0.28708633
   0.60039640  0.91311567  0.40718102
   0.51603018  0.01425273  0.46764145
   0.40200308  0.08025790  0.58434256
   0.32676094  0.16321731  0.67528464
   0.33101004  0.16739089  0.82780096
   0.22384918  0.24374941  0.90183256
   0.17907496  0.34138352  0.99859251
   0.09602129  0.40730171  0.09372069
   0.01370092  0.49925084  0.15842520
   0.92993930  0.58082941  0.26339098
   0.80566517  0.66732438  0.33091872
   0.74093164  0.74176490  0.39178000
   0.66726292  0.82395882  0.50732277
   0.57642785  0.90598155  0.57229582
   0.50739036  0.98564646  0.65761779
   0.44791388  0.06460318  0.75466616
   0.42449725  0.09181256  0.91054071
   0.34426857  0.17679244  0.99820352
   0.24320379  0.24860985  0.07308220
   0.15995662  0.32638670  0.18712330
   0.06549617  0.42775192  0.24274237
   0.99636342  0.49926673  0.34841696
   0.89600581  0.59965974  0.43276992
   0.84019872  0.67402966  0.50555370
   0.74243341  0.74574381  0.59798412
   0.65038887  0.80672412  0.66912709
   0.58725767  0.91586491  0.75918447
   0.52782957  0.99613202  0.84950791
   0.47877895  0.01710822  0.00819693
   0.37157962  0.08524315  0.09415427
   0.29926453  0.13409459  0.19582767
   0.23923792  0.26005837  0.25994182
   0.15571834  0.34583914  0.31210631
   0.06558558  0.39703125  0.40766900
   0.96725002  0.49922584  0.49269691
   0.89976251  0.57463831  0.58790236
   0.83086604  0.67841261  0.66458574
   0.74164632  0.74901329  0.75689293
   0.64283749  0.83770369  0.85034304
   0.57035517  0.92866720  0.94720964
   0.56080743  0.93367263  0.07875947
   0.47752906  0.99819003  0.17610940
   0.42245332  0.08878670  0.28302205
   0.34427636  0.16130187  0.33991520
   0.25103685  0.24006368  0.38354766
   0.16937558  0.31324241  0.50779771
   0.06893183  0.40345267  0.58201468
   0.02561413  0.52284967  0.67787190
   0.91559888  0.57987728  0.75895023
   0.85284182  0.69575103  0.85611675
   0.75233486  0.76151320  0.92336708
   0.63219120  0.82636721  0.99191079
   0.66189942  0.84456322  0.13896283
   0.57555502  0.92131015  0.22873705
   0.50548520  0.99379441  0.32279940
   0.43681164  0.08760448  0.41754031
   0.34381761  0.18250812  0.49265609
   0.23796636  0.24377336  0.58937467
   0.15725599  0.32515070  0.65980874
   0.08986933  0.41607318  0.75041940
   0.02179186  0.50234917  0.82423615
   0.93542535  0.58889761  0.89030097
   0.83326622  0.68017502  0.01077772
   0.73360136  0.75973213  0.09305516
   0.31768066  0.32498353  0.64737534
   0.24367528  0.45368948  0.72008717
   0.17469129  0.47841976  0.82381788
   0.11926195  0.60499469  0.91257412
   0.00974796  0.65548481  0.00265885
   0.93548539  0.75327432  0.09376405
   0.82962030  0.83683548  0.14728514
   0.75779929  0.93913855  0.23665412
   0.65810725  0.00884841  0.32015143
   0.60356341  0.08843639  0.41732605
   0.50837206  0.14679559  0.50119570
   0.43200748  0.24127786  0.58543113
   0.42268417  0.25040800  0.74823421
   0.30615358  0.33277307  0.82958665
   0.26736243  0.41426186  0.91487269
   0.17615260  0.49849521  0.00711653
   0.11431629  0.61255516  0.09972482
   0.98111228  0.66361193  0.18616992
   0.92342390  0.76507216  0.28199960
   0.80833005  0.84168766  0.32041507
   0.73420402  0.93531109  0.41061089
   0.67989508  0.98426392  0.51817717
   0.59066190  0.04693636  0.59518810
   0.53124548  0.15743709  0.67053291
   0.51661068  0.15933113  0.82798870
   0.41491057  0.25598451  0.87572028
   0.33364743  0.33136311  0.97386496
   0.25752617  0.41239317  0.08669055
   0.16893291  0.48512427  0.17295233
   0.08839748  0.58997249  0.23681897
   0.98542462  0.67013790  0.34683013
   0.90494665  0.75856442  0.43178385
   0.81291618  0.83559343  0.49153654
   0.74210310  0.89074250  0.58534727
   0.67166441  0.97368647  0.68143596
   0.60778304  0.06275475  0.74259490
   0.57479738  0.09914983  0.93816214
   0.47317057  0.16928266  0.01759191
   0.39207547  0.24677030  0.10091223
   0.32479780  0.32561016  0.15341886
   0.26304393  0.42267889  0.26142495
   0.16460925  0.50235660  0.32564690
   0.06790468  0.58026890  0.42407565
   0.98696390  0.67827495  0.52987086
   0.90593744  0.74439103  0.58385161
   0.84033308  0.83689959  0.68078335
   0.75324528  0.90786619  0.74855646
   0.67901863  0.00934182  0.86862331
   0.65386383  0.00276440  0.00497836
   0.57855265  0.09344519  0.09430761
   0.47011308  0.15671512  0.17966280
   0.40384229  0.24118138  0.24439499
   0.33610964  0.35218110  0.32600125
   0.24501808  0.40763337  0.41466464
   0.15200682  0.50330910  0.48354333
   0.09821737  0.59592976  0.57822696
   0.00711500  0.67898522  0.66320716
   0.92363301  0.74349094  0.74609341
   0.83777774  0.85173622  0.84465626
   0.74660255  0.92066094  0.92166606
   0.73886730  0.92183804  0.06560662
   0.65230758  0.00654350  0.15654961
   0.59563866  0.09637788  0.25575408
   0.51776551  0.17912539  0.34698489
   0.41863386  0.22808779  0.41347469
   0.33380528  0.31628456  0.48771124
   0.25680184  0.41397176  0.57549584
   0.17988488  0.51457264  0.64478045
   0.09757685  0.59640410  0.75499656
   0.01504187  0.67326222  0.83152914
   0.93741051  0.76381127  0.92055340
   0.82322003  0.82300281  0.98567499
   0.42987897  0.40255398  0.57372146
   0.32846122  0.52272566  0.66877561
   0.24174995  0.58135021  0.76533898
   0.17279343  0.67991683  0.84018792
   0.08372328  0.75558225  0.94331585
   0.02588068  0.83000565  0.00296027
   0.91542667  0.90897712  0.08392213
   0.82016286  0.99397282  0.16126980
   0.74751805  0.09238366  0.24227179
   0.67278901  0.17589957  0.33493601
   0.59762891  0.25980770  0.40088875
   0.51544350  0.31550965  0.49640959
   0.51349550  0.32841970  0.67168339
   0.41695116  0.42461325  0.73956800
   0.35250854  0.47941512  0.82992473
   0.26471549  0.58662292  0.91789680
   0.19130466  0.68468835  0.02410389
   0.08169846  0.74495913  0.10309235
   0.00493664  0.85089685  0.19766425
   0.88110364  0.92295119  0.26412749
   0.82148617  0.03245726  0.34648851
   0.73100836  0.06940641  0.43227813
   0.65576605  0.16290256  0.51906272
   0.58968529  0.23511237  0.58131298
   0.60952978  0.24685294  0.74758589
   0.51808080  0.33869002  0.80753980
   0.42857103  0.42040745  0.91543058
   0.33020932  0.48998582  0.02921923
   0.26451819  0.57346757  0.12518970
   0.17752371  0.67744843  0.18437819
   0.05773743  0.72022725  0.25758771
   0.00550907  0.84417126  0.34299541
   0.89488422  0.93032408  0.41576761
   0.83766253  0.00244317  0.49472259
   0.74971241  0.08398135  0.58323560
   0.67946617  0.15975818  0.66247709
   0.67105500  0.16425657  0.85204182
   0.57340288  0.25464813  0.93008815
   0.48272178  0.31788086  0.99401676
   0.42081869  0.40569087  0.05314795
   0.33253635  0.48822945  0.15675933
   0.24762937  0.58709698  0.24758084
   0.16658511  0.68611863  0.33406158
   0.07295988  0.75341102  0.43454045
   0.99158081  0.85365979  0.50674612
   0.90671132  0.91201142  0.58709320
   0.82828999  0.99336316  0.67206895
   0.74436085  0.07725779  0.75090012
   0.77546505  0.08764346  0.93878329
   0.66869709  0.17892867  0.00019701
   0.57672099  0.24557529  0.08748637
   0.47410147  0.35005169  0.15292712
   0.41030587  0.41481166  0.25661141
   0.33388660  0.51369810  0.36749430
   0.24356328  0.58423608  0.40693960
   0.19635069  0.67545652  0.50238501
   0.10418687  0.76274489  0.58513657
   0.02085441  0.83170278  0.64740301
   0.94459178  0.90703768  0.75900845
   0.87003770  0.99246073  0.84025753
   0.83737774  0.98418503  0.00013333
   0.75014196  0.06724099  0.04398933
   0.68998896  0.16225345  0.15829658
   0.58866143  0.23416880  0.22304754
   0.48910009  0.32848088  0.31798543
   0.42767616  0.40086681  0.42037579
   0.33424819  0.48605676  0.47715557
   0.26145054  0.58525710  0.56982846
   0.18671147  0.69105729  0.65482101
   0.11039534  0.75218833  0.75267376
   0.99952203  0.83479784  0.82743842
   0.94026610  0.91025844  0.93865094
