 504 504   0   0
  0.2301818E+02  0.2235821E-08  0.2212889E-08  0.2344795E-08  0.5000000E-15
  1.000000000000000E-004
  CAR 
 Li                                      
      2.86975495     -3.56906762  301      0.08667982      1.00000000
     -3.569  0.0000E+00  0.0000E+00
     -3.548  0.0000E+00  0.0000E+00
     -3.526  0.0000E+00  0.0000E+00
     -3.505  0.0000E+00  0.0000E+00
     -3.483  0.0000E+00  0.0000E+00
     -3.462  0.0000E+00  0.0000E+00
     -3.440  0.3104E-13  0.6661E-15
     -3.419  0.7668E-10  0.1646E-11
     -3.397  0.6749E-07  0.1450E-08
     -3.376  0.2185E-04  0.4703E-06
     -3.354  0.2618E-02  0.5667E-04
     -3.333  0.1173E+00  0.2574E-02
     -3.312  0.1986E+01  0.4520E-01
     -3.290  0.1288E+02  0.3217E+00
     -3.269  0.3238E+02  0.1017E+01
     -3.247  0.3177E+02  0.1698E+01
     -3.226  0.1252E+02  0.1967E+01
     -3.204  0.6980E+01  0.2117E+01
     -3.183  0.3093E+02  0.2781E+01
     -3.161  0.8123E+02  0.4524E+01
     -3.140  0.9700E+02  0.6606E+01
     -3.118  0.5197E+02  0.7722E+01
     -3.097  0.1475E+02  0.8038E+01
     -3.075  0.2267E+02  0.8525E+01
     -3.054  0.6921E+02  0.1001E+02
     -3.032  0.9834E+02  0.1212E+02
     -3.011  0.6522E+02  0.1352E+02
     -2.990  0.2518E+02  0.1406E+02
     -2.968  0.2979E+02  0.1470E+02
     -2.947  0.7048E+02  0.1621E+02
     -2.925  0.1102E+03  0.1858E+02
     -2.904  0.1020E+03  0.2077E+02
     -2.882  0.5180E+02  0.2188E+02
     -2.861  0.3931E+02  0.2272E+02
     -2.839  0.8775E+02  0.2460E+02
     -2.818  0.1442E+03  0.2770E+02
     -2.796  0.1564E+03  0.3106E+02
     -2.775  0.1011E+03  0.3323E+02
     -2.753  0.3929E+02  0.3407E+02
     -2.732  0.3699E+02  0.3486E+02
     -2.711  0.7297E+02  0.3643E+02
     -2.689  0.9071E+02  0.3838E+02
     -2.668  0.6523E+02  0.3978E+02
     -2.646  0.4773E+02  0.4080E+02
     -2.625  0.6780E+02  0.4226E+02
     -2.603  0.9929E+02  0.4439E+02
     -2.582  0.1254E+03  0.4708E+02
     -2.560  0.1320E+03  0.4991E+02
     -2.539  0.1103E+03  0.5228E+02
     -2.517  0.1065E+03  0.5457E+02
     -2.496  0.1310E+03  0.5738E+02
     -2.474  0.1637E+03  0.6089E+02
     -2.453  0.1862E+03  0.6489E+02
     -2.432  0.1556E+03  0.6823E+02
     -2.410  0.8961E+02  0.7015E+02
     -2.389  0.5569E+02  0.7134E+02
     -2.367  0.5282E+02  0.7248E+02
     -2.346  0.6870E+02  0.7395E+02
     -2.324  0.7062E+02  0.7547E+02
     -2.303  0.6641E+02  0.7689E+02
     -2.281  0.9800E+02  0.7900E+02
     -2.260  0.1339E+03  0.8187E+02
     -2.238  0.1540E+03  0.8518E+02
     -2.217  0.1538E+03  0.8848E+02
     -2.195  0.1271E+03  0.9120E+02
     -2.174  0.1064E+03  0.9349E+02
     -2.153  0.1269E+03  0.9621E+02
     -2.131  0.1582E+03  0.9961E+02
     -2.110  0.1858E+03  0.1036E+03
     -2.088  0.1847E+03  0.1076E+03
     -2.067  0.1321E+03  0.1104E+03
     -2.045  0.6618E+02  0.1118E+03
     -2.024  0.5348E+02  0.1130E+03
     -2.002  0.1003E+03  0.1151E+03
     -1.981  0.1383E+03  0.1181E+03
     -1.959  0.1388E+03  0.1211E+03
     -1.938  0.1427E+03  0.1241E+03
     -1.916  0.1659E+03  0.1277E+03
     -1.895  0.1800E+03  0.1316E+03
     -1.874  0.1789E+03  0.1354E+03
     -1.852  0.1654E+03  0.1389E+03
     -1.831  0.1355E+03  0.1419E+03
     -1.809  0.1252E+03  0.1445E+03
     -1.788  0.1443E+03  0.1476E+03
     -1.766  0.1674E+03  0.1512E+03
     -1.745  0.1722E+03  0.1549E+03
     -1.723  0.1441E+03  0.1580E+03
     -1.702  0.1132E+03  0.1604E+03
     -1.680  0.1108E+03  0.1628E+03
     -1.659  0.1185E+03  0.1654E+03
     -1.637  0.1079E+03  0.1677E+03
     -1.616  0.9433E+02  0.1697E+03
     -1.594  0.1111E+03  0.1721E+03
     -1.573  0.1502E+03  0.1753E+03
     -1.552  0.1616E+03  0.1788E+03
     -1.530  0.1593E+03  0.1822E+03
     -1.509  0.1661E+03  0.1858E+03
     -1.487  0.1660E+03  0.1893E+03
     -1.466  0.1717E+03  0.1930E+03
     -1.444  0.1976E+03  0.1973E+03
     -1.423  0.2224E+03  0.2020E+03
     -1.401  0.2287E+03  0.2069E+03
     -1.380  0.2182E+03  0.2116E+03
     -1.358  0.2044E+03  0.2160E+03
     -1.337  0.1897E+03  0.2201E+03
     -1.315  0.1763E+03  0.2239E+03
     -1.294  0.1614E+03  0.2273E+03
     -1.273  0.1378E+03  0.2303E+03
     -1.251  0.1080E+03  0.2326E+03
     -1.230  0.1171E+03  0.2351E+03
     -1.208  0.1562E+03  0.2385E+03
     -1.187  0.1676E+03  0.2421E+03
     -1.165  0.1584E+03  0.2455E+03
     -1.144  0.1595E+03  0.2489E+03
     -1.122  0.1746E+03  0.2526E+03
     -1.101  0.1978E+03  0.2569E+03
     -1.079  0.2062E+03  0.2613E+03
     -1.058  0.1925E+03  0.2654E+03
     -1.036  0.1623E+03  0.2689E+03
     -1.015  0.1289E+03  0.2717E+03
     -0.994  0.1294E+03  0.2745E+03
     -0.972  0.1661E+03  0.2780E+03
     -0.951  0.1795E+03  0.2819E+03
     -0.929  0.1634E+03  0.2854E+03
     -0.908  0.1688E+03  0.2890E+03
     -0.886  0.1874E+03  0.2930E+03
     -0.865  0.2096E+03  0.2975E+03
     -0.843  0.2366E+03  0.3026E+03
     -0.822  0.2387E+03  0.3077E+03
     -0.800  0.2159E+03  0.3124E+03
     -0.779  0.2075E+03  0.3168E+03
     -0.757  0.2243E+03  0.3216E+03
     -0.736  0.2423E+03  0.3268E+03
     -0.715  0.2435E+03  0.3321E+03
     -0.693  0.2222E+03  0.3368E+03
     -0.672  0.1793E+03  0.3407E+03
     -0.650  0.1529E+03  0.3440E+03
     -0.629  0.1661E+03  0.3475E+03
     -0.607  0.1785E+03  0.3514E+03
     -0.586  0.1702E+03  0.3550E+03
     -0.564  0.1656E+03  0.3586E+03
     -0.543  0.1906E+03  0.3627E+03
     -0.521  0.2160E+03  0.3673E+03
     -0.500  0.2098E+03  0.3718E+03
     -0.478  0.1910E+03  0.3759E+03
     -0.457  0.1890E+03  0.3800E+03
     -0.436  0.2053E+03  0.3844E+03
     -0.414  0.2234E+03  0.3892E+03
     -0.393  0.2348E+03  0.3942E+03
     -0.371  0.2539E+03  0.3996E+03
     -0.350  0.2724E+03  0.4055E+03
     -0.328  0.2612E+03  0.4111E+03
     -0.307  0.2361E+03  0.4162E+03
     -0.285  0.2193E+03  0.4209E+03
     -0.264  0.2158E+03  0.4255E+03
     -0.242  0.2199E+03  0.4302E+03
     -0.221  0.2122E+03  0.4348E+03
     -0.199  0.2076E+03  0.4392E+03
     -0.178  0.2217E+03  0.4440E+03
     -0.156  0.2276E+03  0.4489E+03
     -0.135  0.2097E+03  0.4534E+03
     -0.114  0.1895E+03  0.4574E+03
     -0.092  0.1768E+03  0.4612E+03
     -0.071  0.1868E+03  0.4652E+03
     -0.049  0.2129E+03  0.4698E+03
     -0.028  0.2221E+03  0.4746E+03
     -0.006  0.2187E+03  0.4793E+03
      0.015  0.2258E+03  0.4841E+03
      0.037  0.2483E+03  0.4895E+03
      0.058  0.2777E+03  0.4954E+03
      0.080  0.2991E+03  0.5018E+03
      0.101  0.3081E+03  0.5084E+03
      0.123  0.3119E+03  0.5151E+03
      0.144  0.3116E+03  0.5218E+03
      0.165  0.3041E+03  0.5284E+03
      0.187  0.2991E+03  0.5348E+03
      0.208  0.2955E+03  0.5411E+03
      0.230  0.2850E+03  0.5472E+03
      0.251  0.2717E+03  0.5531E+03
      0.273  0.2630E+03  0.5587E+03
      0.294  0.2607E+03  0.5643E+03
      0.316  0.2633E+03  0.5700E+03
      0.337  0.2599E+03  0.5755E+03
      0.359  0.2489E+03  0.5809E+03
      0.380  0.2302E+03  0.5858E+03
      0.402  0.2101E+03  0.5903E+03
      0.423  0.2101E+03  0.5948E+03
      0.444  0.2232E+03  0.5996E+03
      0.466  0.2276E+03  0.6045E+03
      0.487  0.2193E+03  0.6092E+03
      0.509  0.2086E+03  0.6137E+03
      0.530  0.2112E+03  0.6182E+03
      0.552  0.2201E+03  0.6229E+03
      0.573  0.2188E+03  0.6276E+03
      0.595  0.2159E+03  0.6323E+03
      0.616  0.2213E+03  0.6370E+03
      0.638  0.2353E+03  0.6421E+03
      0.659  0.2523E+03  0.6475E+03
      0.681  0.2680E+03  0.6532E+03
      0.702  0.2801E+03  0.6593E+03
      0.723  0.2815E+03  0.6653E+03
      0.745  0.2753E+03  0.6712E+03
      0.766  0.2703E+03  0.6770E+03
      0.788  0.2571E+03  0.6825E+03
      0.809  0.2435E+03  0.6877E+03
      0.831  0.2433E+03  0.6930E+03
      0.852  0.2471E+03  0.6983E+03
      0.874  0.2497E+03  0.7036E+03
      0.895  0.2450E+03  0.7089E+03
      0.917  0.2396E+03  0.7140E+03
      0.938  0.2361E+03  0.7191E+03
      0.960  0.2322E+03  0.7241E+03
      0.981  0.2277E+03  0.7290E+03
      1.002  0.2203E+03  0.7337E+03
      1.024  0.2170E+03  0.7384E+03
      1.045  0.2239E+03  0.7432E+03
      1.067  0.2301E+03  0.7481E+03
      1.088  0.2330E+03  0.7531E+03
      1.110  0.2406E+03  0.7583E+03
      1.131  0.2404E+03  0.7634E+03
      1.153  0.2285E+03  0.7683E+03
      1.174  0.2218E+03  0.7731E+03
      1.196  0.2300E+03  0.7780E+03
      1.217  0.2381E+03  0.7831E+03
      1.239  0.2359E+03  0.7882E+03
      1.260  0.2383E+03  0.7933E+03
      1.282  0.2423E+03  0.7985E+03
      1.303  0.2433E+03  0.8037E+03
      1.324  0.2473E+03  0.8090E+03
      1.346  0.2564E+03  0.8146E+03
      1.367  0.2593E+03  0.8201E+03
      1.389  0.2498E+03  0.8255E+03
      1.410  0.2357E+03  0.8305E+03
      1.432  0.2383E+03  0.8357E+03
      1.453  0.2392E+03  0.8408E+03
      1.475  0.2179E+03  0.8455E+03
      1.496  0.2050E+03  0.8499E+03
      1.518  0.2051E+03  0.8543E+03
      1.539  0.2031E+03  0.8586E+03
      1.561  0.2077E+03  0.8631E+03
      1.582  0.2150E+03  0.8677E+03
      1.603  0.2101E+03  0.8722E+03
      1.625  0.1981E+03  0.8765E+03
      1.646  0.1927E+03  0.8806E+03
      1.668  0.1979E+03  0.8848E+03
      1.689  0.1988E+03  0.8891E+03
      1.711  0.1946E+03  0.8933E+03
      1.732  0.1846E+03  0.8972E+03
      1.754  0.1716E+03  0.9009E+03
      1.775  0.1624E+03  0.9044E+03
      1.797  0.1595E+03  0.9078E+03
      1.818  0.1591E+03  0.9113E+03
      1.840  0.1591E+03  0.9147E+03
      1.861  0.1681E+03  0.9183E+03
      1.882  0.1772E+03  0.9221E+03
      1.904  0.1701E+03  0.9257E+03
      1.925  0.1590E+03  0.9291E+03
      1.947  0.1492E+03  0.9323E+03
      1.968  0.1401E+03  0.9353E+03
      1.990  0.1382E+03  0.9383E+03
      2.011  0.1434E+03  0.9414E+03
      2.033  0.1491E+03  0.9446E+03
      2.054  0.1540E+03  0.9479E+03
      2.076  0.1621E+03  0.9514E+03
      2.097  0.1628E+03  0.9549E+03
      2.119  0.1595E+03  0.9583E+03
      2.140  0.1588E+03  0.9617E+03
      2.161  0.1503E+03  0.9649E+03
      2.183  0.1474E+03  0.9681E+03
      2.204  0.1456E+03  0.9712E+03
      2.226  0.1407E+03  0.9742E+03
      2.247  0.1389E+03  0.9772E+03
      2.269  0.1337E+03  0.9801E+03
      2.290  0.1234E+03  0.9827E+03
      2.312  0.1150E+03  0.9852E+03
      2.333  0.1123E+03  0.9876E+03
      2.355  0.1191E+03  0.9902E+03
      2.376  0.1326E+03  0.9930E+03
      2.398  0.1348E+03  0.9959E+03
      2.419  0.1198E+03  0.9985E+03
      2.441  0.1077E+03  0.1001E+04
      2.462  0.9653E+02  0.1003E+04
      2.483  0.7299E+02  0.1004E+04
      2.505  0.4894E+02  0.1005E+04
      2.526  0.4284E+02  0.1006E+04
      2.548  0.5976E+02  0.1008E+04
      2.569  0.6310E+02  0.1009E+04
      2.591  0.3457E+02  0.1010E+04
      2.612  0.8968E+01  0.1010E+04
      2.634  0.1037E+01  0.1010E+04
      2.655  0.5052E-01  0.1010E+04
      2.677  0.9892E-03  0.1010E+04
      2.698  0.7529E-05  0.1010E+04
      2.720  0.2177E-07  0.1010E+04
      2.741  0.2353E-10  0.1010E+04
      2.762  0.7759E-14  0.1010E+04
      2.784  0.0000E+00  0.1010E+04
      2.805  0.0000E+00  0.1010E+04
      2.827  0.0000E+00  0.1010E+04
      2.848  0.0000E+00  0.1010E+04
      2.870  0.0000E+00  0.1010E+04
