       N       E                     dE             d eps       ncg     rms          rms(c)
DAV:   1    -0.330087645893E+03   -0.33009E+03   -0.11795E+05  4040   0.644E+02
DAV:   2    -0.889761127925E+03   -0.55967E+03   -0.51290E+03  4636   0.636E+01
DAV:   3    -0.930372666064E+03   -0.40612E+02   -0.37090E+02  5200   0.136E+01
DAV:   4    -0.931827156583E+03   -0.14545E+01   -0.14302E+01  4712   0.278E+00
DAV:   5    -0.931860545977E+03   -0.33389E-01   -0.33324E-01  4880   0.451E-01    0.778E+00
DAV:   6    -0.926782058717E+03    0.50785E+01   -0.70551E+00  4592   0.299E+00    0.528E+00
DAV:   7    -0.926177582844E+03    0.60448E+00   -0.58975E+00  4672   0.327E+00    0.471E+00
DAV:   8    -0.923373476789E+03    0.28041E+01   -0.35531E+00  4616   0.218E+00    0.256E+00
DAV:   9    -0.923030936412E+03    0.34254E+00   -0.20295E+00  4624   0.140E+00    0.176E+00
DAV:  10    -0.922743706253E+03    0.28723E+00   -0.10351E+00  4568   0.989E-01    0.102E+00
DAV:  11    -0.922687659812E+03    0.56046E-01   -0.34233E-01  4392   0.472E-01    0.567E-01
DAV:  12    -0.922690260993E+03   -0.26012E-02   -0.64380E-02  4568   0.253E-01    0.417E-01
DAV:  13    -0.922677729091E+03    0.12532E-01   -0.31884E-02  4520   0.199E-01    0.263E-01
DAV:  14    -0.922674428403E+03    0.33007E-02   -0.98175E-03  4512   0.105E-01    0.129E-01
DAV:  15    -0.922674379682E+03    0.48721E-04   -0.41867E-03  4544   0.732E-02    0.994E-02
DAV:  16    -0.922673352831E+03    0.10269E-02   -0.19385E-03  4608   0.513E-02    0.562E-02
DAV:  17    -0.922673211871E+03    0.14096E-03   -0.62690E-04  4552   0.268E-02    0.337E-02
DAV:  18    -0.922673119780E+03    0.92091E-04   -0.26034E-04  4560   0.192E-02    0.214E-02
DAV:  19    -0.922673077294E+03    0.42486E-04   -0.10618E-04  4512   0.110E-02    0.117E-02
DAV:  20    -0.922673063377E+03    0.13917E-04   -0.46196E-05  4352   0.622E-03    0.546E-03
DAV:  21    -0.922673061407E+03    0.19702E-05   -0.98372E-06  2192   0.313E-03
   1 F= -.92267306E+03 E0= -.92260389E+03  d E =-.138334E+00
