 432 432   0   0
  0.2356206E+02  0.2167200E-08  0.2167200E-08  0.2167200E-08  0.5000000E-15
  1.000000000000000E-004
  CAR 
 Li                                      
      2.85647333     -3.59279004  301      0.02833895      1.00000000
     -3.593  0.0000E+00  0.0000E+00
     -3.571  0.0000E+00  0.0000E+00
     -3.550  0.0000E+00  0.0000E+00
     -3.528  0.0000E+00  0.0000E+00
     -3.507  0.0000E+00  0.0000E+00
     -3.485  0.0000E+00  0.0000E+00
     -3.464  0.3486E-13  0.7494E-15
     -3.442  0.8259E-10  0.1776E-11
     -3.421  0.7268E-07  0.1564E-08
     -3.399  0.2344E-04  0.5055E-06
     -3.378  0.2791E-02  0.6051E-04
     -3.356  0.1238E+00  0.2723E-02
     -3.335  0.2072E+01  0.4726E-01
     -3.313  0.1323E+02  0.3317E+00
     -3.292  0.3267E+02  0.1034E+01
     -3.270  0.3140E+02  0.1709E+01
     -3.249  0.1188E+02  0.1965E+01
     -3.227  0.4122E+01  0.2053E+01
     -3.206  0.1712E+02  0.2421E+01
     -3.184  0.5443E+02  0.3591E+01
     -3.163  0.8885E+02  0.5501E+01
     -3.141  0.7679E+02  0.7152E+01
     -3.120  0.3296E+02  0.7861E+01
     -3.098  0.9949E+01  0.8075E+01
     -3.077  0.2293E+02  0.8568E+01
     -3.055  0.6324E+02  0.9927E+01
     -3.034  0.9176E+02  0.1190E+02
     -3.012  0.6902E+02  0.1338E+02
     -2.991  0.2600E+02  0.1394E+02
     -2.969  0.1530E+02  0.1427E+02
     -2.948  0.4582E+02  0.1526E+02
     -2.926  0.9358E+02  0.1727E+02
     -2.905  0.1113E+03  0.1966E+02
     -2.883  0.7722E+02  0.2132E+02
     -2.862  0.3056E+02  0.2198E+02
     -2.840  0.2933E+02  0.2261E+02
     -2.819  0.8507E+02  0.2444E+02
     -2.797  0.1468E+03  0.2759E+02
     -2.776  0.1490E+03  0.3079E+02
     -2.754  0.9805E+02  0.3290E+02
     -2.733  0.4162E+02  0.3380E+02
     -2.711  0.1806E+02  0.3419E+02
     -2.690  0.4348E+02  0.3512E+02
     -2.668  0.9112E+02  0.3708E+02
     -2.647  0.8901E+02  0.3899E+02
     -2.625  0.4152E+02  0.3988E+02
     -2.604  0.2435E+02  0.4041E+02
     -2.582  0.5664E+02  0.4163E+02
     -2.561  0.1121E+03  0.4404E+02
     -2.539  0.1532E+03  0.4733E+02
     -2.518  0.1337E+03  0.5020E+02
     -2.496  0.7023E+02  0.5171E+02
     -2.475  0.4757E+02  0.5273E+02
     -2.453  0.9923E+02  0.5487E+02
     -2.432  0.1684E+03  0.5849E+02
     -2.410  0.1972E+03  0.6273E+02
     -2.389  0.1751E+03  0.6649E+02
     -2.367  0.1115E+03  0.6889E+02
     -2.346  0.4877E+02  0.6994E+02
     -2.324  0.3788E+02  0.7075E+02
     -2.303  0.7142E+02  0.7229E+02
     -2.281  0.9054E+02  0.7423E+02
     -2.260  0.6115E+02  0.7555E+02
     -2.238  0.2909E+02  0.7617E+02
     -2.217  0.5166E+02  0.7728E+02
     -2.195  0.1175E+03  0.7981E+02
     -2.174  0.1646E+03  0.8335E+02
     -2.152  0.1579E+03  0.8674E+02
     -2.131  0.1058E+03  0.8902E+02
     -2.109  0.5902E+02  0.9029E+02
     -2.088  0.7709E+02  0.9194E+02
     -2.066  0.1471E+03  0.9511E+02
     -2.045  0.2019E+03  0.9945E+02
     -2.023  0.1953E+03  0.1036E+03
     -2.002  0.1336E+03  0.1065E+03
     -1.980  0.6608E+02  0.1079E+03
     -1.959  0.5934E+02  0.1092E+03
     -1.937  0.1125E+03  0.1116E+03
     -1.916  0.1531E+03  0.1149E+03
     -1.894  0.1337E+03  0.1178E+03
     -1.873  0.8264E+02  0.1196E+03
     -1.851  0.7203E+02  0.1211E+03
     -1.830  0.1300E+03  0.1239E+03
     -1.808  0.1892E+03  0.1280E+03
     -1.787  0.1978E+03  0.1322E+03
     -1.765  0.1558E+03  0.1356E+03
     -1.744  0.9275E+02  0.1376E+03
     -1.723  0.7325E+02  0.1392E+03
     -1.701  0.1252E+03  0.1418E+03
     -1.680  0.1948E+03  0.1460E+03
     -1.658  0.2101E+03  0.1506E+03
     -1.637  0.1558E+03  0.1539E+03
     -1.615  0.8103E+02  0.1556E+03
     -1.594  0.5504E+02  0.1568E+03
     -1.572  0.9523E+02  0.1589E+03
     -1.551  0.1438E+03  0.1620E+03
     -1.529  0.1462E+03  0.1651E+03
     -1.508  0.9627E+02  0.1672E+03
     -1.486  0.5204E+02  0.1683E+03
     -1.465  0.6683E+02  0.1697E+03
     -1.443  0.1183E+03  0.1723E+03
     -1.422  0.1508E+03  0.1755E+03
     -1.400  0.1337E+03  0.1784E+03
     -1.379  0.1047E+03  0.1806E+03
     -1.357  0.1376E+03  0.1836E+03
     -1.336  0.2141E+03  0.1882E+03
     -1.314  0.2718E+03  0.1940E+03
     -1.293  0.2776E+03  0.2000E+03
     -1.271  0.2300E+03  0.2050E+03
     -1.250  0.1597E+03  0.2084E+03
     -1.228  0.1216E+03  0.2110E+03
     -1.207  0.1479E+03  0.2142E+03
     -1.185  0.1909E+03  0.2183E+03
     -1.164  0.1974E+03  0.2225E+03
     -1.142  0.1561E+03  0.2259E+03
     -1.121  0.9306E+02  0.2279E+03
     -1.099  0.8127E+02  0.2296E+03
     -1.078  0.1264E+03  0.2324E+03
     -1.056  0.1610E+03  0.2358E+03
     -1.035  0.1543E+03  0.2391E+03
     -1.013  0.1128E+03  0.2416E+03
     -0.992  0.1000E+03  0.2437E+03
     -0.970  0.1558E+03  0.2471E+03
     -0.949  0.2226E+03  0.2518E+03
     -0.927  0.2508E+03  0.2572E+03
     -0.906  0.2192E+03  0.2619E+03
     -0.884  0.1511E+03  0.2652E+03
     -0.863  0.1090E+03  0.2675E+03
     -0.841  0.1024E+03  0.2697E+03
     -0.820  0.7577E+02  0.2714E+03
     -0.798  0.4823E+02  0.2724E+03
     -0.777  0.8681E+02  0.2743E+03
     -0.755  0.1674E+03  0.2779E+03
     -0.734  0.2231E+03  0.2827E+03
     -0.712  0.2411E+03  0.2878E+03
     -0.691  0.2285E+03  0.2928E+03
     -0.669  0.2018E+03  0.2971E+03
     -0.648  0.1714E+03  0.3008E+03
     -0.626  0.1633E+03  0.3043E+03
     -0.605  0.2029E+03  0.3086E+03
     -0.583  0.2513E+03  0.3141E+03
     -0.562  0.2750E+03  0.3200E+03
     -0.540  0.2568E+03  0.3255E+03
     -0.519  0.1989E+03  0.3298E+03
     -0.497  0.1400E+03  0.3328E+03
     -0.476  0.1248E+03  0.3355E+03
     -0.454  0.1377E+03  0.3384E+03
     -0.433  0.1400E+03  0.3414E+03
     -0.411  0.1426E+03  0.3445E+03
     -0.390  0.1730E+03  0.3482E+03
     -0.368  0.2153E+03  0.3528E+03
     -0.347  0.2349E+03  0.3579E+03
     -0.325  0.2355E+03  0.3629E+03
     -0.304  0.2329E+03  0.3680E+03
     -0.282  0.2284E+03  0.3729E+03
     -0.261  0.2138E+03  0.3775E+03
     -0.239  0.1937E+03  0.3816E+03
     -0.218  0.1908E+03  0.3857E+03
     -0.196  0.2025E+03  0.3901E+03
     -0.175  0.2094E+03  0.3946E+03
     -0.153  0.2035E+03  0.3990E+03
     -0.132  0.1748E+03  0.4027E+03
     -0.110  0.1419E+03  0.4058E+03
     -0.089  0.1361E+03  0.4087E+03
     -0.067  0.1532E+03  0.4120E+03
     -0.046  0.1911E+03  0.4161E+03
     -0.024  0.2207E+03  0.4208E+03
     -0.003  0.2195E+03  0.4256E+03
      0.019  0.2073E+03  0.4300E+03
      0.040  0.2105E+03  0.4345E+03
      0.062  0.2150E+03  0.4392E+03
      0.083  0.2164E+03  0.4438E+03
      0.105  0.2215E+03  0.4486E+03
      0.126  0.2232E+03  0.4534E+03
      0.148  0.2172E+03  0.4580E+03
      0.169  0.2027E+03  0.4624E+03
      0.191  0.1865E+03  0.4664E+03
      0.212  0.1828E+03  0.4703E+03
      0.234  0.1954E+03  0.4745E+03
      0.255  0.2163E+03  0.4792E+03
      0.277  0.2383E+03  0.4843E+03
      0.298  0.2551E+03  0.4898E+03
      0.320  0.2659E+03  0.4955E+03
      0.341  0.2689E+03  0.5013E+03
      0.363  0.2641E+03  0.5070E+03
      0.384  0.2605E+03  0.5126E+03
      0.406  0.2550E+03  0.5181E+03
      0.427  0.2546E+03  0.5235E+03
      0.449  0.2643E+03  0.5292E+03
      0.470  0.2652E+03  0.5349E+03
      0.492  0.2581E+03  0.5405E+03
      0.513  0.2528E+03  0.5459E+03
      0.535  0.2434E+03  0.5511E+03
      0.556  0.2393E+03  0.5563E+03
      0.578  0.2388E+03  0.5614E+03
      0.599  0.2313E+03  0.5664E+03
      0.621  0.2353E+03  0.5714E+03
      0.642  0.2509E+03  0.5768E+03
      0.664  0.2523E+03  0.5823E+03
      0.685  0.2400E+03  0.5874E+03
      0.707  0.2310E+03  0.5924E+03
      0.728  0.2286E+03  0.5973E+03
      0.750  0.2283E+03  0.6022E+03
      0.771  0.2281E+03  0.6071E+03
      0.793  0.2228E+03  0.6119E+03
      0.814  0.2112E+03  0.6164E+03
      0.836  0.1995E+03  0.6207E+03
      0.857  0.1920E+03  0.6248E+03
      0.879  0.1932E+03  0.6290E+03
      0.900  0.2005E+03  0.6333E+03
      0.922  0.2036E+03  0.6377E+03
      0.943  0.2011E+03  0.6420E+03
      0.965  0.1915E+03  0.6461E+03
      0.986  0.1662E+03  0.6497E+03
      1.008  0.1455E+03  0.6528E+03
      1.029  0.1576E+03  0.6562E+03
      1.051  0.1648E+03  0.6598E+03
      1.072  0.1526E+03  0.6630E+03
      1.094  0.1512E+03  0.6663E+03
      1.115  0.1607E+03  0.6697E+03
      1.137  0.1752E+03  0.6735E+03
      1.158  0.1942E+03  0.6777E+03
      1.180  0.2016E+03  0.6820E+03
      1.201  0.1965E+03  0.6862E+03
      1.223  0.1910E+03  0.6903E+03
      1.244  0.1831E+03  0.6943E+03
      1.266  0.1713E+03  0.6980E+03
      1.287  0.1654E+03  0.7015E+03
      1.309  0.1737E+03  0.7053E+03
      1.330  0.1878E+03  0.7093E+03
      1.352  0.1945E+03  0.7135E+03
      1.373  0.1911E+03  0.7176E+03
      1.395  0.1971E+03  0.7218E+03
      1.416  0.2062E+03  0.7262E+03
      1.438  0.2046E+03  0.7306E+03
      1.459  0.1970E+03  0.7349E+03
      1.481  0.1920E+03  0.7390E+03
      1.502  0.1952E+03  0.7432E+03
      1.524  0.1973E+03  0.7474E+03
      1.545  0.1846E+03  0.7514E+03
      1.567  0.1735E+03  0.7551E+03
      1.588  0.1610E+03  0.7586E+03
      1.610  0.1375E+03  0.7616E+03
      1.631  0.1286E+03  0.7643E+03
      1.653  0.1355E+03  0.7672E+03
      1.674  0.1355E+03  0.7702E+03
      1.696  0.1359E+03  0.7731E+03
      1.717  0.1478E+03  0.7763E+03
      1.739  0.1493E+03  0.7795E+03
      1.760  0.1298E+03  0.7823E+03
      1.782  0.1130E+03  0.7847E+03
      1.803  0.1053E+03  0.7869E+03
      1.825  0.1011E+03  0.7891E+03
      1.846  0.9836E+02  0.7912E+03
      1.868  0.9172E+02  0.7932E+03
      1.889  0.7157E+02  0.7947E+03
      1.911  0.4238E+02  0.7957E+03
      1.932  0.2107E+02  0.7961E+03
      1.954  0.3197E+02  0.7968E+03
      1.975  0.6627E+02  0.7982E+03
      1.997  0.8493E+02  0.8000E+03
      2.018  0.6439E+02  0.8014E+03
      2.040  0.3640E+02  0.8022E+03
      2.061  0.4747E+02  0.8032E+03
      2.083  0.7562E+02  0.8049E+03
      2.104  0.7836E+02  0.8065E+03
      2.126  0.7442E+02  0.8081E+03
      2.147  0.9450E+02  0.8102E+03
      2.169  0.1167E+03  0.8127E+03
      2.190  0.1293E+03  0.8155E+03
      2.212  0.1359E+03  0.8184E+03
      2.233  0.1404E+03  0.8214E+03
      2.255  0.1530E+03  0.8247E+03
      2.276  0.1556E+03  0.8280E+03
      2.298  0.1464E+03  0.8312E+03
      2.319  0.1403E+03  0.8342E+03
      2.341  0.1434E+03  0.8373E+03
      2.362  0.1451E+03  0.8404E+03
      2.384  0.1339E+03  0.8433E+03
      2.405  0.1162E+03  0.8458E+03
      2.427  0.1022E+03  0.8480E+03
      2.448  0.1062E+03  0.8503E+03
      2.470  0.1229E+03  0.8529E+03
      2.491  0.1387E+03  0.8559E+03
      2.513  0.1505E+03  0.8591E+03
      2.534  0.1440E+03  0.8622E+03
      2.556  0.1073E+03  0.8645E+03
      2.577  0.5310E+02  0.8657E+03
      2.599  0.1413E+02  0.8660E+03
      2.620  0.1720E+01  0.8660E+03
      2.641  0.8733E-01  0.8660E+03
      2.663  0.1755E-02  0.8660E+03
      2.684  0.1353E-04  0.8660E+03
      2.706  0.3914E-07  0.8660E+03
      2.727  0.4196E-10  0.8660E+03
      2.749  0.2066E-13  0.8660E+03
      2.770  0.0000E+00  0.8660E+03
      2.792  0.0000E+00  0.8660E+03
      2.813  0.0000E+00  0.8660E+03
      2.835  0.0000E+00  0.8660E+03
      2.856  0.0000E+00  0.8660E+03
