       N       E                     dE             d eps       ncg     rms          rms(c)
DAV:   1    -0.273512911229E+03   -0.27351E+03   -0.10043E+05  3464   0.641E+02
DAV:   2    -0.754008824573E+03   -0.48050E+03   -0.43856E+03  4012   0.632E+01
DAV:   3    -0.789404769785E+03   -0.35396E+02   -0.32536E+02  4448   0.136E+01
DAV:   4    -0.790648245035E+03   -0.12435E+01   -0.12262E+01  4024   0.280E+00
DAV:   5    -0.790677267383E+03   -0.29022E-01   -0.28984E-01  4160   0.454E-01    0.878E+00
DAV:   6    -0.788598033139E+03    0.20792E+01   -0.93625E+00  4128   0.493E+00    0.755E+00
DAV:   7    -0.780399344391E+03    0.81987E+01   -0.10495E+01  4168   0.448E+00    0.414E+00
DAV:   8    -0.778661342209E+03    0.17380E+01   -0.52845E+00  3976   0.222E+00    0.222E+00
DAV:   9    -0.778344658983E+03    0.31668E+00   -0.27166E+00  3776   0.131E+00    0.110E+00
DAV:  10    -0.778411379087E+03   -0.66720E-01   -0.47093E-01  4112   0.735E-01    0.961E-01
DAV:  11    -0.778307254095E+03    0.10412E+00   -0.19612E-01  4016   0.508E-01    0.484E-01
DAV:  12    -0.778303121610E+03    0.41325E-02   -0.56402E-02  3832   0.216E-01    0.261E-01
DAV:  13    -0.778303507742E+03   -0.38613E-03   -0.18137E-02  3992   0.154E-01    0.190E-01
DAV:  14    -0.778300389593E+03    0.31181E-02   -0.63390E-03  3928   0.988E-02    0.101E-01
DAV:  15    -0.778299818265E+03    0.57133E-03   -0.20651E-03  3848   0.465E-02    0.491E-02
DAV:  16    -0.778299881362E+03   -0.63097E-04   -0.64876E-04  4032   0.289E-02    0.340E-02
DAV:  17    -0.778299722137E+03    0.15922E-03   -0.32045E-04  3984   0.209E-02    0.143E-02
DAV:  18    -0.778299713482E+03    0.86546E-05   -0.85232E-05  3712   0.821E-03
   1 F= -.77829971E+03 E0= -.77825243E+03  d E =-.945627E-01
