Li                                      
           1
    21.672000    0.000000    0.000000
     0.000000   21.672000    0.000000
     0.000000    0.000000   21.672000
   Li
   432
Direct configuration=     1
   0.00879815  0.99085088  0.97458659
   0.90634920  0.06086550  0.08206471
   0.83758775  0.15087943  0.15530044
   0.77648751  0.23754814  0.22561904
   0.67268755  0.33695464  0.30780518
   0.60489232  0.41651557  0.43280746
   0.50995340  0.50436479  0.49157843
   0.40215293  0.57971792  0.57533830
   0.33196740  0.65805315  0.66789605
   0.26733618  0.76774335  0.75384932
   0.16195756  0.84575274  0.80142029
   0.10192713  0.93802267  0.89637671
   0.08056427  0.91776577  0.10172976
   0.97407591  0.99718814  0.17954405
   0.89624234  0.09826055  0.24678973
   0.83347397  0.17993292  0.34474132
   0.75744460  0.27344865  0.38791676
   0.67909677  0.32415122  0.49727171
   0.58177987  0.43036702  0.58541716
   0.47706771  0.50113314  0.65116054
   0.40642703  0.58598269  0.74313483
   0.30016450  0.67050526  0.81932842
   0.24805116  0.76908656  0.90361996
   0.14735884  0.83570149  0.00031645
   0.17295750  0.82979304  0.19494533
   0.06914042  0.89788431  0.25844129
   0.98706996  0.97809725  0.35020814
   0.90873710  0.09419876  0.41439732
   0.83175426  0.16845180  0.48560608
   0.75745193  0.27243298  0.57230142
   0.66253135  0.33660974  0.68647801
   0.56888482  0.42195024  0.74775251
   0.50490512  0.50621161  0.80714195
   0.39709341  0.57516686  0.90662988
   0.33524875  0.69660384  0.99267428
   0.25398384  0.76853911  0.06807617
   0.26260373  0.75215632  0.27534052
   0.17339072  0.82841790  0.33880311
   0.10500472  0.90401698  0.42523983
   0.97447314  0.98313927  0.49017911
   0.91458783  0.09888247  0.58190002
   0.84325128  0.18147337  0.64765448
   0.75285420  0.25455935  0.74820070
   0.66461110  0.34570328  0.83651592
   0.56263748  0.43201974  0.90426048
   0.50237547  0.51577131  0.98853560
   0.39929609  0.59502783  0.07566815
   0.31367400  0.66735117  0.16867172
   0.32678188  0.64929434  0.35764292
   0.24847010  0.74005132  0.42651158
   0.18320758  0.80459395  0.50785810
   0.08776062  0.89852003  0.58417667
   0.01254520  0.01146639  0.66313952
   0.91347393  0.10377561  0.72577566
   0.82362502  0.15286311  0.83491196
   0.75841030  0.24105546  0.90053056
   0.64244942  0.32577800  0.99496583
   0.56535138  0.43627455  0.12837839
   0.49187967  0.53379421  0.15198595
   0.38369938  0.57544994  0.22610445
   0.44265399  0.57180760  0.42997542
   0.33473877  0.66276829  0.49099015
   0.26782131  0.74784740  0.58200076
   0.20528148  0.84324060  0.67398869
   0.11525773  0.95482526  0.72080667
   0.98687787  0.00469286  0.80475519
   0.88656237  0.07861664  0.90836359
   0.82853514  0.18075666  0.00657611
   0.77160760  0.26912144  0.11559592
   0.67751558  0.33363239  0.17202989
   0.57172582  0.44875297  0.23227525
   0.48383537  0.51126350  0.33045268
   0.06987027  0.10017483  0.90620394
   0.00072755  0.15417081  0.02074454
   0.90416647  0.26005137  0.08062859
   0.83705200  0.35985233  0.16646691
   0.75602211  0.42127992  0.25303472
   0.65944768  0.50662082  0.35461549
   0.58229388  0.61140527  0.41535339
   0.48996986  0.66943364  0.50279173
   0.40863694  0.75314528  0.57707594
   0.32702992  0.84787114  0.66869543
   0.27751375  0.97009416  0.77382515
   0.17163852  0.02038173  0.84240745
   0.15853807  0.02167724  0.99612458
   0.07780024  0.08899053  0.08489758
   0.98133604  0.14166856  0.15808806
   0.90268630  0.24808794  0.25468705
   0.83549179  0.33028695  0.31585189
   0.74540563  0.42276250  0.41178212
   0.66523372  0.50673584  0.50247165
   0.58382820  0.59027453  0.59181469
   0.50077903  0.67474435  0.66008615
   0.41778864  0.77357207  0.75356753
   0.35536202  0.86713409  0.83004740
   0.24747856  0.92392870  0.88580897
   0.24597357  0.90022291  0.09306697
   0.15634625  0.98992228  0.16222916
   0.05802463  0.06868138  0.26285300
   0.96953435  0.19592472  0.34327051
   0.89316342  0.27288256  0.42327876
   0.83803356  0.32682603  0.49654150
   0.74868232  0.41842687  0.57999475
   0.68166995  0.49272352  0.66294312
   0.57374191  0.58288830  0.74972189
   0.47716278  0.66966841  0.80783524
   0.42994743  0.74827692  0.89523398
   0.34611449  0.83479795  0.97231114
   0.33275104  0.83393744  0.18195467
   0.24444209  0.92542578  0.23221579
   0.16386291  0.00689590  0.34139089
   0.04731826  0.08445113  0.42884334
   0.98846745  0.17997022  0.49943016
   0.90905368  0.25882551  0.60025856
   0.82458562  0.35547438  0.67778590
   0.75037358  0.42090434  0.76167787
   0.65223694  0.50664454  0.82185909
   0.54461126  0.59760539  0.90121095
   0.48030213  0.66041783  0.97430555
   0.40065378  0.75792015  0.08534013
   0.41821665  0.75672863  0.26100037
   0.31245823  0.84225503  0.34227509
   0.25247185  0.92758043  0.42717214
   0.17035033  0.01446725  0.50575998
   0.09656257  0.08286393  0.57453959
   0.00088462  0.17993770  0.65355597
   0.89497152  0.26071355  0.75407660
   0.82359581  0.33406560  0.84091382
   0.72855014  0.41773688  0.90050655
   0.63527683  0.51756534  0.99475058
   0.56594519  0.61780201  0.07756385
   0.49327038  0.66346947  0.16811774
   0.47245605  0.68172993  0.31032031
   0.41433536  0.74475281  0.41643853
   0.33707103  0.84320783  0.50624864
   0.25243405  0.91863899  0.57824369
   0.18656500  0.00437858  0.63817560
   0.11545954  0.10288960  0.74744173
   0.99194983  0.17956472  0.83251490
   0.91201079  0.25334236  0.92769507
   0.82101217  0.35289267  0.99553844
   0.75331765  0.44423636  0.08787433
   0.65606298  0.53179460  0.17852072
   0.58711940  0.60345141  0.26410156
   0.19188349  0.15739168  0.84511377
   0.10680653  0.24779205  0.93901552
   0.00031840  0.33645453  0.02055615
   0.90932992  0.42845507  0.08824532
   0.84652952  0.50765970  0.16242528
   0.74575801  0.60745386  0.25088316
   0.65908201  0.69004283  0.35620031
   0.58362568  0.71920225  0.43932515
   0.49336125  0.82258000  0.48950682
   0.45346835  0.90224143  0.59168484
   0.34216933  0.00829533  0.64049988
   0.25156640  0.08628000  0.75849678
   0.27265483  0.08172970  0.92650935
   0.15781805  0.15446496  0.00413011
   0.09520506  0.24002173  0.10181861
   0.97087800  0.31619218  0.15596784
   0.92482829  0.41272692  0.24327302
   0.84434282  0.50006470  0.33659595
   0.76185008  0.59887921  0.41104656
   0.67437654  0.66607747  0.51823092
   0.57323532  0.76291064  0.59015433
   0.49736200  0.81442161  0.69662913
   0.43674906  0.94872686  0.74430278
   0.33690329  0.02387391  0.84474507
   0.35248972  0.01045859  0.99972316
   0.25636902  0.09267749  0.07885008
   0.15987868  0.14528519  0.18644331
   0.07794031  0.24855346  0.24601496
   0.99688281  0.32255055  0.32654427
   0.90262950  0.40937984  0.42876521
   0.81510065  0.50869580  0.50301685
   0.75993572  0.56725264  0.57932452
   0.66871628  0.67768868  0.66926125
   0.57878147  0.73498521  0.75580439
   0.50205311  0.82198963  0.83015616
   0.44502373  0.93640321  0.92046138
   0.42131838  0.90945609  0.07098697
   0.34836340  0.00331161  0.16710921
   0.25467277  0.07670805  0.23379558
   0.16168048  0.15747410  0.33341204
   0.09632620  0.23610841  0.40413353
   0.00796570  0.29822891  0.49698294
   0.93260181  0.41303433  0.57047472
   0.85266886  0.49695110  0.67645564
   0.74386118  0.57318409  0.75574854
   0.63591278  0.64835217  0.82371079
   0.57135316  0.74043911  0.90267071
   0.50546989  0.84477392  0.01093352
   0.49984317  0.82547012  0.17009037
   0.43198292  0.90316161  0.26941145
   0.35123990  0.99383598  0.30910498
   0.26011544  0.08156940  0.39563843
   0.16858909  0.17763633  0.47834533
   0.09013203  0.24908390  0.55525749
   0.97875878  0.29561676  0.66926173
   0.93492428  0.40540932  0.75169647
   0.84819632  0.49100650  0.84757662
   0.71778365  0.56323798  0.91632663
   0.66317924  0.65677689  0.01460562
   0.56419686  0.74089328  0.06972256
   0.54648943  0.74273825  0.25971006
   0.48367650  0.83852979  0.37288220
   0.41137692  0.93089861  0.45237171
   0.33756660  0.99856493  0.52307648
   0.24695688  0.09370728  0.56774666
   0.17700320  0.14496255  0.64629451
   0.09417483  0.21657807  0.76104005
   0.99463408  0.31512067  0.83650982
   0.92225625  0.41048519  0.92290438
   0.81520941  0.50266097  0.99585569
   0.74220706  0.58431995  0.08566459
   0.65034640  0.68716935  0.15203971
   0.26141023  0.22738324  0.74806931
   0.17430740  0.31114996  0.83050604
   0.09096792  0.38315615  0.90793973
   0.01252547  0.48730057  0.99117444
   0.91693818  0.56942842  0.09458600
   0.83832860  0.65877890  0.15506946
   0.74318033  0.74200310  0.22848294
   0.67285343  0.82127892  0.34222938
   0.60276914  0.90346104  0.45172362
   0.51480657  0.01051840  0.51382480
   0.44124513  0.09967134  0.55878347
   0.31516431  0.15285478  0.65750906
   0.35103599  0.15764914  0.83656373
   0.25284598  0.24954876  0.93024401
   0.17937220  0.33213160  0.01726541
   0.08455379  0.39893897  0.08229875
   0.02096453  0.48734183  0.16538786
   0.94528135  0.57861744  0.25444808
   0.83770875  0.66460056  0.32455535
   0.74929387  0.73894185  0.42135617
   0.68834463  0.80903901  0.48165269
   0.58429716  0.89755384  0.58266403
   0.49549752  0.00859383  0.64724271
   0.41089509  0.07596122  0.73949609
   0.42874128  0.09442947  0.92406339
   0.35335262  0.15132437  0.02142689
   0.25200996  0.25337572  0.09140445
   0.18153724  0.33373665  0.17233505
   0.08824082  0.40354666  0.24948099
   0.01839757  0.47163151  0.32352801
   0.91774830  0.57282038  0.41346743
   0.81301115  0.65291304  0.51947828
   0.75617161  0.75591875  0.60898259
   0.63923024  0.83719817  0.68315249
   0.58963415  0.94168560  0.77028966
   0.51350584  0.05820720  0.84434814
   0.50950518  0.99745560  0.98554838
   0.43532335  0.04786874  0.09543325
   0.31680757  0.17204743  0.15602480
   0.25926271  0.24551362  0.25429539
   0.15232597  0.31406087  0.33512979
   0.08484663  0.41272271  0.42587625
   0.99654680  0.49764137  0.50802819
   0.90751434  0.58280639  0.59541645
   0.83522189  0.67465727  0.66344496
   0.73761936  0.74750856  0.74648113
   0.65533903  0.83688339  0.83929424
   0.58341769  0.94371948  0.91039473
   0.58234113  0.90184020  0.07822399
   0.52574790  0.98624485  0.18017734
   0.44412838  0.06835774  0.24692104
   0.31789834  0.14632079  0.32076084
   0.25830863  0.25794382  0.39434462
   0.19056753  0.31808942  0.50515888
   0.08705889  0.39212931  0.58299607
   0.99144405  0.50558340  0.65426781
   0.92578070  0.56531730  0.75500693
   0.81730950  0.66299243  0.83409947
   0.74063405  0.75680801  0.89862228
   0.64973221  0.85220741  0.98946155
   0.66285396  0.81168038  0.15622171
   0.60250926  0.91523520  0.25848239
   0.50892493  0.97469587  0.33753057
   0.43452756  0.08827746  0.42092639
   0.33760477  0.15658841  0.48445257
   0.25796986  0.22808735  0.56694118
   0.16394034  0.32346483  0.66582909
   0.08344241  0.40715445  0.73774038
   0.02259930  0.46395165  0.83749164
   0.91769986  0.56017918  0.89734061
   0.83427034  0.66912753  0.98408599
   0.73572281  0.75355963  0.08144906
   0.35289981  0.31764133  0.67402671
   0.26141973  0.38972903  0.75390069
   0.16131791  0.48119660  0.83824702
   0.06458083  0.59992251  0.89737253
   0.99072058  0.67685567  0.99761722
   0.91487886  0.74859728  0.07473091
   0.82406163  0.81999435  0.18668528
   0.75198533  0.92842593  0.28583198
   0.66386492  0.99536657  0.34501121
   0.60379347  0.09746146  0.41391482
   0.52699344  0.16556458  0.48589488
   0.43490260  0.22772075  0.56443519
   0.40002714  0.20945400  0.72865725
   0.32814782  0.30761587  0.81751872
   0.25461797  0.39261291  0.92054557
   0.11864990  0.49339777  0.00386437
   0.08476674  0.61130727  0.09436689
   0.99897930  0.68338788  0.16178095
   0.89925806  0.73785166  0.26054106
   0.82659611  0.82177142  0.32721008
   0.76263454  0.92212002  0.43611433
   0.66208058  0.99986874  0.50535941
   0.59447632  0.07552871  0.59008749
   0.49096936  0.16875566  0.66295638
   0.49258929  0.16680949  0.82153153
   0.44077790  0.24707901  0.92059705
   0.33992677  0.33222651  0.01029261
   0.25735886  0.41800748  0.07770152
   0.17006299  0.51135651  0.14710454
   0.10106696  0.59753186  0.23119695
   0.01429173  0.66890227  0.31891071
   0.94127084  0.73726682  0.43020465
   0.82595873  0.82346284  0.51695961
   0.72415419  0.90281168  0.59385107
   0.65217272  0.99359672  0.65052070
   0.58429224  0.11338683  0.74936707
   0.59305625  0.10187487  0.93891098
   0.52106824  0.19177657  0.02249381
   0.42238757  0.23403153  0.08982802
   0.34177406  0.32942197  0.17335619
   0.25814923  0.40030663  0.24839241
   0.14666796  0.50203429  0.32821331
   0.09568333  0.59695457  0.40758227
   0.00434609  0.64124750  0.51145833
   0.92966842  0.73567596  0.57858876
   0.82753927  0.82638781  0.66578969
   0.74506970  0.88383642  0.74933357
   0.65755737  0.00567224  0.83687796
   0.66444333  0.99414446  0.01678711
   0.57982057  0.08624390  0.09989566
   0.49601172  0.16404445  0.17456637
   0.42787754  0.23249173  0.25818274
   0.32969488  0.34894367  0.31502938
   0.22927723  0.38936260  0.40531014
   0.15512110  0.49476586  0.49328112
   0.10325638  0.57687909  0.62567377
   0.01518966  0.66625203  0.68137794
   0.92562210  0.73352817  0.73144432
   0.86766188  0.83585421  0.81071421
   0.73913716  0.92102319  0.91249928
   0.75554581  0.89102938  0.08962132
   0.66725183  0.00115049  0.17156839
   0.59997716  0.06429034  0.25220456
   0.51636613  0.15254165  0.32789754
   0.41894929  0.24550752  0.40663011
   0.34419094  0.32970410  0.47993260
   0.26619157  0.40636030  0.57720156
   0.19670520  0.46758456  0.67094529
   0.09146897  0.55708675  0.74925121
   0.99677949  0.65881995  0.82817659
   0.92657732  0.73575659  0.90905536
   0.83911835  0.83464777  0.98271091
   0.41960641  0.40973544  0.58852037
   0.35466206  0.49855156  0.67863235
   0.26148472  0.58035583  0.75196440
   0.16225076  0.67928903  0.82656784
   0.06784677  0.75318659  0.90606646
   0.00888702  0.85479803  0.00148830
   0.90669244  0.90334048  0.08828640
   0.80786058  0.00167430  0.19345644
   0.75793972  0.08758882  0.28176293
   0.65867000  0.17900925  0.33010292
   0.59195699  0.26732323  0.39163089
   0.51080771  0.32165690  0.51547643
   0.50532014  0.32970898  0.66330475
   0.41282035  0.43120111  0.74800617
   0.32050019  0.49351197  0.84162542
   0.23881074  0.59825012  0.91854080
   0.14298921  0.66468974  0.97456212
   0.07878359  0.77196892  0.08329802
   0.00194325  0.81903274  0.19009272
   0.91543909  0.91477830  0.26214383
   0.83828251  0.02585045  0.35683935
   0.74961353  0.10042058  0.43883908
   0.66792508  0.19637720  0.50586821
   0.58760538  0.24876685  0.58038744
   0.59388198  0.25704399  0.75422898
   0.48288004  0.32219103  0.82183099
   0.44616927  0.42621516  0.91505356
   0.32733895  0.50485825  0.99741688
   0.25522264  0.59934319  0.05424664
   0.17756307  0.68196911  0.16150285
   0.08186253  0.75967187  0.25382486
   0.00034725  0.81540236  0.34688771
   0.91232899  0.92028396  0.40833871
   0.81872048  0.00478558  0.53291146
   0.73568157  0.08950789  0.59808592
   0.66011985  0.16143635  0.64813362
   0.66794166  0.17252046  0.84179356
   0.58807807  0.23253666  0.90205147
   0.51572215  0.33179560  0.02638012
   0.42408898  0.40849315  0.06534734
   0.32642999  0.46983300  0.16937614
   0.23439177  0.58516713  0.25032366
   0.16556831  0.67391070  0.34328806
   0.08633328  0.73664102  0.42562195
   0.98602931  0.84321027  0.50606370
   0.90480641  0.89341644  0.58367156
   0.81354484  0.00716229  0.65900381
   0.73145639  0.08766237  0.72100697
   0.74182954  0.05213164  0.92784538
   0.67319421  0.19784616  0.03107320
   0.58607286  0.26379201  0.11033405
   0.50293617  0.35285045  0.16787989
   0.42879518  0.42735958  0.24042183
   0.32101278  0.50481119  0.33877143
   0.23101879  0.56917926  0.42467485
   0.15364605  0.65431858  0.52389803
   0.08104983  0.75577039  0.60268937
   0.99337878  0.83873928  0.67700544
   0.90762330  0.93177662  0.73131171
   0.83183196  0.99680544  0.81580586
   0.82515069  0.97858358  0.02202280
   0.76230280  0.08126492  0.07838288
   0.66605230  0.16055283  0.17293000
   0.58782498  0.25306055  0.22597909
   0.50164829  0.34131374  0.32553469
   0.42839857  0.40933454  0.41031360
   0.32559987  0.50103391  0.49038098
   0.25193951  0.59663429  0.58170040
   0.17981307  0.68393311  0.69035315
   0.07195052  0.76235312  0.74258629
   0.99942032  0.84582314  0.81152795
   0.92077342  0.92844339  0.91183410
