 500 500   0   0
  0.2349479E+02  0.2273250E-08  0.2273250E-08  0.2273250E-08  0.5000000E-15
  1.000000000000000E-004
  CAR 
 Li                                      
      2.76088710     -3.59244905  301      0.03050143      1.00000000
     -3.592  0.0000E+00  0.0000E+00
     -3.571  0.0000E+00  0.0000E+00
     -3.550  0.0000E+00  0.0000E+00
     -3.529  0.0000E+00  0.0000E+00
     -3.508  0.0000E+00  0.0000E+00
     -3.487  0.0000E+00  0.0000E+00
     -3.465  0.1573E-13  0.3331E-15
     -3.444  0.3716E-10  0.7873E-12
     -3.423  0.3323E-07  0.7046E-09
     -3.402  0.1121E-04  0.2382E-06
     -3.381  0.1437E-02  0.3067E-04
     -3.359  0.7050E-01  0.1524E-02
     -3.338  0.1338E+01  0.2987E-01
     -3.317  0.9950E+01  0.2406E+00
     -3.296  0.2929E+02  0.8609E+00
     -3.275  0.3441E+02  0.1590E+01
     -3.254  0.1638E+02  0.1936E+01
     -3.232  0.6564E+01  0.2075E+01
     -3.211  0.2346E+02  0.2572E+01
     -3.190  0.6765E+02  0.4005E+01
     -3.169  0.9376E+02  0.5991E+01
     -3.148  0.6623E+02  0.7393E+01
     -3.127  0.2584E+02  0.7940E+01
     -3.105  0.1856E+02  0.8333E+01
     -3.084  0.5260E+02  0.9447E+01
     -3.063  0.9053E+02  0.1136E+02
     -3.042  0.7954E+02  0.1305E+02
     -3.021  0.3797E+02  0.1385E+02
     -2.999  0.2325E+02  0.1435E+02
     -2.978  0.5624E+02  0.1554E+02
     -2.957  0.1027E+03  0.1771E+02
     -2.936  0.1090E+03  0.2002E+02
     -2.915  0.6961E+02  0.2150E+02
     -2.894  0.3787E+02  0.2230E+02
     -2.872  0.6559E+02  0.2369E+02
     -2.851  0.1330E+03  0.2650E+02
     -2.830  0.1608E+03  0.2991E+02
     -2.809  0.1182E+03  0.3241E+02
     -2.788  0.5669E+02  0.3361E+02
     -2.767  0.2790E+02  0.3420E+02
     -2.745  0.5162E+02  0.3530E+02
     -2.724  0.9382E+02  0.3728E+02
     -2.703  0.8487E+02  0.3908E+02
     -2.682  0.4280E+02  0.3999E+02
     -2.661  0.4085E+02  0.4085E+02
     -2.639  0.9160E+02  0.4279E+02
     -2.618  0.1476E+03  0.4592E+02
     -2.597  0.1506E+03  0.4911E+02
     -2.576  0.1031E+03  0.5129E+02
     -2.555  0.7170E+02  0.5281E+02
     -2.534  0.9880E+02  0.5490E+02
     -2.512  0.1659E+03  0.5841E+02
     -2.491  0.2080E+03  0.6282E+02
     -2.470  0.1760E+03  0.6655E+02
     -2.449  0.1076E+03  0.6883E+02
     -2.428  0.6020E+02  0.7010E+02
     -2.406  0.6103E+02  0.7139E+02
     -2.385  0.8334E+02  0.7316E+02
     -2.364  0.7938E+02  0.7484E+02
     -2.343  0.5290E+02  0.7596E+02
     -2.322  0.5596E+02  0.7714E+02
     -2.301  0.1062E+03  0.7939E+02
     -2.279  0.1586E+03  0.8275E+02
     -2.258  0.1678E+03  0.8631E+02
     -2.237  0.1240E+03  0.8893E+02
     -2.216  0.8434E+02  0.9072E+02
     -2.195  0.1127E+03  0.9310E+02
     -2.174  0.1731E+03  0.9677E+02
     -2.152  0.2049E+03  0.1011E+03
     -2.131  0.1827E+03  0.1050E+03
     -2.110  0.1133E+03  0.1074E+03
     -2.089  0.7359E+02  0.1089E+03
     -2.068  0.1032E+03  0.1111E+03
     -2.046  0.1444E+03  0.1142E+03
     -2.025  0.1452E+03  0.1173E+03
     -2.004  0.1036E+03  0.1194E+03
     -1.983  0.8584E+02  0.1213E+03
     -1.962  0.1350E+03  0.1241E+03
     -1.941  0.1982E+03  0.1283E+03
     -1.919  0.2103E+03  0.1328E+03
     -1.898  0.1613E+03  0.1362E+03
     -1.877  0.1052E+03  0.1384E+03
     -1.856  0.1140E+03  0.1408E+03
     -1.835  0.1754E+03  0.1445E+03
     -1.814  0.2062E+03  0.1489E+03
     -1.792  0.1748E+03  0.1526E+03
     -1.771  0.1131E+03  0.1550E+03
     -1.750  0.8469E+02  0.1568E+03
     -1.729  0.1100E+03  0.1591E+03
     -1.708  0.1440E+03  0.1622E+03
     -1.686  0.1437E+03  0.1652E+03
     -1.665  0.1059E+03  0.1675E+03
     -1.644  0.8771E+02  0.1693E+03
     -1.623  0.1209E+03  0.1719E+03
     -1.602  0.1503E+03  0.1751E+03
     -1.581  0.1376E+03  0.1780E+03
     -1.559  0.1078E+03  0.1803E+03
     -1.538  0.1261E+03  0.1829E+03
     -1.517  0.1959E+03  0.1871E+03
     -1.496  0.2581E+03  0.1926E+03
     -1.475  0.2784E+03  0.1984E+03
     -1.453  0.2576E+03  0.2039E+03
     -1.432  0.2027E+03  0.2082E+03
     -1.411  0.1532E+03  0.2114E+03
     -1.390  0.1660E+03  0.2150E+03
     -1.369  0.2043E+03  0.2193E+03
     -1.348  0.2011E+03  0.2235E+03
     -1.326  0.1510E+03  0.2267E+03
     -1.305  0.1047E+03  0.2290E+03
     -1.284  0.1111E+03  0.2313E+03
     -1.263  0.1514E+03  0.2345E+03
     -1.242  0.1729E+03  0.2382E+03
     -1.221  0.1628E+03  0.2416E+03
     -1.199  0.1686E+03  0.2452E+03
     -1.178  0.2044E+03  0.2495E+03
     -1.157  0.2330E+03  0.2545E+03
     -1.136  0.2369E+03  0.2595E+03
     -1.115  0.1866E+03  0.2634E+03
     -1.093  0.9762E+02  0.2655E+03
     -1.072  0.5221E+02  0.2666E+03
     -1.051  0.7611E+02  0.2682E+03
     -1.030  0.9886E+02  0.2703E+03
     -1.009  0.9422E+02  0.2723E+03
     -0.988  0.1230E+03  0.2749E+03
     -0.966  0.1990E+03  0.2791E+03
     -0.945  0.2650E+03  0.2847E+03
     -0.924  0.2832E+03  0.2907E+03
     -0.903  0.2686E+03  0.2964E+03
     -0.882  0.2474E+03  0.3017E+03
     -0.861  0.2337E+03  0.3066E+03
     -0.839  0.2434E+03  0.3118E+03
     -0.818  0.2730E+03  0.3175E+03
     -0.797  0.2813E+03  0.3235E+03
     -0.776  0.2464E+03  0.3287E+03
     -0.755  0.1902E+03  0.3327E+03
     -0.733  0.1442E+03  0.3358E+03
     -0.712  0.1331E+03  0.3386E+03
     -0.691  0.1398E+03  0.3416E+03
     -0.670  0.1438E+03  0.3446E+03
     -0.649  0.1684E+03  0.3482E+03
     -0.628  0.2054E+03  0.3525E+03
     -0.606  0.2223E+03  0.3572E+03
     -0.585  0.2119E+03  0.3617E+03
     -0.564  0.1829E+03  0.3656E+03
     -0.543  0.1592E+03  0.3690E+03
     -0.522  0.1851E+03  0.3729E+03
     -0.500  0.2446E+03  0.3781E+03
     -0.479  0.2819E+03  0.3841E+03
     -0.458  0.2771E+03  0.3899E+03
     -0.437  0.2436E+03  0.3951E+03
     -0.416  0.2135E+03  0.3996E+03
     -0.395  0.2139E+03  0.4041E+03
     -0.373  0.2191E+03  0.4088E+03
     -0.352  0.1847E+03  0.4127E+03
     -0.331  0.1470E+03  0.4158E+03
     -0.310  0.1590E+03  0.4192E+03
     -0.289  0.2085E+03  0.4236E+03
     -0.268  0.2458E+03  0.4288E+03
     -0.246  0.2563E+03  0.4342E+03
     -0.225  0.2505E+03  0.4395E+03
     -0.204  0.2418E+03  0.4446E+03
     -0.183  0.2382E+03  0.4497E+03
     -0.162  0.2336E+03  0.4546E+03
     -0.140  0.2263E+03  0.4594E+03
     -0.119  0.2068E+03  0.4638E+03
     -0.098  0.1864E+03  0.4678E+03
     -0.077  0.1967E+03  0.4719E+03
     -0.056  0.2283E+03  0.4768E+03
     -0.035  0.2593E+03  0.4822E+03
     -0.013  0.2758E+03  0.4881E+03
      0.008  0.2756E+03  0.4939E+03
      0.029  0.2680E+03  0.4996E+03
      0.050  0.2531E+03  0.5050E+03
      0.071  0.2330E+03  0.5099E+03
      0.092  0.2259E+03  0.5147E+03
      0.114  0.2509E+03  0.5200E+03
      0.135  0.2904E+03  0.5261E+03
      0.156  0.3162E+03  0.5328E+03
      0.177  0.3235E+03  0.5397E+03
      0.198  0.3260E+03  0.5466E+03
      0.220  0.3272E+03  0.5535E+03
      0.241  0.3178E+03  0.5602E+03
      0.262  0.3125E+03  0.5669E+03
      0.283  0.3077E+03  0.5734E+03
      0.304  0.3004E+03  0.5797E+03
      0.325  0.2856E+03  0.5858E+03
      0.347  0.2558E+03  0.5912E+03
      0.368  0.2290E+03  0.5961E+03
      0.389  0.2170E+03  0.6007E+03
      0.410  0.2111E+03  0.6051E+03
      0.431  0.2036E+03  0.6094E+03
      0.453  0.1986E+03  0.6136E+03
      0.474  0.1973E+03  0.6178E+03
      0.495  0.1909E+03  0.6219E+03
      0.516  0.1904E+03  0.6259E+03
      0.537  0.2032E+03  0.6302E+03
      0.558  0.2019E+03  0.6345E+03
      0.580  0.1925E+03  0.6386E+03
      0.601  0.2012E+03  0.6428E+03
      0.622  0.2189E+03  0.6475E+03
      0.643  0.2401E+03  0.6525E+03
      0.664  0.2604E+03  0.6580E+03
      0.685  0.2729E+03  0.6638E+03
      0.707  0.2843E+03  0.6698E+03
      0.728  0.2924E+03  0.6760E+03
      0.749  0.2906E+03  0.6822E+03
      0.770  0.2857E+03  0.6882E+03
      0.791  0.2779E+03  0.6941E+03
      0.813  0.2695E+03  0.6998E+03
      0.834  0.2627E+03  0.7054E+03
      0.855  0.2462E+03  0.7106E+03
      0.876  0.2222E+03  0.7153E+03
      0.897  0.2117E+03  0.7198E+03
      0.918  0.2202E+03  0.7245E+03
      0.940  0.2263E+03  0.7293E+03
      0.961  0.2378E+03  0.7343E+03
      0.982  0.2493E+03  0.7396E+03
      1.003  0.2433E+03  0.7447E+03
      1.024  0.2406E+03  0.7498E+03
      1.045  0.2384E+03  0.7549E+03
      1.067  0.2190E+03  0.7595E+03
      1.088  0.2051E+03  0.7639E+03
      1.109  0.1934E+03  0.7680E+03
      1.130  0.1666E+03  0.7715E+03
      1.151  0.1474E+03  0.7746E+03
      1.173  0.1529E+03  0.7778E+03
      1.194  0.1574E+03  0.7812E+03
      1.215  0.1534E+03  0.7844E+03
      1.236  0.1500E+03  0.7876E+03
      1.257  0.1543E+03  0.7909E+03
      1.278  0.1604E+03  0.7943E+03
      1.300  0.1713E+03  0.7979E+03
      1.321  0.1957E+03  0.8020E+03
      1.342  0.2181E+03  0.8067E+03
      1.363  0.2309E+03  0.8115E+03
      1.384  0.2367E+03  0.8166E+03
      1.406  0.2371E+03  0.8216E+03
      1.427  0.2405E+03  0.8267E+03
      1.448  0.2464E+03  0.8319E+03
      1.469  0.2433E+03  0.8370E+03
      1.490  0.2333E+03  0.8420E+03
      1.511  0.2280E+03  0.8468E+03
      1.533  0.2220E+03  0.8515E+03
      1.554  0.2064E+03  0.8559E+03
      1.575  0.1975E+03  0.8601E+03
      1.596  0.1974E+03  0.8642E+03
      1.617  0.1849E+03  0.8682E+03
      1.638  0.1657E+03  0.8717E+03
      1.660  0.1550E+03  0.8750E+03
      1.681  0.1502E+03  0.8781E+03
      1.702  0.1523E+03  0.8814E+03
      1.723  0.1608E+03  0.8848E+03
      1.744  0.1747E+03  0.8885E+03
      1.766  0.1768E+03  0.8922E+03
      1.787  0.1707E+03  0.8958E+03
      1.808  0.1678E+03  0.8994E+03
      1.829  0.1592E+03  0.9027E+03
      1.850  0.1593E+03  0.9061E+03
      1.871  0.1677E+03  0.9097E+03
      1.893  0.1697E+03  0.9133E+03
      1.914  0.1636E+03  0.9167E+03
      1.935  0.1612E+03  0.9201E+03
      1.956  0.1616E+03  0.9236E+03
      1.977  0.1584E+03  0.9269E+03
      1.998  0.1596E+03  0.9303E+03
      2.020  0.1625E+03  0.9337E+03
      2.041  0.1545E+03  0.9370E+03
      2.062  0.1370E+03  0.9399E+03
      2.083  0.1274E+03  0.9426E+03
      2.104  0.1349E+03  0.9455E+03
      2.126  0.1504E+03  0.9487E+03
      2.147  0.1566E+03  0.9520E+03
      2.168  0.1526E+03  0.9552E+03
      2.189  0.1584E+03  0.9586E+03
      2.210  0.1762E+03  0.9623E+03
      2.231  0.1812E+03  0.9661E+03
      2.253  0.1782E+03  0.9699E+03
      2.274  0.1803E+03  0.9737E+03
      2.295  0.1688E+03  0.9773E+03
      2.316  0.1556E+03  0.9806E+03
      2.337  0.1563E+03  0.9839E+03
      2.359  0.1516E+03  0.9871E+03
      2.380  0.1438E+03  0.9902E+03
      2.401  0.1512E+03  0.9934E+03
      2.422  0.1526E+03  0.9966E+03
      2.443  0.1261E+03  0.9993E+03
      2.464  0.8264E+02  0.1001E+04
      2.486  0.3666E+02  0.1002E+04
      2.507  0.8754E+01  0.1002E+04
      2.528  0.9649E+00  0.1002E+04
      2.549  0.4517E-01  0.1002E+04
      2.570  0.8568E-03  0.1002E+04
      2.591  0.6398E-05  0.1002E+04
      2.613  0.1846E-07  0.1002E+04
      2.634  0.2031E-10  0.1002E+04
      2.655  0.1048E-13  0.1002E+04
      2.676  0.0000E+00  0.1002E+04
      2.697  0.0000E+00  0.1002E+04
      2.719  0.0000E+00  0.1002E+04
      2.740  0.0000E+00  0.1002E+04
      2.761  0.0000E+00  0.1002E+04
