       N       E                     dE             d eps       ncg     rms          rms(c)
DAV:   1    -0.322407032847E+03   -0.32241E+03   -0.11629E+05  4008   0.642E+02
DAV:   2    -0.875192853384E+03   -0.55279E+03   -0.50580E+03  4604   0.632E+01
DAV:   3    -0.916343152324E+03   -0.41150E+02   -0.37681E+02  5224   0.135E+01
DAV:   4    -0.917813206777E+03   -0.14701E+01   -0.14473E+01  4736   0.280E+00
DAV:   5    -0.917848201029E+03   -0.34994E-01   -0.34931E-01  4920   0.457E-01    0.905E+00
DAV:   6    -0.917467213491E+03    0.38099E+00   -0.10061E+01  4800   0.472E+00    0.828E+00
DAV:   7    -0.907402505236E+03    0.10065E+02   -0.11515E+01  5032   0.466E+00    0.464E+00
DAV:   8    -0.905294041496E+03    0.21085E+01   -0.63699E+00  4696   0.239E+00    0.267E+00
DAV:   9    -0.904654242866E+03    0.63980E+00   -0.31796E+00  4416   0.139E+00    0.123E+00
DAV:  10    -0.904803407332E+03   -0.14916E+00   -0.71509E-01  4992   0.852E-01    0.125E+00
DAV:  11    -0.904615688094E+03    0.18772E+00   -0.33610E-01  4736   0.596E-01    0.559E-01
DAV:  12    -0.904611832865E+03    0.38552E-02   -0.80423E-02  4544   0.253E-01    0.336E-01
DAV:  13    -0.904613119687E+03   -0.12868E-02   -0.30223E-02  4712   0.188E-01    0.268E-01
DAV:  14    -0.904606420656E+03    0.66990E-02   -0.11662E-02  4616   0.126E-01    0.143E-01
DAV:  15    -0.904605174114E+03    0.12465E-02   -0.36827E-03  4408   0.584E-02    0.617E-02
DAV:  16    -0.904605487229E+03   -0.31311E-03   -0.11208E-03  4888   0.373E-02    0.551E-02
DAV:  17    -0.904605057424E+03    0.42981E-03   -0.69566E-04  4800   0.289E-02    0.215E-02
DAV:  18    -0.904605043059E+03    0.14364E-04   -0.18413E-04  4440   0.121E-02    0.124E-02
DAV:  19    -0.904605030658E+03    0.12402E-04   -0.51339E-05  4392   0.662E-03    0.652E-03
DAV:  20    -0.904605028082E+03    0.25760E-05   -0.10113E-05  2440   0.327E-03
   1 F= -.90460503E+03 E0= -.90454633E+03  d E =-.117406E+00
