Li                                      
           1
    22.732500   -0.000000    0.000000
    -0.000000   22.732500    0.000000
     0.000000    0.000000   22.732500
   Li
   500
Direct configuration=     1
   0.01190209  0.00318199  0.01957404
   0.00888512  0.11076255  0.09563465
   0.00349589  0.20904077  0.19111777
   0.98611119  0.29964729  0.29714671
   0.99239996  0.39201382  0.38971502
   0.00977543  0.49606959  0.48956030
   0.98515866  0.59407536  0.57484383
   0.99414517  0.68117498  0.69447276
   0.00475680  0.78742171  0.80160378
   0.00845870  0.90361983  0.93624706
   0.12987142  0.01674081  0.12202357
   0.09426372  0.10385908  0.18622896
   0.07448626  0.21433284  0.29249537
   0.08999508  0.30736557  0.39305872
   0.09786568  0.37062476  0.48503016
   0.11533614  0.49346102  0.59022901
   0.10236444  0.59695080  0.68047258
   0.11480943  0.69674851  0.79009368
   0.12806695  0.79189389  0.91857233
   0.10062918  0.92442432  0.00461441
   0.22059371  0.99978301  0.20479570
   0.19122278  0.11435269  0.29217123
   0.19208390  0.21506761  0.38852561
   0.20661756  0.28411958  0.48389007
   0.20934146  0.38619089  0.56713966
   0.20640185  0.51030255  0.67918195
   0.18825802  0.60310522  0.78330040
   0.21460890  0.71568973  0.88048897
   0.20167605  0.80199520  0.00217763
   0.19996423  0.91309094  0.08313210
   0.30142289  0.00142624  0.31032853
   0.30375840  0.11272044  0.41245436
   0.30398785  0.21224822  0.49026917
   0.30002263  0.29051459  0.58008519
   0.28705599  0.39660110  0.67027120
   0.29319166  0.47964972  0.79722056
   0.29973932  0.59871020  0.88538966
   0.29179856  0.70850246  0.99307231
   0.27409702  0.80088734  0.09066204
   0.30612519  0.91701898  0.17895171
   0.41476980  0.00286221  0.41327011
   0.40737334  0.12139160  0.51376884
   0.40844404  0.21975728  0.61286214
   0.40119562  0.31390777  0.69005995
   0.41638294  0.40496074  0.78048580
   0.40679341  0.50246308  0.88924044
   0.37437946  0.57416987  0.99925541
   0.39954942  0.70378614  0.07508360
   0.37769274  0.80875148  0.20393266
   0.39414206  0.92163073  0.30004380
   0.50360005  0.98258279  0.52824066
   0.50645606  0.08656934  0.59151791
   0.50441403  0.19246451  0.70927432
   0.51673463  0.30168754  0.79861206
   0.51101652  0.41062634  0.89152377
   0.49772077  0.48555011  0.99885446
   0.50367500  0.59272436  0.08997181
   0.48719447  0.71968658  0.21324214
   0.49318281  0.82656968  0.28057245
   0.48285460  0.90360610  0.39229942
   0.60772052  0.99162127  0.62425306
   0.58348592  0.09988476  0.70165977
   0.59451241  0.18048147  0.80584036
   0.57680989  0.29718332  0.91051646
   0.58116715  0.39855080  0.00897592
   0.59334436  0.49871311  0.10697274
   0.59031429  0.61654482  0.20454454
   0.59897758  0.72332189  0.29684509
   0.62510584  0.81439116  0.41049817
   0.57196405  0.89721707  0.50537222
   0.70340892  0.00390478  0.71657910
   0.68897099  0.08659237  0.80230585
   0.68490285  0.18077165  0.91697926
   0.68943090  0.27176884  0.00181629
   0.67790366  0.41570293  0.10435697
   0.69992611  0.54667366  0.19807909
   0.68752651  0.61678686  0.33288254
   0.70378547  0.70495087  0.39589198
   0.68895331  0.79836208  0.51679835
   0.69696861  0.89510236  0.60492042
   0.80255682  0.99168917  0.81099881
   0.80708966  0.10753561  0.92783219
   0.79404162  0.19916422  0.00663339
   0.78972756  0.28481382  0.11114261
   0.78901587  0.41196670  0.20119469
   0.80153109  0.51057148  0.29870266
   0.80983150  0.59984654  0.38541973
   0.79929786  0.67289608  0.49662661
   0.78416697  0.78304363  0.60212951
   0.81211479  0.89695125  0.71077434
   0.90045207  0.99499941  0.91833564
   0.89777440  0.10666911  0.01446783
   0.91790908  0.19142993  0.11399301
   0.91198358  0.28412724  0.20537038
   0.89463195  0.39146000  0.29237462
   0.91760019  0.48331517  0.38347845
   0.90463705  0.60030755  0.49893431
   0.88510872  0.69698437  0.59490861
   0.90129044  0.79530496  0.69408588
   0.89282567  0.88194789  0.80489506
   0.09709057  0.10844475  0.99949004
   0.11170822  0.20841574  0.09190642
   0.10595460  0.32376797  0.18214334
   0.08980354  0.38589637  0.29919548
   0.10499819  0.46894016  0.38340544
   0.10454684  0.57850334  0.48687109
   0.09641643  0.69153470  0.58904638
   0.10414318  0.78958594  0.68356832
   0.09132379  0.90920291  0.82650407
   0.09212468  0.00823960  0.90082055
   0.20637885  0.10264268  0.12352038
   0.20451553  0.20976936  0.21391259
   0.21572366  0.29450361  0.31005008
   0.20390865  0.38385167  0.41274018
   0.22359282  0.48159997  0.50411439
   0.19464109  0.59756506  0.59547699
   0.20138145  0.70505563  0.68947034
   0.19237121  0.80995418  0.78542432
   0.20423644  0.91128527  0.90635446
   0.19225564  0.00585391  0.99254453
   0.31388108  0.09755110  0.20853057
   0.31589060  0.17162090  0.29531703
   0.31518705  0.27473359  0.39746600
   0.30048736  0.39171384  0.49063070
   0.29774264  0.51488069  0.59935089
   0.30100448  0.58887826  0.71911556
   0.31777283  0.70206842  0.80058965
   0.29244291  0.80186031  0.88661948
   0.28243045  0.90212820  0.99968679
   0.28481485  0.01852862  0.09252790
   0.41155582  0.09342778  0.31108985
   0.42711185  0.19222888  0.40265878
   0.41002462  0.29187585  0.48992155
   0.38357385  0.40107247  0.58654399
   0.40381222  0.49245432  0.68315809
   0.40215875  0.58739271  0.78818525
   0.37815818  0.69384730  0.89913140
   0.38793775  0.80490383  0.99113264
   0.39575013  0.90418594  0.09976978
   0.38714250  0.00511742  0.18398651
   0.50540953  0.07510169  0.41650918
   0.52368492  0.20571294  0.49854257
   0.49144094  0.30037743  0.61278263
   0.51072217  0.40628730  0.70054512
   0.53180805  0.51339857  0.79847187
   0.48980116  0.57833264  0.91817890
   0.49110669  0.71368065  0.98474463
   0.49064884  0.78579568  0.11175399
   0.48764906  0.89594148  0.19944758
   0.50942956  0.00091846  0.29407355
   0.60157561  0.08252002  0.51535818
   0.60351615  0.17784258  0.62145333
   0.58679699  0.29497113  0.71493789
   0.59054671  0.39629019  0.79227713
   0.60122792  0.50726754  0.90324926
   0.61964053  0.59966938  0.99622335
   0.59093285  0.70612871  0.11089692
   0.60896468  0.80031110  0.19144947
   0.60379284  0.91380204  0.28750208
   0.59119922  0.98911609  0.42057311
   0.69524490  0.08251844  0.60680032
   0.68874868  0.17500735  0.69841569
   0.67565275  0.30543228  0.80544986
   0.69233700  0.40323664  0.89654492
   0.68991528  0.50072621  0.00254386
   0.70277849  0.60599767  0.07674533
   0.70709749  0.70276096  0.18715407
   0.72534894  0.82498456  0.27449177
   0.69803338  0.90702921  0.39245132
   0.70841051  0.00015582  0.48574606
   0.78506326  0.09035333  0.72567291
   0.79180104  0.19758378  0.80703667
   0.78132680  0.31110461  0.88427894
   0.78269286  0.40253186  0.01259720
   0.78648680  0.50633578  0.08147902
   0.80057163  0.61727430  0.20496291
   0.80172424  0.70985177  0.29239945
   0.80415423  0.79759519  0.41786461
   0.79412991  0.89621596  0.49205874
   0.80636557  0.99676863  0.59764003
   0.89342875  0.11820796  0.80541063
   0.89489982  0.21678030  0.91552766
   0.89781991  0.30108444  0.02862995
   0.87464288  0.42006461  0.10194898
   0.87345949  0.52039914  0.20132631
   0.89994177  0.60822100  0.27870094
   0.88907659  0.70016376  0.40026959
   0.89319246  0.78725095  0.50479614
   0.91588948  0.89765652  0.61219025
   0.87927100  0.02010796  0.69622086
   0.99332244  0.11065012  0.91557889
   0.99858571  0.20385645  0.01786665
   0.01485191  0.30844951  0.10035644
   0.98952879  0.40469945  0.19774134
   0.00343978  0.49813227  0.28688431
   0.00905935  0.61166844  0.38552918
   0.99556130  0.69395362  0.50494627
   0.99537040  0.79365076  0.61296870
   0.98086665  0.89742359  0.70240087
   0.96992480  0.99287356  0.82198943
   0.22694432  0.20792755  0.00322149
   0.21416063  0.29752216  0.09973910
   0.19968956  0.40989105  0.20463321
   0.19438528  0.49924490  0.29658723
   0.20053233  0.60303825  0.39630200
   0.19452158  0.68159125  0.48660895
   0.21481236  0.79428507  0.58953473
   0.21600401  0.88271127  0.71709836
   0.19058792  0.99150328  0.80970116
   0.19260712  0.12132548  0.87738434
   0.31353326  0.20429675  0.10833606
   0.29163939  0.30530698  0.22344937
   0.32416064  0.40271908  0.29934657
   0.31455718  0.50900446  0.39445620
   0.28552508  0.62290912  0.49059205
   0.29317479  0.68991152  0.59497384
   0.31689803  0.78285537  0.70134245
   0.30697385  0.91191766  0.79673577
   0.29476690  0.98649502  0.90268212
   0.28825351  0.09438230  0.99297709
   0.40641853  0.18916806  0.20355088
   0.41517868  0.28092302  0.29549720
   0.40793193  0.38622138  0.41075980
   0.38260338  0.51071136  0.49687488
   0.42056527  0.60274626  0.57833533
   0.41867265  0.67689722  0.69412459
   0.38858439  0.80061997  0.81255320
   0.41015200  0.89969103  0.89352448
   0.39962362  0.99957737  0.98278408
   0.38156888  0.10603399  0.09310333
   0.50865266  0.16829276  0.31194599
   0.51179515  0.30156177  0.40210637
   0.48404479  0.40649771  0.49112121
   0.51610296  0.49282267  0.58576652
   0.49118740  0.59884034  0.69204428
   0.47420176  0.67563060  0.82550902
   0.47371463  0.77590255  0.89734995
   0.48796003  0.88808005  0.99313552
   0.49334766  0.01141737  0.07898751
   0.49307287  0.08020151  0.20416675
   0.59971465  0.17450220  0.40430804
   0.61240761  0.28760501  0.50658383
   0.61316319  0.38134430  0.60655302
   0.60952395  0.47700153  0.69705027
   0.59966715  0.61665395  0.81243030
   0.60146467  0.70300239  0.92031395
   0.59507337  0.80586012  0.01416674
   0.58531134  0.90286967  0.09785048
   0.61017261  0.97476263  0.18608057
   0.60694652  0.06700212  0.30176290
   0.71213393  0.19129958  0.52074523
   0.69314945  0.27846510  0.61217750
   0.70100840  0.39156512  0.71128727
   0.68855733  0.52046592  0.78012760
   0.72118625  0.61101279  0.89296275
   0.69822415  0.72650376  0.99538551
   0.68979149  0.82921384  0.10794499
   0.72304671  0.90981768  0.20781800
   0.71072356  0.99705120  0.32137676
   0.71244030  0.10090632  0.39033908
   0.79887697  0.20860081  0.59934279
   0.80322674  0.29637986  0.71745502
   0.78493588  0.39689802  0.80663031
   0.79955145  0.50376548  0.89566464
   0.81024313  0.61787186  0.00349253
   0.80396741  0.71057974  0.09388546
   0.80823619  0.81737089  0.18568984
   0.80471027  0.88986227  0.30510710
   0.80383699  0.98411938  0.40662818
   0.79187539  0.10620889  0.48976794
   0.90091557  0.20862008  0.69387641
   0.89647688  0.30432019  0.80708727
   0.89200587  0.40118715  0.91058530
   0.91079562  0.49288178  0.99483299
   0.90430211  0.58537250  0.10832733
   0.89716117  0.69577573  0.18431646
   0.87847924  0.79783803  0.30835793
   0.90681886  0.89261365  0.39898291
   0.89532915  0.98832876  0.49966464
   0.89452976  0.10719253  0.59922980
   0.00705281  0.21702256  0.80943363
   0.00504540  0.32506357  0.91256883
   0.00795080  0.42728256  0.01767758
   0.97769061  0.51540093  0.12376893
   0.99061364  0.58997894  0.20765318
   0.98764395  0.70628341  0.29738814
   0.97780662  0.79874686  0.38616715
   0.01325476  0.90041975  0.49607094
   0.99526263  0.99918146  0.59875585
   0.99262988  0.10592813  0.71092453
   0.11954188  0.22655046  0.91413852
   0.10474048  0.31264314  0.99276853
   0.10049107  0.41883829  0.10455760
   0.10088055  0.50597527  0.21786584
   0.10238350  0.60631105  0.30934915
   0.09513707  0.71969560  0.40456942
   0.09279860  0.78570543  0.50457826
   0.10447870  0.91316940  0.60010607
   0.09986502  0.96976226  0.71592848
   0.09105785  0.10271553  0.80007241
   0.30815273  0.31876238  0.01439820
   0.29895339  0.40999617  0.11762343
   0.29723780  0.53005546  0.22007972
   0.30551086  0.60218162  0.29244419
   0.30219625  0.68984256  0.38815889
   0.30891803  0.80791245  0.48681153
   0.29098481  0.88218671  0.58727971
   0.29296800  0.01114684  0.68663985
   0.29570591  0.08755480  0.78114365
   0.29277705  0.19780199  0.89558203
   0.39769451  0.29486071  0.11543747
   0.40544186  0.40856441  0.21515230
   0.38737782  0.51263865  0.30638279
   0.40438231  0.61558942  0.40741758
   0.40573080  0.71255415  0.48492917
   0.40492139  0.76347876  0.59482741
   0.39823970  0.88870186  0.70157365
   0.38471206  0.01053044  0.79435416
   0.39965075  0.11741668  0.89972825
   0.39873873  0.20261638  0.01563217
   0.51097885  0.28995476  0.20652630
   0.51899289  0.39052996  0.31153542
   0.48177858  0.50066519  0.39882037
   0.50133301  0.60232817  0.51015104
   0.51646281  0.70240090  0.57925602
   0.48427274  0.78083960  0.71866332
   0.49584643  0.88074701  0.79006769
   0.49046326  0.99648034  0.88771625
   0.49115500  0.07932548  0.99047215
   0.50646814  0.18551227  0.10499914
   0.59926239  0.28307493  0.31352834
   0.58843873  0.39751098  0.40427801
   0.58958177  0.48841198  0.50665548
   0.59293831  0.58163885  0.61258603
   0.59608627  0.71838045  0.70296701
   0.60700672  0.78141369  0.81227964
   0.60727275  0.90217699  0.89670820
   0.58736318  0.99794270  0.97096666
   0.59318971  0.06985547  0.08468315
   0.58962002  0.18805162  0.21896969
   0.67728875  0.31313363  0.39396307
   0.69944802  0.39643271  0.49408701
   0.70846387  0.52567336  0.58598610
   0.69856467  0.62028761  0.71128898
   0.70868303  0.71401343  0.80554890
   0.69899239  0.80728628  0.91160299
   0.69372935  0.89565254  0.00336555
   0.69299497  0.98330720  0.07994579
   0.68765090  0.08229914  0.22251864
   0.68457987  0.20865700  0.28370996
   0.79712448  0.29628909  0.48953892
   0.78993005  0.38719822  0.59848908
   0.78600524  0.48928427  0.70836222
   0.81460126  0.60316355  0.80579745
   0.80007880  0.71820945  0.89709438
   0.79506636  0.79021441  0.01302808
   0.80587644  0.92660637  0.10921790
   0.82133571  0.02289874  0.19081877
   0.79772124  0.11780647  0.31194684
   0.78906695  0.21347827  0.38828443
   0.88656506  0.29356059  0.59713423
   0.89178266  0.39319648  0.69590624
   0.90203347  0.48748925  0.80161323
   0.89708097  0.60923792  0.89651566
   0.91965824  0.70750036  0.99433669
   0.90142792  0.79324866  0.08396795
   0.90879868  0.90757557  0.20962589
   0.89847236  0.00391035  0.32386275
   0.89467741  0.11444737  0.40295935
   0.88003510  0.22225308  0.48824337
   0.00544552  0.30041516  0.68727905
   0.01233470  0.39368387  0.79387338
   0.01913446  0.49862050  0.90900344
   0.98866628  0.57191501  0.99303378
   0.00855606  0.70173058  0.10726404
   0.00847911  0.81935874  0.20339430
   0.99413425  0.89658561  0.30801383
   0.00833604  0.00995463  0.39145797
   0.98242774  0.10283189  0.50406761
   0.98479416  0.19807365  0.60406248
   0.10259143  0.30362868  0.79456216
   0.12382064  0.38730135  0.91424916
   0.09004432  0.49087182  0.00801006
   0.10643343  0.60690234  0.09961155
   0.11417750  0.71042276  0.20783459
   0.11102092  0.80759581  0.30450241
   0.09899904  0.90364561  0.38452249
   0.10860984  0.00118468  0.48822071
   0.10000110  0.11370599  0.59763544
   0.09212505  0.21383522  0.69321917
   0.21335569  0.31418049  0.90386378
   0.20364817  0.38587368  0.01295547
   0.19749698  0.51661741  0.11038287
   0.20106549  0.59761066  0.20948867
   0.23526457  0.69865875  0.29811504
   0.21167311  0.80190359  0.38272482
   0.20484765  0.90303161  0.47678925
   0.18446971  0.99943488  0.60527334
   0.20260003  0.09726902  0.71037539
   0.20074265  0.19216161  0.79522363
   0.42195188  0.41139578  0.01640595
   0.39255063  0.49253592  0.10764129
   0.41438424  0.59334223  0.16555768
   0.40718067  0.69684216  0.31011146
   0.40205238  0.82129006  0.40337882
   0.41127306  0.89460521  0.50300211
   0.39626986  0.00904541  0.60244154
   0.39297877  0.10087623  0.70130258
   0.37668659  0.22842176  0.78891305
   0.41396854  0.31897378  0.91198803
   0.49123589  0.41175318  0.11651168
   0.49528529  0.47985043  0.20655035
   0.48922056  0.58348707  0.30114418
   0.51444699  0.71322158  0.41449296
   0.51769206  0.81101657  0.49506510
   0.47623714  0.90540770  0.62803856
   0.48538216  0.99632848  0.70045953
   0.48908189  0.10368559  0.80258263
   0.49325979  0.20819941  0.88128468
   0.51156479  0.30109924  0.00872178
   0.61172553  0.39874459  0.20628498
   0.61164858  0.49658813  0.30566709
   0.60327059  0.58248673  0.41143025
   0.59932326  0.67966216  0.49809984
   0.58209048  0.80510412  0.62195188
   0.60012304  0.87673246  0.70790406
   0.60895952  0.00122853  0.79027742
   0.58582159  0.11255714  0.89847757
   0.57965667  0.19157433  0.00576134
   0.60130446  0.29640223  0.09337986
   0.70545729  0.41318682  0.28198216
   0.70599138  0.48532223  0.40219967
   0.71154760  0.58820371  0.48448930
   0.67643783  0.67314682  0.59221990
   0.70387939  0.78947323  0.68222525
   0.70065799  0.91253882  0.80376852
   0.69645406  0.00942051  0.90891971
   0.68650607  0.10386005  0.00914759
   0.68035390  0.17005477  0.13179311
   0.67995804  0.29330391  0.19756359
   0.79033798  0.40379517  0.38669048
   0.81709902  0.49934789  0.49332900
   0.80628996  0.58662559  0.60183185
   0.79879543  0.68476601  0.69502273
   0.80815759  0.79717959  0.80129634
   0.79073041  0.88962631  0.94272884
   0.80245519  0.02940597  0.01010274
   0.80686868  0.10602104  0.09999406
   0.78650195  0.18980622  0.19665485
   0.80347158  0.32133719  0.28652720
   0.87837143  0.39059603  0.48276273
   0.88812567  0.49863019  0.58876461
   0.88691200  0.59148577  0.70775083
   0.91134985  0.71398432  0.80103684
   0.91221535  0.81595763  0.90780510
   0.88246992  0.90033048  0.02067866
   0.90291021  0.02125012  0.10483804
   0.92525481  0.09294586  0.20134137
   0.91678292  0.19685833  0.29736433
   0.88814733  0.30212268  0.38596144
   0.00117121  0.40434236  0.59720025
   0.01592991  0.50495185  0.68588762
   0.00356880  0.59271819  0.80516469
   0.02172874  0.69629382  0.90459916
   0.00081627  0.80295005  0.00936476
   0.03285998  0.90749658  0.11997398
   0.99839403  0.99320043  0.20600509
   0.01388513  0.10881597  0.28936183
   0.00439699  0.21371002  0.39017059
   0.98568461  0.29295323  0.48916966
   0.11939939  0.37910582  0.68130119
   0.09702304  0.49866943  0.77854165
   0.11175325  0.61171888  0.89378369
   0.11024702  0.67533175  0.99760279
   0.10029922  0.80665198  0.09695893
   0.12707628  0.91583203  0.22597130
   0.12124484  0.00887759  0.27701795
   0.11423039  0.10120940  0.39315591
   0.09377132  0.18296359  0.49121493
   0.08950156  0.29453349  0.58297017
   0.20055144  0.38056525  0.76781778
   0.19527645  0.48203736  0.88805208
   0.20434253  0.58949345  0.98256563
   0.20176263  0.70882445  0.10135051
   0.20656870  0.79011812  0.21991874
   0.22532641  0.91654433  0.30454731
   0.21130450  0.02052839  0.39305353
   0.21656893  0.10258308  0.50138133
   0.19593020  0.19396233  0.58643873
   0.20500008  0.27441812  0.67211310
   0.29757354  0.38520121  0.89852937
   0.29687931  0.48504567  0.98086743
   0.27801827  0.62115319  0.08379528
   0.31253572  0.69688456  0.19217681
   0.32189188  0.80148283  0.28602390
   0.30335142  0.89321852  0.40395162
   0.31691054  0.99887909  0.49537362
   0.31871722  0.09070909  0.60610627
   0.29414732  0.21112992  0.68951835
   0.29300282  0.31486719  0.78341071
