 500 500   0   0
  0.1910214E+02  0.2121700E-08  0.2121700E-08  0.2121700E-08  0.5000000E-15
  1.000000000000000E-004
  CAR 
 Li                                      
      3.76675492     -3.36216630  301      0.55319969      1.00000000
     -3.362  0.0000E+00  0.0000E+00
     -3.338  0.0000E+00  0.0000E+00
     -3.315  0.0000E+00  0.0000E+00
     -3.291  0.0000E+00  0.0000E+00
     -3.267  0.0000E+00  0.0000E+00
     -3.243  0.0000E+00  0.0000E+00
     -3.220  0.0000E+00  0.0000E+00
     -3.196  0.4331E-11  0.1029E-12
     -3.172  0.1122E-07  0.2668E-09
     -3.148  0.8524E-05  0.2028E-06
     -3.125  0.1915E-02  0.4571E-04
     -3.101  0.1291E+00  0.3113E-02
     -3.077  0.2661E+01  0.6634E-01
     -3.053  0.1716E+02  0.4740E+00
     -3.029  0.3535E+02  0.1314E+01
     -3.006  0.2352E+02  0.1873E+01
     -2.982  0.5442E+01  0.2002E+01
     -2.958  0.7862E+01  0.2189E+01
     -2.934  0.4563E+02  0.3273E+01
     -2.911  0.9842E+02  0.5612E+01
     -2.887  0.7682E+02  0.7437E+01
     -2.863  0.2181E+02  0.7956E+01
     -2.839  0.7841E+01  0.8142E+01
     -2.816  0.3841E+02  0.9055E+01
     -2.792  0.9279E+02  0.1126E+02
     -2.768  0.8379E+02  0.1325E+02
     -2.744  0.2845E+02  0.1393E+02
     -2.721  0.1042E+02  0.1417E+02
     -2.697  0.4499E+02  0.1524E+02
     -2.673  0.1127E+03  0.1792E+02
     -2.649  0.1160E+03  0.2068E+02
     -2.626  0.4831E+02  0.2183E+02
     -2.602  0.1648E+02  0.2222E+02
     -2.578  0.5684E+02  0.2357E+02
     -2.554  0.1456E+03  0.2703E+02
     -2.530  0.1689E+03  0.3104E+02
     -2.507  0.9528E+02  0.3331E+02
     -2.483  0.2869E+02  0.3399E+02
     -2.459  0.2586E+02  0.3460E+02
     -2.435  0.7262E+02  0.3633E+02
     -2.412  0.9261E+02  0.3853E+02
     -2.388  0.5029E+02  0.3973E+02
     -2.364  0.1734E+02  0.4014E+02
     -2.340  0.4296E+02  0.4116E+02
     -2.317  0.1206E+03  0.4402E+02
     -2.293  0.1689E+03  0.4804E+02
     -2.269  0.1216E+03  0.5093E+02
     -2.245  0.4949E+02  0.5210E+02
     -2.222  0.6316E+02  0.5360E+02
     -2.198  0.1584E+03  0.5737E+02
     -2.174  0.2270E+03  0.6276E+02
     -2.150  0.1912E+03  0.6731E+02
     -2.126  0.9103E+02  0.6947E+02
     -2.103  0.2805E+02  0.7014E+02
     -2.079  0.4281E+02  0.7115E+02
     -2.055  0.8979E+02  0.7329E+02
     -2.031  0.8103E+02  0.7521E+02
     -2.008  0.3242E+02  0.7598E+02
     -1.984  0.3426E+02  0.7680E+02
     -1.960  0.1103E+03  0.7942E+02
     -1.936  0.1818E+03  0.8374E+02
     -1.913  0.1641E+03  0.8764E+02
     -1.889  0.8333E+02  0.8962E+02
     -1.865  0.4618E+02  0.9071E+02
     -1.841  0.1137E+03  0.9341E+02
     -1.818  0.2098E+03  0.9840E+02
     -1.794  0.2205E+03  0.1036E+03
     -1.770  0.1361E+03  0.1069E+03
     -1.746  0.4850E+02  0.1080E+03
     -1.723  0.4940E+02  0.1092E+03
     -1.699  0.1238E+03  0.1121E+03
     -1.675  0.1665E+03  0.1161E+03
     -1.651  0.1192E+03  0.1189E+03
     -1.627  0.6410E+02  0.1205E+03
     -1.604  0.1055E+03  0.1230E+03
     -1.580  0.1934E+03  0.1276E+03
     -1.556  0.2155E+03  0.1327E+03
     -1.532  0.1546E+03  0.1364E+03
     -1.509  0.6898E+02  0.1380E+03
     -1.485  0.7123E+02  0.1397E+03
     -1.461  0.1708E+03  0.1437E+03
     -1.437  0.2380E+03  0.1494E+03
     -1.414  0.1838E+03  0.1538E+03
     -1.390  0.8165E+02  0.1557E+03
     -1.366  0.5195E+02  0.1569E+03
     -1.342  0.1107E+03  0.1596E+03
     -1.319  0.1547E+03  0.1633E+03
     -1.295  0.1266E+03  0.1663E+03
     -1.271  0.7235E+02  0.1680E+03
     -1.247  0.7036E+02  0.1697E+03
     -1.223  0.1161E+03  0.1724E+03
     -1.200  0.1388E+03  0.1757E+03
     -1.176  0.1166E+03  0.1785E+03
     -1.152  0.7288E+02  0.1802E+03
     -1.128  0.1029E+03  0.1827E+03
     -1.105  0.2171E+03  0.1878E+03
     -1.081  0.3061E+03  0.1951E+03
     -1.057  0.3024E+03  0.2023E+03
     -1.033  0.2177E+03  0.2075E+03
     -1.010  0.1251E+03  0.2104E+03
     -0.986  0.1460E+03  0.2139E+03
     -0.962  0.2173E+03  0.2191E+03
     -0.938  0.2030E+03  0.2239E+03
     -0.915  0.1282E+03  0.2269E+03
     -0.891  0.7111E+02  0.2286E+03
     -0.867  0.7794E+02  0.2305E+03
     -0.843  0.1390E+03  0.2338E+03
     -0.820  0.1871E+03  0.2382E+03
     -0.796  0.1520E+03  0.2418E+03
     -0.772  0.1414E+03  0.2452E+03
     -0.748  0.2015E+03  0.2500E+03
     -0.724  0.2391E+03  0.2557E+03
     -0.701  0.2186E+03  0.2609E+03
     -0.677  0.1479E+03  0.2644E+03
     -0.653  0.6519E+02  0.2659E+03
     -0.629  0.4441E+02  0.2670E+03
     -0.606  0.7171E+02  0.2687E+03
     -0.582  0.8013E+02  0.2706E+03
     -0.558  0.7177E+02  0.2723E+03
     -0.534  0.1141E+03  0.2750E+03
     -0.511  0.2094E+03  0.2800E+03
     -0.487  0.2708E+03  0.2864E+03
     -0.463  0.2841E+03  0.2932E+03
     -0.439  0.2759E+03  0.2997E+03
     -0.416  0.2399E+03  0.3054E+03
     -0.392  0.1929E+03  0.3100E+03
     -0.368  0.2055E+03  0.3149E+03
     -0.344  0.2605E+03  0.3211E+03
     -0.320  0.2753E+03  0.3276E+03
     -0.297  0.2188E+03  0.3328E+03
     -0.273  0.1417E+03  0.3362E+03
     -0.249  0.8965E+02  0.3383E+03
     -0.225  0.1089E+03  0.3409E+03
     -0.202  0.1517E+03  0.3445E+03
     -0.178  0.1754E+03  0.3487E+03
     -0.154  0.1870E+03  0.3531E+03
     -0.130  0.1680E+03  0.3571E+03
     -0.107  0.1627E+03  0.3610E+03
     -0.083  0.1697E+03  0.3650E+03
     -0.059  0.1749E+03  0.3692E+03
     -0.035  0.2066E+03  0.3741E+03
     -0.012  0.2355E+03  0.3797E+03
      0.012  0.2529E+03  0.3857E+03
      0.036  0.2593E+03  0.3918E+03
      0.060  0.2312E+03  0.3973E+03
      0.083  0.2031E+03  0.4022E+03
      0.107  0.2088E+03  0.4071E+03
      0.131  0.1945E+03  0.4117E+03
      0.155  0.1410E+03  0.4151E+03
      0.179  0.1152E+03  0.4178E+03
      0.202  0.1654E+03  0.4218E+03
      0.226  0.2177E+03  0.4269E+03
      0.250  0.2386E+03  0.4326E+03
      0.274  0.2394E+03  0.4383E+03
      0.297  0.2303E+03  0.4438E+03
      0.321  0.2269E+03  0.4492E+03
      0.345  0.2229E+03  0.4545E+03
      0.369  0.1982E+03  0.4592E+03
      0.392  0.1815E+03  0.4635E+03
      0.416  0.1865E+03  0.4679E+03
      0.440  0.2125E+03  0.4730E+03
      0.464  0.2351E+03  0.4785E+03
      0.487  0.2358E+03  0.4842E+03
      0.511  0.2439E+03  0.4899E+03
      0.535  0.2446E+03  0.4958E+03
      0.559  0.2316E+03  0.5013E+03
      0.583  0.2324E+03  0.5068E+03
      0.606  0.2451E+03  0.5126E+03
      0.630  0.2372E+03  0.5182E+03
      0.654  0.2245E+03  0.5236E+03
      0.678  0.2413E+03  0.5293E+03
      0.701  0.2702E+03  0.5357E+03
      0.725  0.2880E+03  0.5426E+03
      0.749  0.2976E+03  0.5497E+03
      0.773  0.2963E+03  0.5567E+03
      0.796  0.2936E+03  0.5637E+03
      0.820  0.2892E+03  0.5705E+03
      0.844  0.2783E+03  0.5772E+03
      0.868  0.2683E+03  0.5835E+03
      0.891  0.2560E+03  0.5896E+03
      0.915  0.2437E+03  0.5954E+03
      0.939  0.2270E+03  0.6008E+03
      0.963  0.2107E+03  0.6058E+03
      0.986  0.1933E+03  0.6104E+03
      1.010  0.1588E+03  0.6142E+03
      1.034  0.1278E+03  0.6172E+03
      1.058  0.1351E+03  0.6204E+03
      1.082  0.1588E+03  0.6242E+03
      1.105  0.1681E+03  0.6282E+03
      1.129  0.1665E+03  0.6321E+03
      1.153  0.1797E+03  0.6364E+03
      1.177  0.2014E+03  0.6412E+03
      1.200  0.2158E+03  0.6463E+03
      1.224  0.2212E+03  0.6516E+03
      1.248  0.2388E+03  0.6573E+03
      1.272  0.2454E+03  0.6631E+03
      1.295  0.2332E+03  0.6686E+03
      1.319  0.2345E+03  0.6742E+03
      1.343  0.2500E+03  0.6801E+03
      1.367  0.2614E+03  0.6864E+03
      1.390  0.2597E+03  0.6925E+03
      1.414  0.2461E+03  0.6984E+03
      1.438  0.2194E+03  0.7036E+03
      1.462  0.2002E+03  0.7083E+03
      1.486  0.1961E+03  0.7130E+03
      1.509  0.1973E+03  0.7177E+03
      1.533  0.1914E+03  0.7222E+03
      1.557  0.1966E+03  0.7269E+03
      1.581  0.2039E+03  0.7318E+03
      1.604  0.2002E+03  0.7365E+03
      1.628  0.2031E+03  0.7413E+03
      1.652  0.2078E+03  0.7463E+03
      1.676  0.2026E+03  0.7511E+03
      1.699  0.1905E+03  0.7556E+03
      1.723  0.1773E+03  0.7598E+03
      1.747  0.1781E+03  0.7641E+03
      1.771  0.1810E+03  0.7684E+03
      1.794  0.1618E+03  0.7722E+03
      1.818  0.1468E+03  0.7757E+03
      1.842  0.1491E+03  0.7792E+03
      1.866  0.1542E+03  0.7829E+03
      1.889  0.1481E+03  0.7864E+03
      1.913  0.1350E+03  0.7896E+03
      1.937  0.1348E+03  0.7928E+03
      1.961  0.1478E+03  0.7963E+03
      1.985  0.1624E+03  0.8002E+03
      2.008  0.1794E+03  0.8045E+03
      2.032  0.2017E+03  0.8093E+03
      2.056  0.2129E+03  0.8143E+03
      2.080  0.2095E+03  0.8193E+03
      2.103  0.2116E+03  0.8243E+03
      2.127  0.2183E+03  0.8295E+03
      2.151  0.2206E+03  0.8348E+03
      2.175  0.2109E+03  0.8398E+03
      2.198  0.1928E+03  0.8444E+03
      2.222  0.1918E+03  0.8489E+03
      2.246  0.1920E+03  0.8535E+03
      2.270  0.1791E+03  0.8577E+03
      2.293  0.1610E+03  0.8616E+03
      2.317  0.1455E+03  0.8650E+03
      2.341  0.1256E+03  0.8680E+03
      2.365  0.1209E+03  0.8709E+03
      2.388  0.1297E+03  0.8740E+03
      2.412  0.1434E+03  0.8774E+03
      2.436  0.1454E+03  0.8808E+03
      2.460  0.1369E+03  0.8841E+03
      2.484  0.1432E+03  0.8875E+03
      2.507  0.1570E+03  0.8912E+03
      2.531  0.1593E+03  0.8950E+03
      2.555  0.1552E+03  0.8987E+03
      2.579  0.1564E+03  0.9024E+03
      2.602  0.1524E+03  0.9060E+03
      2.626  0.1415E+03  0.9094E+03
      2.650  0.1338E+03  0.9126E+03
      2.674  0.1339E+03  0.9157E+03
      2.697  0.1346E+03  0.9189E+03
      2.721  0.1369E+03  0.9222E+03
      2.745  0.1384E+03  0.9255E+03
      2.769  0.1442E+03  0.9289E+03
      2.792  0.1479E+03  0.9324E+03
      2.816  0.1398E+03  0.9357E+03
      2.840  0.1302E+03  0.9388E+03
      2.864  0.1211E+03  0.9417E+03
      2.888  0.1142E+03  0.9444E+03
      2.911  0.1097E+03  0.9470E+03
      2.935  0.1164E+03  0.9498E+03
      2.959  0.1219E+03  0.9527E+03
      2.983  0.1278E+03  0.9557E+03
      3.006  0.1378E+03  0.9590E+03
      3.030  0.1412E+03  0.9624E+03
      3.054  0.1534E+03  0.9660E+03
      3.078  0.1584E+03  0.9698E+03
      3.101  0.1542E+03  0.9734E+03
      3.125  0.1468E+03  0.9769E+03
      3.149  0.1363E+03  0.9802E+03
      3.173  0.1167E+03  0.9829E+03
      3.196  0.9775E+02  0.9853E+03
      3.220  0.7394E+02  0.9870E+03
      3.244  0.3431E+02  0.9878E+03
      3.268  0.9268E+01  0.9881E+03
      3.291  0.1279E+02  0.9884E+03
      3.315  0.3130E+02  0.9891E+03
      3.339  0.6285E+02  0.9906E+03
      3.363  0.9897E+02  0.9929E+03
      3.387  0.1146E+03  0.9957E+03
      3.410  0.1141E+03  0.9984E+03
      3.434  0.9072E+02  0.1001E+04
      3.458  0.4740E+02  0.1002E+04
      3.482  0.1273E+02  0.1002E+04
      3.505  0.1406E+01  0.1002E+04
      3.529  0.5519E-01  0.1002E+04
      3.553  0.7089E-03  0.1002E+04
      3.577  0.2847E-05  0.1002E+04
      3.600  0.3481E-08  0.1002E+04
      3.624  0.1273E-11  0.1002E+04
      3.648  0.0000E+00  0.1002E+04
      3.672  0.0000E+00  0.1002E+04
      3.695  0.0000E+00  0.1002E+04
      3.719  0.0000E+00  0.1002E+04
      3.743  0.0000E+00  0.1002E+04
      3.767  0.0000E+00  0.1002E+04
