       N       E                     dE             d eps       ncg     rms          rms(c)
DAV:   1    -0.260600649345E+03   -0.26060E+03   -0.12347E+05  4008   0.662E+02
DAV:   2    -0.876376645806E+03   -0.61578E+03   -0.56355E+03  4620   0.689E+01
DAV:   3    -0.919643065899E+03   -0.43266E+02   -0.39466E+02  5176   0.144E+01
DAV:   4    -0.921071331281E+03   -0.14283E+01   -0.14070E+01  4664   0.287E+00
DAV:   5    -0.921104707080E+03   -0.33376E-01   -0.33316E-01  4832   0.460E-01    0.941E+00
DAV:   6    -0.919753163915E+03    0.13515E+01   -0.11634E+01  4656   0.496E+00    0.843E+00
DAV:   7    -0.910977634885E+03    0.87755E+01   -0.10350E+01  4752   0.459E+00    0.491E+00
DAV:   8    -0.908356189044E+03    0.26214E+01   -0.47829E+00  4584   0.229E+00    0.259E+00
DAV:   9    -0.907907977273E+03    0.44821E+00   -0.24897E+00  4424   0.130E+00    0.143E+00
DAV:  10    -0.908023359068E+03   -0.11538E+00   -0.60661E-01  4824   0.844E-01    0.141E+00
DAV:  11    -0.907797328892E+03    0.22603E+00   -0.29934E-01  4624   0.608E-01    0.629E-01
DAV:  12    -0.907787078448E+03    0.10250E-01   -0.84232E-02  4416   0.244E-01    0.341E-01
DAV:  13    -0.907788361690E+03   -0.12832E-02   -0.26287E-02  4816   0.185E-01    0.288E-01
DAV:  14    -0.907781046414E+03    0.73153E-02   -0.10231E-02  4624   0.121E-01    0.137E-01
DAV:  15    -0.907779920789E+03    0.11256E-02   -0.29295E-03  4528   0.593E-02    0.654E-02
DAV:  16    -0.907780297730E+03   -0.37694E-03   -0.12700E-03  4664   0.412E-02    0.642E-02
DAV:  17    -0.907779740165E+03    0.55756E-03   -0.75361E-04  4552   0.308E-02    0.213E-02
DAV:  18    -0.907779713268E+03    0.26897E-04   -0.19483E-04  4416   0.119E-02    0.121E-02
DAV:  19    -0.907779702699E+03    0.10569E-04   -0.42146E-05  3944   0.696E-03    0.897E-03
DAV:  20    -0.907779692933E+03    0.97660E-05   -0.14182E-05  2872   0.480E-03
   1 F= -.90777969E+03 E0= -.90772830E+03  d E =-.102789E+00
