Li                                      
           1
    21.217000    0.000000    0.000000
     0.000000   21.217000    0.000000
    -0.000000   -0.000000   21.217000
   Li
   500
Direct configuration=     1
   0.00412635  0.99222511  0.98096331
   0.00342452  0.11331236  0.07851547
   0.99352700  0.19267686  0.19099553
   0.97548414  0.30076588  0.30717663
   0.00297589  0.40455783  0.38490877
   0.99117644  0.50902343  0.50835802
   0.99258243  0.61688888  0.61985302
   0.00257589  0.71261124  0.69035914
   0.00339350  0.81089890  0.80434976
   0.01249172  0.89533228  0.89141544
   0.11114103  0.01994252  0.08892761
   0.09695043  0.11360842  0.20028924
   0.11080888  0.20266972  0.29383322
   0.10984027  0.31152424  0.39005400
   0.09805943  0.40583135  0.49078213
   0.11180878  0.50547711  0.59497467
   0.09428450  0.62923536  0.70251692
   0.08175860  0.71953612  0.79886407
   0.09949299  0.80730709  0.91416743
   0.11615355  0.91886006  0.01349862
   0.19735222  0.03147909  0.20059458
   0.21074329  0.11894795  0.28767719
   0.21223756  0.19533195  0.40747676
   0.20550429  0.32329491  0.49892595
   0.21223590  0.39893447  0.59931798
   0.19561929  0.50592791  0.70561677
   0.20642485  0.61344319  0.79013875
   0.20237776  0.68257180  0.90235403
   0.19429801  0.79203695  0.00103711
   0.18307803  0.90389207  0.09814502
   0.29574838  0.00501420  0.28138106
   0.29306105  0.10490735  0.38631949
   0.29807238  0.19529137  0.51699988
   0.28429340  0.27885444  0.60228913
   0.29350886  0.38148968  0.71506082
   0.29352260  0.48424072  0.79599660
   0.29337550  0.57699106  0.90441946
   0.29799092  0.67907213  0.98984787
   0.28670525  0.78422250  0.09394587
   0.27361858  0.91008336  0.18038235
   0.39619159  0.01316247  0.39184575
   0.39894421  0.09660391  0.48749723
   0.42199654  0.18291343  0.59254943
   0.41587161  0.28489593  0.69008158
   0.40210009  0.39539228  0.78436499
   0.38895885  0.49073725  0.89671890
   0.39350698  0.56490327  0.99631413
   0.38585682  0.68517942  0.10704532
   0.40948589  0.79688426  0.19153475
   0.38015783  0.89894279  0.28595662
   0.50123094  0.00233935  0.47450951
   0.50437821  0.07392160  0.58074395
   0.50595369  0.19494062  0.68987167
   0.50811102  0.27406976  0.78872045
   0.50873839  0.38326121  0.89282660
   0.52032059  0.50123099  0.98878436
   0.50071816  0.59677850  0.10667850
   0.50653885  0.68465109  0.18568120
   0.49798429  0.78411455  0.27849770
   0.49487239  0.87997783  0.37838202
   0.59272259  0.99580115  0.58248863
   0.60167993  0.08287964  0.68604435
   0.61654875  0.18526206  0.77963815
   0.61618038  0.29714005  0.88364284
   0.62103295  0.41865258  0.98282933
   0.61706256  0.48023229  0.11636499
   0.61736449  0.59531471  0.21504051
   0.58837758  0.69934387  0.28756456
   0.58171284  0.80998968  0.39597142
   0.60627126  0.87950950  0.50357345
   0.71755410  0.99893488  0.69531416
   0.70566473  0.07694307  0.77851017
   0.71153602  0.19801322  0.89681885
   0.70153092  0.32544536  0.99961628
   0.69457621  0.40117497  0.09718741
   0.72446154  0.50368917  0.21709607
   0.70785944  0.59713889  0.29270330
   0.67168464  0.73146260  0.39931139
   0.70814183  0.80610593  0.50681598
   0.70800348  0.91572320  0.61045466
   0.79817955  0.00368406  0.82214931
   0.78499956  0.11279441  0.90172678
   0.79925914  0.20481916  0.00785287
   0.79703074  0.29925911  0.09939143
   0.78767525  0.41349270  0.16811033
   0.81363911  0.52130175  0.29924486
   0.79420105  0.59103804  0.39698638
   0.78384030  0.69983284  0.49072603
   0.77353283  0.81383221  0.62440315
   0.80109471  0.92886620  0.71857500
   0.89343178  0.99313694  0.88257147
   0.88285755  0.09211493  0.99741642
   0.88438201  0.19926724  0.07800762
   0.88706061  0.29215599  0.18235374
   0.89408190  0.41319127  0.28793818
   0.90758579  0.50639857  0.40370030
   0.88179120  0.58768881  0.50809104
   0.86447721  0.69567306  0.61549050
   0.88890016  0.80010702  0.70032917
   0.90684449  0.88577818  0.81629644
   0.09611570  0.10726514  0.98952282
   0.10033554  0.20927560  0.10797258
   0.11612434  0.28332660  0.20998687
   0.10117003  0.38296376  0.28658744
   0.09962947  0.48739458  0.39734319
   0.09280529  0.61330899  0.50755144
   0.14397232  0.71142491  0.61201187
   0.10166644  0.81964842  0.70383978
   0.11444475  0.89640750  0.80611031
   0.11491944  0.01707446  0.90342809
   0.20070064  0.13635000  0.09518946
   0.21467124  0.20950396  0.19636879
   0.21090494  0.28561228  0.29743704
   0.20458528  0.39726418  0.39056526
   0.19939162  0.52059835  0.48993429
   0.22006262  0.59063082  0.60425765
   0.19523299  0.72097955  0.72046163
   0.19573491  0.79001313  0.81129013
   0.20284307  0.91543250  0.90448195
   0.21201634  0.02354175  0.00828383
   0.31727425  0.11189421  0.19866172
   0.31952355  0.18965180  0.29907194
   0.31984526  0.30987076  0.39788443
   0.29066603  0.40443583  0.51298601
   0.31187212  0.49034217  0.63048193
   0.30054310  0.61755462  0.70670034
   0.29976268  0.67942794  0.81348763
   0.30498078  0.80207369  0.89192067
   0.28254926  0.90418487  0.99199684
   0.31021545  0.03471623  0.08701766
   0.40519290  0.08922465  0.30781440
   0.40075565  0.20182090  0.40763486
   0.41338796  0.29934541  0.51842306
   0.40172853  0.38511625  0.60180560
   0.38724276  0.46636153  0.71291254
   0.37805310  0.58007428  0.79991033
   0.41343490  0.67947601  0.91473563
   0.39584262  0.81522139  0.00557866
   0.37664408  0.89332217  0.10955877
   0.41853800  0.99609851  0.19894549
   0.52048386  0.11086412  0.40015753
   0.50489399  0.18942993  0.49643147
   0.51620391  0.29753843  0.59882147
   0.51499481  0.38941926  0.70269581
   0.50773021  0.50346961  0.80523233
   0.49458096  0.58142169  0.88718610
   0.47739753  0.67317302  0.99637447
   0.49359806  0.80232222  0.09473864
   0.50286950  0.90729107  0.21092510
   0.49969724  0.99917076  0.30429036
   0.61170583  0.08370917  0.48696566
   0.60084918  0.20127609  0.58796480
   0.60508193  0.27940517  0.70217777
   0.62165188  0.38826083  0.78706289
   0.62401223  0.48249039  0.88605838
   0.59542382  0.58247408  0.99714595
   0.60519255  0.69355225  0.09714564
   0.60125203  0.78580208  0.20121898
   0.60260255  0.88851555  0.29581024
   0.60580966  0.00502484  0.38909387
   0.70124259  0.09966205  0.60837047
   0.72085710  0.18978481  0.70298518
   0.70551403  0.30522779  0.79732405
   0.70543012  0.40933381  0.89393516
   0.71077869  0.52276461  0.00557603
   0.71290895  0.59892556  0.09992702
   0.71918111  0.69962672  0.19536841
   0.69465747  0.78745631  0.27917982
   0.68444627  0.88782389  0.38171074
   0.70185567  0.99745821  0.49483636
   0.81460762  0.10316649  0.69823894
   0.80333095  0.21562165  0.79941903
   0.79923080  0.31198951  0.90981554
   0.79279920  0.40911693  0.01850698
   0.81000716  0.51154568  0.11308457
   0.82204782  0.60482627  0.19420520
   0.81973950  0.68869256  0.30055913
   0.79507035  0.80690336  0.38416255
   0.78850955  0.89610516  0.49347320
   0.81814870  0.00443347  0.58376614
   0.90355660  0.10158528  0.80952902
   0.86928650  0.19562727  0.91008762
   0.87586747  0.29238662  0.99438190
   0.90535225  0.38120334  0.09758089
   0.89814229  0.50739624  0.19879314
   0.91110832  0.60259765  0.30765616
   0.90803697  0.70797990  0.44651189
   0.88395416  0.81274064  0.51712540
   0.89182008  0.90810064  0.59625266
   0.90805282  0.99701150  0.70581693
   0.98796401  0.11379879  0.90342285
   0.98388419  0.20543112  0.00357599
   0.99991872  0.28892509  0.10715947
   0.99144790  0.39112546  0.19263202
   0.99762420  0.48867379  0.29312087
   0.00882253  0.60092525  0.41825295
   0.97515905  0.70204913  0.52792430
   0.99957110  0.82713291  0.60406930
   0.01384631  0.90643123  0.70830546
   0.00532347  0.00819422  0.81466160
   0.20548179  0.22321041  0.00641629
   0.19988558  0.31025490  0.11196742
   0.20118146  0.38727714  0.21702066
   0.20428373  0.51783003  0.29722077
   0.20728902  0.60186635  0.39960705
   0.20681191  0.68569913  0.51165961
   0.20940383  0.81092532  0.58763316
   0.19610129  0.91550952  0.70463041
   0.19184992  0.02963425  0.82059746
   0.21681671  0.11079590  0.90864565
   0.30486041  0.22589415  0.09206659
   0.29735397  0.30322874  0.20637835
   0.30602269  0.40488437  0.30645957
   0.31387246  0.49187451  0.40946307
   0.30462280  0.58767063  0.51292969
   0.29360545  0.72275149  0.59986346
   0.31017661  0.80201915  0.73569041
   0.26531562  0.91432909  0.80201327
   0.29516545  0.00439690  0.91342269
   0.29926979  0.12019353  0.99686580
   0.41209330  0.20725342  0.20004486
   0.40243657  0.29601639  0.31095557
   0.39803047  0.39478757  0.41118874
   0.39605108  0.52044240  0.51105496
   0.40692781  0.59757150  0.62436240
   0.38742600  0.71531196  0.72081309
   0.40895818  0.81105297  0.80386192
   0.38268389  0.90738020  0.89006889
   0.38070841  0.00707869  0.99952198
   0.40443791  0.11702012  0.09110675
   0.50248489  0.20913864  0.29941037
   0.48590657  0.29223624  0.39637998
   0.50557584  0.38988266  0.50827943
   0.49093983  0.48708622  0.61898341
   0.47836272  0.59761629  0.71184938
   0.50531425  0.70078770  0.78740004
   0.48733248  0.80056460  0.90984706
   0.47371917  0.90989258  0.00194366
   0.49634864  0.00861143  0.08183646
   0.49691450  0.10398659  0.20290654
   0.61958539  0.18518857  0.38412600
   0.60466652  0.29348365  0.49766341
   0.60669859  0.37598571  0.59728128
   0.60174375  0.49089412  0.69963976
   0.59670560  0.59920342  0.77965521
   0.57855876  0.69631603  0.91481495
   0.56990293  0.80351633  0.01708892
   0.59308257  0.91132797  0.11098427
   0.59174169  0.00655894  0.19845185
   0.59705921  0.09905163  0.29384629
   0.70767864  0.19002037  0.49547518
   0.71646753  0.29566931  0.62110732
   0.70923373  0.39846883  0.70004839
   0.72642102  0.50102912  0.79631183
   0.70083475  0.61239677  0.88295298
   0.68786121  0.68072773  0.00007294
   0.70203727  0.81048210  0.09954736
   0.71034348  0.89145521  0.20766756
   0.68726603  0.98397678  0.29828320
   0.69991975  0.08442925  0.38177543
   0.81858806  0.19166107  0.61048993
   0.81114236  0.30490469  0.69435639
   0.81121813  0.40213411  0.78302603
   0.81481095  0.50014076  0.89827095
   0.82339850  0.60016481  0.99103901
   0.77853355  0.68981787  0.09370720
   0.81619848  0.79974437  0.17746921
   0.79345405  0.86619532  0.27465363
   0.77272679  0.99570790  0.38771906
   0.78346757  0.10179087  0.49734981
   0.90778757  0.20284519  0.71093518
   0.88480403  0.31157933  0.80936026
   0.90251650  0.38481700  0.90473392
   0.91747273  0.51315318  0.00625114
   0.91052486  0.63372407  0.09175294
   0.91260221  0.70494652  0.18112076
   0.90827413  0.79878640  0.30420193
   0.88853314  0.89660173  0.39197790
   0.88415610  0.98121126  0.48963441
   0.90624845  0.09761168  0.58158708
   0.98457884  0.19524027  0.80349307
   0.99412585  0.30482490  0.90787072
   0.99282964  0.36458112  0.01642153
   0.99446029  0.48620716  0.10214528
   0.00305810  0.60089560  0.20828131
   0.00450432  0.69220990  0.31688075
   0.99984680  0.78992110  0.41694591
   0.00442281  0.90303463  0.49224100
   0.01558665  0.98084691  0.59443325
   0.98711050  0.11267820  0.68815486
   0.10251074  0.20451462  0.89904855
   0.08701965  0.31350403  0.01286175
   0.09547039  0.39407858  0.12495844
   0.09059375  0.49600868  0.20969593
   0.08566005  0.59136688  0.31864434
   0.09599735  0.69486670  0.41809467
   0.10974699  0.77945494  0.50600247
   0.11495863  0.90049325  0.58714307
   0.10054489  0.99426792  0.70600241
   0.09991985  0.11051356  0.78736100
   0.30307502  0.31538993  0.99813717
   0.31306047  0.38484194  0.11400762
   0.31514241  0.48665082  0.21781979
   0.30056018  0.60639033  0.31486274
   0.30052285  0.71698971  0.38345118
   0.31667661  0.81245607  0.48125109
   0.29718035  0.91287187  0.60443857
   0.29511714  0.01735749  0.71385335
   0.31850133  0.10752638  0.79568149
   0.30269758  0.21457697  0.89912232
   0.41693833  0.30858139  0.09229235
   0.42500988  0.39512289  0.21648587
   0.40688502  0.49930058  0.31437781
   0.39166648  0.58551918  0.40649739
   0.38648000  0.68346775  0.50142437
   0.39365476  0.81881166  0.60147982
   0.38792435  0.90756678  0.70219172
   0.38969962  0.00331664  0.81039976
   0.39151739  0.10240375  0.91475386
   0.39731386  0.21183442  0.99203991
   0.51750725  0.30690812  0.20531720
   0.49372744  0.39365718  0.33152764
   0.51628732  0.51679398  0.42803451
   0.48971359  0.60495748  0.52717334
   0.49464766  0.71652154  0.62769099
   0.49549023  0.81931440  0.69512788
   0.50017348  0.90116752  0.79318908
   0.50213130  0.01397526  0.89084561
   0.50266840  0.10894212  0.98265233
   0.50455089  0.20634884  0.08766083
   0.59873054  0.30260435  0.30765081
   0.60227215  0.40019597  0.41049456
   0.59883528  0.49895354  0.51636123
   0.59583012  0.59839769  0.62056195
   0.59401113  0.69117466  0.70701108
   0.58982233  0.80063933  0.80835109
   0.58722460  0.88620424  0.90674988
   0.60307633  0.00314529  0.99056540
   0.58960211  0.11391866  0.08862713
   0.60380926  0.20606044  0.20012385
   0.71578428  0.30070126  0.40237201
   0.70227994  0.38333386  0.51243788
   0.69867888  0.49810183  0.60546477
   0.70355164  0.59885888  0.70416598
   0.69604624  0.69983668  0.79328391
   0.68924535  0.77966967  0.91566905
   0.67834110  0.89531221  0.99437280
   0.69638852  0.99549418  0.09286059
   0.68283325  0.08777065  0.19467034
   0.71246017  0.18956437  0.28593262
   0.79423708  0.27352859  0.51467775
   0.80811813  0.40407534  0.58960353
   0.79065930  0.50839930  0.71761114
   0.80650698  0.60899751  0.80816423
   0.81604482  0.70474677  0.89499015
   0.79616956  0.77327722  0.00200755
   0.81356953  0.89503723  0.08958110
   0.80236131  0.97550878  0.19682858
   0.78975400  0.09469390  0.26486577
   0.81365574  0.16710570  0.39657722
   0.90110911  0.29863335  0.59903407
   0.89804831  0.40674158  0.71308130
   0.90873062  0.50287198  0.79808538
   0.92573059  0.60987975  0.88514570
   0.90711474  0.69976808  0.99736414
   0.90836702  0.78653967  0.09758624
   0.92044165  0.88081947  0.19241230
   0.90092832  0.00779377  0.29033661
   0.89355597  0.08233223  0.41514915
   0.89499065  0.20019060  0.50092469
   0.99671019  0.32137000  0.71050334
   0.99565672  0.41113566  0.81709631
   0.01001077  0.51456048  0.89635545
   0.02531121  0.61035541  0.01067622
   0.00904851  0.70194551  0.09446870
   0.00787884  0.80532379  0.21266552
   0.99724261  0.88282910  0.29970275
   0.99621211  0.99077605  0.40411167
   0.00139379  0.08919335  0.51143693
   0.98975277  0.21581764  0.58869562
   0.08982958  0.27851569  0.80521147
   0.09655363  0.39013661  0.88886784
   0.08657882  0.47270848  0.01238269
   0.10305687  0.59711926  0.12829370
   0.10083073  0.71064264  0.20844291
   0.11634525  0.81370755  0.30952757
   0.11460919  0.90413813  0.40722145
   0.10275131  0.00286270  0.50564129
   0.07354791  0.11563780  0.59270454
   0.08700650  0.20714040  0.70007519
   0.19770882  0.29926775  0.90206817
   0.21018827  0.41584083  0.00193932
   0.20571922  0.48544221  0.10526375
   0.20572689  0.60893702  0.19824156
   0.19708109  0.69598586  0.31669776
   0.22779499  0.78739576  0.39814113
   0.21515022  0.89809659  0.49210423
   0.19358479  0.01203422  0.59864597
   0.20547411  0.11087182  0.68553029
   0.19338604  0.19560746  0.80993705
   0.38655114  0.40496402  0.97027693
   0.38856554  0.50273133  0.07925411
   0.39073572  0.60337853  0.19870774
   0.39485290  0.70690207  0.30563866
   0.40943524  0.81158650  0.39558216
   0.41643637  0.90871806  0.50385699
   0.39962969  0.99082290  0.59966010
   0.39457372  0.08995065  0.69236938
   0.38804323  0.19216669  0.79898920
   0.40736389  0.28819441  0.87902635
   0.50292193  0.40263266  0.05902860
   0.48457598  0.48109222  0.20012304
   0.48942284  0.60863292  0.31164452
   0.49585740  0.70061739  0.41057344
   0.48337583  0.79722626  0.49600915
   0.50720147  0.88836540  0.58248114
   0.48773349  0.99201881  0.69814507
   0.48570842  0.10668900  0.79317317
   0.50730444  0.16743654  0.88863825
   0.51536140  0.30432326  0.97559184
   0.58853169  0.41872872  0.21358026
   0.58754053  0.49667569  0.31291709
   0.58548234  0.60508793  0.39842259
   0.59646224  0.69506549  0.51467904
   0.61260728  0.80098309  0.62278187
   0.61432182  0.90069582  0.69486734
   0.59772405  0.00255228  0.80096800
   0.62743023  0.11023893  0.88449964
   0.59700467  0.20806242  0.99041454
   0.59061367  0.31047319  0.08254990
   0.71251940  0.40558308  0.30894588
   0.68776137  0.50058713  0.39734084
   0.71105988  0.60417632  0.50353679
   0.70314854  0.68777885  0.60572647
   0.70408645  0.78463381  0.73085803
   0.69447864  0.90536445  0.82226913
   0.70736940  0.00457940  0.90992268
   0.70090368  0.11105501  0.02607140
   0.70398325  0.20851288  0.10867192
   0.68943378  0.30611367  0.20983769
   0.80359085  0.39935702  0.40623594
   0.78085989  0.48979979  0.50737072
   0.79819156  0.58193818  0.59424890
   0.80879506  0.67940037  0.71587514
   0.80469451  0.80227579  0.79817482
   0.80544048  0.88162252  0.91858272
   0.79035227  0.00386840  0.00346539
   0.78182062  0.09787862  0.10977861
   0.79749750  0.20289878  0.18184671
   0.80094598  0.30019313  0.29161598
   0.89648328  0.38721012  0.48926191
   0.90533290  0.48436208  0.60243094
   0.91008509  0.60035756  0.70727980
   0.90193018  0.70316913  0.79044629
   0.91533482  0.78743964  0.89897591
   0.89114527  0.88937948  0.99017225
   0.91587723  0.98554928  0.10563247
   0.89275314  0.09736807  0.17503762
   0.88498423  0.19891727  0.28554410
   0.88596837  0.30583280  0.38502792
   0.99255924  0.39976918  0.59040456
   0.02129826  0.50057382  0.68678285
   0.99680477  0.59995682  0.77929067
   0.99486669  0.69687521  0.90025308
   0.00190038  0.80906737  0.99851883
   0.00552849  0.91596401  0.08482075
   0.00390758  0.00356083  0.20799074
   0.98873294  0.12234225  0.30455093
   0.98106233  0.20667414  0.37690798
   0.99937312  0.31233289  0.47785755
   0.10561168  0.38066288  0.69250223
   0.10471304  0.50385960  0.79423380
   0.09477251  0.60723778  0.88987796
   0.09643044  0.69539539  0.00755316
   0.10035215  0.81337808  0.12122433
   0.08748270  0.90848852  0.20211857
   0.09492027  0.01192288  0.30953064
   0.09709335  0.10645344  0.41888717
   0.08080978  0.22752462  0.48331890
   0.08344097  0.31421716  0.58913538
   0.19084744  0.38551320  0.80581081
   0.17157893  0.49802225  0.87742176
   0.18131490  0.57276424  0.00129111
   0.19000207  0.70430548  0.10548116
   0.19497450  0.80597503  0.21370381
   0.19940657  0.92210817  0.29531070
   0.20266226  0.99881417  0.39281137
   0.17761862  0.09937935  0.51323707
   0.17702348  0.19205250  0.59628622
   0.20529197  0.28263722  0.69516085
   0.29476823  0.39297053  0.89818401
   0.27282273  0.47167634  0.97965803
   0.27907892  0.57515738  0.08622496
   0.27961192  0.68932080  0.18052637
   0.30452305  0.80273441  0.29583924
   0.30541005  0.92021910  0.38720134
   0.28335482  0.99952431  0.49766077
   0.30350933  0.11034649  0.57724841
   0.29930775  0.17506401  0.67326600
   0.28913293  0.30488955  0.79497422
