 432 432   0   0
  0.2356206E+02  0.2167200E-08  0.2167200E-08  0.2167200E-08  0.5000000E-15
  1.000000000000000E-004
  CAR 
 Li                                      
      2.87702025     -3.59103819  301      0.03177110      1.00000000
     -3.591  0.0000E+00  0.0000E+00
     -3.569  0.0000E+00  0.0000E+00
     -3.548  0.0000E+00  0.0000E+00
     -3.526  0.0000E+00  0.0000E+00
     -3.505  0.0000E+00  0.0000E+00
     -3.483  0.0000E+00  0.0000E+00
     -3.462  0.3733E-13  0.8049E-15
     -3.440  0.9318E-10  0.2010E-11
     -3.419  0.8209E-07  0.1772E-08
     -3.397  0.2636E-04  0.5700E-06
     -3.375  0.3107E-02  0.6755E-04
     -3.354  0.1357E+00  0.2993E-02
     -3.332  0.2223E+01  0.5093E-01
     -3.311  0.1384E+02  0.3494E+00
     -3.289  0.3316E+02  0.1064E+01
     -3.268  0.3076E+02  0.1727E+01
     -3.246  0.1113E+02  0.1967E+01
     -3.225  0.3370E+01  0.2040E+01
     -3.203  0.1583E+02  0.2381E+01
     -3.181  0.5809E+02  0.3634E+01
     -3.160  0.9706E+02  0.5726E+01
     -3.138  0.7491E+02  0.7341E+01
     -3.117  0.2653E+02  0.7913E+01
     -3.095  0.8001E+01  0.8086E+01
     -3.074  0.2599E+02  0.8646E+01
     -3.052  0.7372E+02  0.1024E+02
     -3.030  0.9707E+02  0.1233E+02
     -3.009  0.5924E+02  0.1361E+02
     -2.987  0.1785E+02  0.1399E+02
     -2.966  0.1537E+02  0.1432E+02
     -2.944  0.5331E+02  0.1547E+02
     -2.923  0.1055E+03  0.1775E+02
     -2.901  0.1125E+03  0.2017E+02
     -2.880  0.6470E+02  0.2157E+02
     -2.858  0.2485E+02  0.2210E+02
     -2.836  0.3795E+02  0.2292E+02
     -2.815  0.9519E+02  0.2497E+02
     -2.793  0.1441E+03  0.2808E+02
     -2.772  0.1410E+03  0.3112E+02
     -2.750  0.9227E+02  0.3311E+02
     -2.729  0.3737E+02  0.3392E+02
     -2.707  0.2333E+02  0.3442E+02
     -2.686  0.5268E+02  0.3555E+02
     -2.664  0.8457E+02  0.3738E+02
     -2.642  0.7645E+02  0.3903E+02
     -2.621  0.4112E+02  0.3991E+02
     -2.599  0.3533E+02  0.4067E+02
     -2.578  0.7339E+02  0.4226E+02
     -2.556  0.1176E+03  0.4479E+02
     -2.535  0.1427E+03  0.4787E+02
     -2.513  0.1203E+03  0.5046E+02
     -2.491  0.6685E+02  0.5190E+02
     -2.470  0.6102E+02  0.5322E+02
     -2.448  0.1170E+03  0.5574E+02
     -2.427  0.1703E+03  0.5942E+02
     -2.405  0.1838E+03  0.6338E+02
     -2.384  0.1602E+03  0.6683E+02
     -2.362  0.1015E+03  0.6902E+02
     -2.341  0.4489E+02  0.6999E+02
     -2.319  0.4297E+02  0.7092E+02
     -2.297  0.8473E+02  0.7274E+02
     -2.276  0.9230E+02  0.7473E+02
     -2.254  0.5027E+02  0.7582E+02
     -2.233  0.3262E+02  0.7652E+02
     -2.211  0.7198E+02  0.7807E+02
     -2.190  0.1301E+03  0.8088E+02
     -2.168  0.1587E+03  0.8430E+02
     -2.147  0.1453E+03  0.8743E+02
     -2.125  0.9346E+02  0.8945E+02
     -2.103  0.6175E+02  0.9078E+02
     -2.082  0.9927E+02  0.9292E+02
     -2.060  0.1578E+03  0.9632E+02
     -2.039  0.1871E+03  0.1004E+03
     -2.017  0.1786E+03  0.1042E+03
     -1.996  0.1228E+03  0.1069E+03
     -1.974  0.6398E+02  0.1082E+03
     -1.952  0.7335E+02  0.1098E+03
     -1.931  0.1260E+03  0.1125E+03
     -1.909  0.1514E+03  0.1158E+03
     -1.888  0.1249E+03  0.1185E+03
     -1.866  0.8421E+02  0.1203E+03
     -1.845  0.9216E+02  0.1223E+03
     -1.823  0.1432E+03  0.1254E+03
     -1.802  0.1808E+03  0.1293E+03
     -1.780  0.1765E+03  0.1331E+03
     -1.758  0.1371E+03  0.1360E+03
     -1.737  0.8849E+02  0.1379E+03
     -1.715  0.8924E+02  0.1399E+03
     -1.694  0.1495E+03  0.1431E+03
     -1.672  0.2008E+03  0.1474E+03
     -1.651  0.1964E+03  0.1517E+03
     -1.629  0.1366E+03  0.1546E+03
     -1.608  0.7071E+02  0.1561E+03
     -1.586  0.6906E+02  0.1576E+03
     -1.564  0.1154E+03  0.1601E+03
     -1.543  0.1430E+03  0.1632E+03
     -1.521  0.1242E+03  0.1659E+03
     -1.500  0.7891E+02  0.1676E+03
     -1.478  0.5933E+02  0.1688E+03
     -1.457  0.9313E+02  0.1709E+03
     -1.435  0.1327E+03  0.1737E+03
     -1.413  0.1340E+03  0.1766E+03
     -1.392  0.1132E+03  0.1790E+03
     -1.370  0.1199E+03  0.1816E+03
     -1.349  0.1750E+03  0.1854E+03
     -1.327  0.2335E+03  0.1904E+03
     -1.306  0.2574E+03  0.1960E+03
     -1.284  0.2513E+03  0.2014E+03
     -1.263  0.2142E+03  0.2060E+03
     -1.241  0.1558E+03  0.2094E+03
     -1.219  0.1347E+03  0.2123E+03
     -1.198  0.1688E+03  0.2159E+03
     -1.176  0.1943E+03  0.2201E+03
     -1.155  0.1757E+03  0.2239E+03
     -1.133  0.1255E+03  0.2266E+03
     -1.112  0.7975E+02  0.2283E+03
     -1.090  0.9839E+02  0.2304E+03
     -1.068  0.1593E+03  0.2339E+03
     -1.047  0.1768E+03  0.2377E+03
     -1.025  0.1334E+03  0.2406E+03
     -1.004  0.9766E+02  0.2427E+03
     -0.982  0.1306E+03  0.2455E+03
     -0.961  0.1957E+03  0.2497E+03
     -0.939  0.2319E+03  0.2547E+03
     -0.918  0.2191E+03  0.2594E+03
     -0.896  0.1725E+03  0.2632E+03
     -0.874  0.1328E+03  0.2660E+03
     -0.853  0.1120E+03  0.2684E+03
     -0.831  0.9464E+02  0.2705E+03
     -0.810  0.6457E+02  0.2719E+03
     -0.788  0.6430E+02  0.2732E+03
     -0.767  0.1206E+03  0.2758E+03
     -0.745  0.1848E+03  0.2798E+03
     -0.724  0.2258E+03  0.2847E+03
     -0.702  0.2365E+03  0.2898E+03
     -0.680  0.2147E+03  0.2944E+03
     -0.659  0.1867E+03  0.2985E+03
     -0.637  0.1769E+03  0.3023E+03
     -0.616  0.1941E+03  0.3065E+03
     -0.594  0.2273E+03  0.3114E+03
     -0.573  0.2618E+03  0.3170E+03
     -0.551  0.2635E+03  0.3227E+03
     -0.529  0.2243E+03  0.3275E+03
     -0.508  0.1675E+03  0.3311E+03
     -0.486  0.1332E+03  0.3340E+03
     -0.465  0.1383E+03  0.3370E+03
     -0.443  0.1422E+03  0.3400E+03
     -0.422  0.1365E+03  0.3430E+03
     -0.400  0.1504E+03  0.3462E+03
     -0.379  0.1968E+03  0.3505E+03
     -0.357  0.2383E+03  0.3556E+03
     -0.335  0.2490E+03  0.3610E+03
     -0.314  0.2434E+03  0.3662E+03
     -0.292  0.2313E+03  0.3712E+03
     -0.271  0.2089E+03  0.3757E+03
     -0.249  0.1850E+03  0.3797E+03
     -0.228  0.1780E+03  0.3835E+03
     -0.206  0.1942E+03  0.3877E+03
     -0.185  0.2073E+03  0.3922E+03
     -0.163  0.2006E+03  0.3965E+03
     -0.141  0.1821E+03  0.4005E+03
     -0.120  0.1624E+03  0.4040E+03
     -0.098  0.1541E+03  0.4073E+03
     -0.077  0.1528E+03  0.4106E+03
     -0.055  0.1723E+03  0.4143E+03
     -0.034  0.2027E+03  0.4187E+03
     -0.012  0.2127E+03  0.4232E+03
      0.010  0.2013E+03  0.4276E+03
      0.031  0.1983E+03  0.4319E+03
      0.053  0.2154E+03  0.4365E+03
      0.074  0.2280E+03  0.4414E+03
      0.096  0.2207E+03  0.4462E+03
      0.117  0.2092E+03  0.4507E+03
      0.139  0.2097E+03  0.4552E+03
      0.160  0.2119E+03  0.4598E+03
      0.182  0.2060E+03  0.4642E+03
      0.204  0.2019E+03  0.4686E+03
      0.225  0.2071E+03  0.4730E+03
      0.247  0.2146E+03  0.4777E+03
      0.268  0.2278E+03  0.4826E+03
      0.290  0.2487E+03  0.4879E+03
      0.311  0.2619E+03  0.4936E+03
      0.333  0.2711E+03  0.4994E+03
      0.354  0.2673E+03  0.5052E+03
      0.376  0.2588E+03  0.5108E+03
      0.398  0.2576E+03  0.5163E+03
      0.419  0.2632E+03  0.5220E+03
      0.441  0.2654E+03  0.5277E+03
      0.462  0.2650E+03  0.5334E+03
      0.484  0.2626E+03  0.5391E+03
      0.505  0.2604E+03  0.5447E+03
      0.527  0.2543E+03  0.5502E+03
      0.549  0.2389E+03  0.5553E+03
      0.570  0.2305E+03  0.5603E+03
      0.592  0.2400E+03  0.5655E+03
      0.613  0.2510E+03  0.5709E+03
      0.635  0.2425E+03  0.5761E+03
      0.656  0.2337E+03  0.5812E+03
      0.678  0.2311E+03  0.5861E+03
      0.699  0.2267E+03  0.5910E+03
      0.721  0.2289E+03  0.5960E+03
      0.743  0.2352E+03  0.6010E+03
      0.764  0.2311E+03  0.6060E+03
      0.786  0.2207E+03  0.6108E+03
      0.807  0.2120E+03  0.6154E+03
      0.829  0.2025E+03  0.6197E+03
      0.850  0.1962E+03  0.6239E+03
      0.872  0.1965E+03  0.6282E+03
      0.893  0.1922E+03  0.6323E+03
      0.915  0.1813E+03  0.6362E+03
      0.937  0.1804E+03  0.6401E+03
      0.958  0.1890E+03  0.6442E+03
      0.980  0.1752E+03  0.6480E+03
      1.001  0.1454E+03  0.6511E+03
      1.023  0.1414E+03  0.6542E+03
      1.044  0.1532E+03  0.6575E+03
      1.066  0.1602E+03  0.6609E+03
      1.088  0.1654E+03  0.6645E+03
      1.109  0.1709E+03  0.6682E+03
      1.131  0.1781E+03  0.6720E+03
      1.152  0.1843E+03  0.6760E+03
      1.174  0.1928E+03  0.6801E+03
      1.195  0.2036E+03  0.6845E+03
      1.217  0.2005E+03  0.6888E+03
      1.238  0.1849E+03  0.6928E+03
      1.260  0.1746E+03  0.6966E+03
      1.282  0.1715E+03  0.7003E+03
      1.303  0.1786E+03  0.7041E+03
      1.325  0.1978E+03  0.7084E+03
      1.346  0.2141E+03  0.7130E+03
      1.368  0.2089E+03  0.7175E+03
      1.389  0.1943E+03  0.7217E+03
      1.411  0.1909E+03  0.7258E+03
      1.432  0.1881E+03  0.7299E+03
      1.454  0.1930E+03  0.7341E+03
      1.476  0.2017E+03  0.7384E+03
      1.497  0.1877E+03  0.7424E+03
      1.519  0.1710E+03  0.7461E+03
      1.540  0.1679E+03  0.7498E+03
      1.562  0.1711E+03  0.7534E+03
      1.583  0.1709E+03  0.7571E+03
      1.605  0.1576E+03  0.7605E+03
      1.627  0.1408E+03  0.7636E+03
      1.648  0.1294E+03  0.7664E+03
      1.670  0.1354E+03  0.7693E+03
      1.691  0.1471E+03  0.7724E+03
      1.713  0.1406E+03  0.7755E+03
      1.734  0.1324E+03  0.7783E+03
      1.756  0.1286E+03  0.7811E+03
      1.777  0.1111E+03  0.7835E+03
      1.799  0.1023E+03  0.7857E+03
      1.821  0.1186E+03  0.7883E+03
      1.842  0.1198E+03  0.7908E+03
      1.864  0.9630E+02  0.7929E+03
      1.885  0.7088E+02  0.7944E+03
      1.907  0.4642E+02  0.7954E+03
      1.928  0.3155E+02  0.7961E+03
      1.950  0.3652E+02  0.7969E+03
      1.971  0.5547E+02  0.7981E+03
      1.993  0.8014E+02  0.7998E+03
      2.015  0.8901E+02  0.8018E+03
      2.036  0.7074E+02  0.8033E+03
      2.058  0.4886E+02  0.8043E+03
      2.079  0.4887E+02  0.8054E+03
      2.101  0.6345E+02  0.8068E+03
      2.122  0.8218E+02  0.8085E+03
      2.144  0.9931E+02  0.8107E+03
      2.166  0.1066E+03  0.8130E+03
      2.187  0.1112E+03  0.8154E+03
      2.209  0.1336E+03  0.8182E+03
      2.230  0.1530E+03  0.8215E+03
      2.252  0.1490E+03  0.8248E+03
      2.273  0.1473E+03  0.8279E+03
      2.295  0.1412E+03  0.8310E+03
      2.316  0.1301E+03  0.8338E+03
      2.338  0.1370E+03  0.8367E+03
      2.360  0.1411E+03  0.8398E+03
      2.381  0.1216E+03  0.8424E+03
      2.403  0.9843E+02  0.8445E+03
      2.424  0.8970E+02  0.8465E+03
      2.446  0.9433E+02  0.8485E+03
      2.467  0.1083E+03  0.8508E+03
      2.489  0.1236E+03  0.8535E+03
      2.510  0.1369E+03  0.8564E+03
      2.532  0.1459E+03  0.8596E+03
      2.554  0.1377E+03  0.8626E+03
      2.575  0.9958E+02  0.8647E+03
      2.597  0.4687E+02  0.8657E+03
      2.618  0.1201E+02  0.8660E+03
      2.640  0.1436E+01  0.8660E+03
      2.661  0.7212E-01  0.8660E+03
      2.683  0.1435E-02  0.8660E+03
      2.705  0.1094E-04  0.8660E+03
      2.726  0.3130E-07  0.8660E+03
      2.748  0.3321E-10  0.8660E+03
      2.769  0.1030E-13  0.8660E+03
      2.791  0.0000E+00  0.8660E+03
      2.812  0.0000E+00  0.8660E+03
      2.834  0.0000E+00  0.8660E+03
      2.855  0.0000E+00  0.8660E+03
      2.877  0.0000E+00  0.8660E+03
