 running on   64 total cores
 distrk:  each k-point on   32 cores,    2 groups
 distr:  one band on   32 cores,    1 groups
 vasp.6.2.1 16May21 (build Nov 23 2021 15:40:41) complex                        
  
 POSCAR found type information on POSCAR Li
 POSCAR found :  1 types and     432 ions
 scaLAPACK will be used
 -----------------------------------------------------------------------------
|                                                                             |
|           W    W    AA    RRRRR   N    N  II  N    N   GGGG   !!!           |
|           W    W   A  A   R    R  NN   N  II  NN   N  G    G  !!!           |
|           W    W  A    A  R    R  N N  N  II  N N  N  G       !!!           |
|           W WW W  AAAAAA  RRRRR   N  N N  II  N  N N  G  GGG   !            |
|           WW  WW  A    A  R   R   N   NN  II  N   NN  G    G                |
|           W    W  A    A  R    R  N    N  II  N    N   GGGG   !!!           |
|                                                                             |
|     For optimal performance we recommend to set                             |
|       NCORE = 2 up to number-of-cores-per-socket                            |
|     NCORE specifies how many cores store one orbital (NPAR=cpu/NCORE).      |
|     This setting can greatly improve the performance of VASP for DFT.       |
|     The default, NCORE=1 might be grossly inefficient on modern             |
|     multi-core architectures or massively parallel machines. Do your        |
|     own testing! More info at https://www.vasp.at/wiki/index.php/NCORE      |
|     Unfortunately you need to use the default for GW and RPA                |
|     calculations (for HF NCORE is supported but not extensively tested      |
|     yet).                                                                   |
|                                                                             |
 -----------------------------------------------------------------------------

 -----------------------------------------------------------------------------
|                                                                             |
|               ----> ADVICE to this user running VASP <----                  |
|                                                                             |
|     You have a (more or less) 'large supercell' and for larger cells it     |
|     might be more efficient to use real-space projection operators.         |
|     Therefore, try LREAL= Auto in the INCAR file.                           |
|     Mind: If you want to do very accurate calculations, keep the            |
|     reciprocal projection scheme (i.e. LREAL=.FALSE.).                      |
|                                                                             |
 -----------------------------------------------------------------------------

 LDA part: xc-table for Pade appr. of Perdew
 POSCAR found type information on POSCAR Li
 POSCAR found :  1 types and     432 ions
 POSCAR, INCAR and KPOINTS ok, starting setup
 FFT: planning ...
 WAVECAR not read
 entering main loop
       N       E                     dE             d eps       ncg     rms          rms(c)
DAV:   1    -0.274891896500E+03   -0.27489E+03   -0.10048E+05  3464   0.641E+02
DAV:   2    -0.754791857561E+03   -0.47990E+03   -0.43828E+03  3988   0.631E+01
DAV:   3    -0.790411220809E+03   -0.35619E+02   -0.32655E+02  4456   0.136E+01
DAV:   4    -0.791665649899E+03   -0.12544E+01   -0.12372E+01  4040   0.281E+00
DAV:   5    -0.791694858358E+03   -0.29208E-01   -0.29170E-01  4168   0.456E-01    0.917E+00
DAV:   6    -0.786708639400E+03    0.49862E+01   -0.10157E+01  4072   0.461E+00    0.692E+00
DAV:   7    -0.780598391133E+03    0.61102E+01   -0.10759E+01  4104   0.439E+00    0.414E+00
DAV:   8    -0.778671636273E+03    0.19268E+01   -0.58976E+00  3928   0.217E+00    0.188E+00
DAV:   9    -0.778546154370E+03    0.12548E+00   -0.23011E+00  3808   0.124E+00    0.112E+00
DAV:  10    -0.778592670981E+03   -0.46517E-01   -0.40561E-01  4064   0.728E-01    0.959E-01
DAV:  11    -0.778486635683E+03    0.10604E+00   -0.16287E-01  3976   0.486E-01    0.475E-01
DAV:  12    -0.778483213228E+03    0.34225E-02   -0.65626E-02  3744   0.204E-01    0.216E-01
DAV:  13    -0.778483873884E+03   -0.66066E-03   -0.11927E-02  4112   0.121E-01    0.151E-01
DAV:  14    -0.778482167503E+03    0.17064E-02   -0.37136E-03  3984   0.814E-02    0.917E-02
DAV:  15    -0.778481536440E+03    0.63106E-03   -0.13124E-03  3952   0.424E-02    0.453E-02
DAV:  16    -0.778481458813E+03    0.77628E-04   -0.77255E-04  3728   0.240E-02    0.173E-02
DAV:  17    -0.778481470277E+03   -0.11465E-04   -0.10948E-04  4184   0.128E-02    0.154E-02
DAV:  18    -0.778481439651E+03    0.30626E-04   -0.43753E-05  3856   0.803E-03    0.646E-03
DAV:  19    -0.778481436575E+03    0.30759E-05   -0.16280E-05  2208   0.390E-03
   1 F= -.77848144E+03 E0= -.77843517E+03  d E =-.925346E-01
