Li                                      
           1
    21.672000    0.000000    0.000000
     0.000000   21.672000    0.000000
     0.000000    0.000000   21.672000
   Li
   432
Direct configuration=     1
   0.98546780  0.99512328  0.99204720
   0.93347966  0.08479496  0.10351153
   0.82598189  0.18714775  0.18182523
   0.74483926  0.24466408  0.25768568
   0.66951055  0.33181993  0.34604016
   0.57103675  0.41048185  0.42893091
   0.47160134  0.51385560  0.51605579
   0.40286123  0.60725953  0.58903244
   0.32217200  0.67245900  0.67967269
   0.24030403  0.76862572  0.74323594
   0.14198586  0.84113531  0.84226988
   0.07641460  0.90572667  0.93034570
   0.06248766  0.93691547  0.07227031
   0.99328349  0.97954623  0.16244992
   0.93659103  0.09824911  0.26923026
   0.81385632  0.17794315  0.34131357
   0.74733116  0.23051520  0.43272130
   0.67524266  0.30535513  0.49281403
   0.58874544  0.40084948  0.60216766
   0.50528736  0.51409329  0.66999105
   0.40792423  0.58162090  0.76595427
   0.32633293  0.67375633  0.83606568
   0.24730445  0.76775189  0.90664784
   0.17081495  0.83966056  0.98922293
   0.16344623  0.85931709  0.17357214
   0.10329816  0.92769011  0.26068212
   0.97392052  0.97763824  0.34094550
   0.95901799  0.11834472  0.42228867
   0.84334971  0.16062408  0.49352422
   0.76167236  0.24885238  0.56666485
   0.67720476  0.32205671  0.67007477
   0.59043693  0.40482954  0.75646541
   0.48111526  0.50690058  0.82495448
   0.40600321  0.60206837  0.92646718
   0.31217312  0.70641247  0.00293110
   0.24452065  0.76971937  0.07522854
   0.25274538  0.75928064  0.25759654
   0.18194898  0.85062448  0.33848431
   0.07807016  0.91827381  0.43376161
   0.97199663  0.00005067  0.49525886
   0.93807775  0.09412484  0.55791743
   0.85342906  0.18452706  0.64816309
   0.76844452  0.24020601  0.74429357
   0.66941332  0.34546170  0.82712805
   0.58253760  0.40847260  0.89489007
   0.50508888  0.47977074  0.98536959
   0.39257714  0.58802591  0.06343502
   0.33901782  0.66920455  0.17922557
   0.33150808  0.65941629  0.33370656
   0.25897704  0.76679634  0.40564836
   0.17770634  0.83078221  0.49870988
   0.07249114  0.91881175  0.55099040
   0.98423572  0.00077919  0.65238698
   0.93622056  0.09259219  0.75086749
   0.81806921  0.15974347  0.83320800
   0.76308497  0.24996568  0.91305171
   0.67462772  0.32861169  0.99606408
   0.57665175  0.39571544  0.09579399
   0.48582268  0.46997805  0.15015472
   0.44868667  0.58256889  0.24925594
   0.43554190  0.57874381  0.41337497
   0.30592285  0.64576969  0.51236685
   0.24377481  0.76374681  0.59618212
   0.16789875  0.86160649  0.67319700
   0.06582034  0.91762719  0.76204922
   0.98699516  0.00479177  0.84550316
   0.89349926  0.09033936  0.91091486
   0.85053965  0.17518560  0.00915875
   0.73476050  0.22850566  0.09855132
   0.66624421  0.32845104  0.16258294
   0.58934215  0.41308001  0.26552167
   0.50004424  0.48832406  0.34117500
   0.06474339  0.07080403  0.93103023
   0.98426320  0.14883505  0.99388416
   0.91834461  0.25192239  0.08506338
   0.83504862  0.32620952  0.15942302
   0.75928037  0.41859990  0.25624194
   0.65620888  0.52178480  0.35019792
   0.54719260  0.61420648  0.41203040
   0.49867547  0.68415438  0.50717000
   0.41223903  0.77561527  0.60173877
   0.32898724  0.86287043  0.68846697
   0.25498935  0.95334023  0.75534213
   0.15631967  0.00766365  0.85838070
   0.19243897  0.99722004  0.98621839
   0.08664955  0.06500388  0.06433997
   0.98793966  0.18424679  0.17072786
   0.91911460  0.25483166  0.26945217
   0.82015948  0.33034238  0.32857388
   0.73617985  0.43163429  0.42218427
   0.63115391  0.50866515  0.50970780
   0.57887292  0.58743939  0.57696878
   0.48760047  0.67209555  0.67122698
   0.41212996  0.76261635  0.75186035
   0.30005350  0.83914396  0.81860005
   0.24682275  0.94216949  0.91161607
   0.24969792  0.94268371  0.09550265
   0.15428901  0.01186392  0.17802961
   0.06319852  0.07524746  0.25100369
   0.03295328  0.18557048  0.32766766
   0.92498153  0.22588842  0.38818021
   0.84439823  0.33013906  0.46891073
   0.72886215  0.42725055  0.56810272
   0.65308275  0.49329412  0.68947074
   0.58176963  0.56872959  0.74757943
   0.49208276  0.66510671  0.85037535
   0.42697793  0.74754286  0.92020790
   0.31154662  0.82116139  0.98263207
   0.32506094  0.81671512  0.15980367
   0.25525246  0.93184725  0.24810341
   0.17651618  0.00829116  0.34919376
   0.06735298  0.07788899  0.42034328
   0.00994191  0.17351366  0.48949972
   0.92825738  0.23901787  0.54873608
   0.83881950  0.33499596  0.64633278
   0.75918653  0.42069725  0.72848740
   0.68707361  0.49016861  0.83611131
   0.59443770  0.60400887  0.92365432
   0.48063994  0.68793580  0.99894925
   0.41248257  0.75000656  0.06938562
   0.43021337  0.76724956  0.26858431
   0.32848589  0.84731662  0.32735491
   0.25264180  0.92903344  0.42677863
   0.16965994  0.01306827  0.51415677
   0.04110351  0.07992987  0.56745702
   0.99562012  0.18982735  0.64489969
   0.91537428  0.25123454  0.74620360
   0.84196926  0.34865942  0.84322026
   0.73860288  0.42688756  0.91323190
   0.66898141  0.48830467  0.00573018
   0.56449743  0.57872555  0.08130455
   0.50571032  0.70158320  0.14045852
   0.48181634  0.68549458  0.35253647
   0.38891866  0.76281940  0.42563818
   0.32447146  0.84290009  0.49102120
   0.26175655  0.92262710  0.58522031
   0.14239872  0.00477550  0.65891574
   0.07805070  0.10265221  0.75676036
   0.99065223  0.17134189  0.85875909
   0.89011298  0.24976505  0.91156921
   0.84218312  0.33347909  0.00438803
   0.77062982  0.42464924  0.08140237
   0.66005568  0.50741993  0.19000939
   0.57761509  0.58306667  0.25147249
   0.17009700  0.14523298  0.84249756
   0.06728139  0.21487290  0.91526687
   0.96482867  0.33892434  0.99720965
   0.92533394  0.43883062  0.09462207
   0.82205806  0.49918622  0.18448477
   0.74085567  0.58415946  0.26607491
   0.65731405  0.66818390  0.32527274
   0.58263210  0.74047998  0.38040988
   0.50283221  0.83147377  0.48787454
   0.42964550  0.89488933  0.58757521
   0.33936885  0.98777313  0.67392797
   0.23109959  0.08396661  0.75471378
   0.25872801  0.07282103  0.91450974
   0.16013772  0.15306992  0.99634286
   0.08364816  0.25028331  0.06393210
   0.01106104  0.34217833  0.15737234
   0.90137565  0.41978393  0.23783468
   0.85200477  0.50172232  0.34426752
   0.74508422  0.58857594  0.43659051
   0.65343149  0.67410929  0.50455339
   0.56990462  0.74615821  0.58386164
   0.52032249  0.82085054  0.67739012
   0.43124395  0.91788233  0.74890660
   0.34240742  0.02306518  0.83641476
   0.34581752  0.00032418  0.99450369
   0.27182236  0.07672426  0.08003205
   0.15363078  0.14039450  0.17610156
   0.10879182  0.27525973  0.23202273
   0.99155666  0.35126057  0.30695236
   0.92635377  0.41375720  0.40372987
   0.83480060  0.52540973  0.50982735
   0.71948170  0.59348345  0.56831151
   0.65980260  0.69455604  0.67584409
   0.59236443  0.74274175  0.77198323
   0.50931316  0.82526328  0.81123884
   0.42726645  0.89828536  0.88448434
   0.40349296  0.90715824  0.08929552
   0.35128187  0.00745317  0.15326329
   0.27187382  0.06658983  0.24509640
   0.18472298  0.15337649  0.33048900
   0.07387823  0.26659283  0.38120256
   0.98503628  0.34516234  0.48334845
   0.90372666  0.43167018  0.56723031
   0.83074733  0.51624984  0.63912306
   0.75777425  0.59323964  0.74848509
   0.65369986  0.64173620  0.83435174
   0.58066530  0.75487117  0.93670324
   0.50136875  0.84362651  0.00742661
   0.52997302  0.83317733  0.14735534
   0.42092448  0.90343329  0.23902537
   0.33415403  0.98695419  0.35169754
   0.28821689  0.07580083  0.42682857
   0.15909553  0.16704980  0.49798922
   0.08994037  0.26439685  0.56244355
   0.98581056  0.34793349  0.65029512
   0.91651521  0.43328244  0.75496739
   0.81266553  0.51652089  0.83083749
   0.75130098  0.58161440  0.94024811
   0.67154657  0.65807933  0.02365339
   0.60500304  0.74209307  0.07843349
   0.56566114  0.76487454  0.24435127
   0.50515987  0.86464808  0.34057091
   0.40705387  0.92277916  0.42241299
   0.34267642  0.00396364  0.51532782
   0.28525508  0.10266261  0.58411465
   0.16344661  0.15038537  0.65791215
   0.05644543  0.24376885  0.73929385
   0.99500673  0.32765385  0.84611314
   0.90626665  0.42408106  0.91955506
   0.82816012  0.49026478  0.00117474
   0.74631063  0.58608155  0.10521818
   0.65372507  0.64477632  0.17314180
   0.24256861  0.22795128  0.74253296
   0.16172613  0.30887356  0.82681661
   0.09390247  0.41124250  0.91926350
   0.99726789  0.51864588  0.99827045
   0.90828222  0.57852933  0.09737392
   0.84707763  0.66736931  0.19054524
   0.75440048  0.75644870  0.25226617
   0.66708793  0.82649069  0.31344962
   0.60631732  0.91784295  0.42286458
   0.50331532  0.98475909  0.51834854
   0.44327240  0.08058774  0.59421170
   0.32829384  0.16646000  0.66335992
   0.34903409  0.13683162  0.81723316
   0.26894459  0.23200882  0.89366118
   0.16199307  0.31799577  0.00207660
   0.07978147  0.41785945  0.08461991
   0.01464614  0.50114174  0.17670786
   0.93463736  0.56960230  0.24602353
   0.85165482  0.66973047  0.33438522
   0.74233374  0.72694165  0.42805858
   0.65969891  0.80711478  0.51749225
   0.59878089  0.90637533  0.60067617
   0.53415385  0.98009704  0.67587247
   0.41604793  0.08237628  0.71017421
   0.45480962  0.05604669  0.90165922
   0.35271446  0.15205906  0.97266932
   0.27208366  0.23709986  0.07411706
   0.18568807  0.32429547  0.16882907
   0.08508511  0.42332014  0.28262870
   0.01230090  0.51532698  0.32187864
   0.92404912  0.59211827  0.42503607
   0.85151843  0.67131912  0.50982728
   0.75722040  0.73222276  0.59567248
   0.64988053  0.82064166  0.67792469
   0.60464137  0.90329505  0.74034436
   0.49012465  0.97789689  0.78807629
   0.50342035  0.97922955  0.99154550
   0.41968021  0.08899163  0.06712811
   0.33698329  0.16717749  0.14535071
   0.26799739  0.22933229  0.24968994
   0.19276495  0.32634383  0.32961603
   0.06648258  0.40498585  0.40515913
   0.01432630  0.49851924  0.48564472
   0.92615167  0.59466359  0.59749540
   0.82944537  0.65803806  0.66860742
   0.75053155  0.74252989  0.75232618
   0.67232503  0.81862158  0.84532535
   0.58505690  0.91367414  0.91502571
   0.59142244  0.91682544  0.06787266
   0.50577338  0.98023133  0.14537892
   0.41234592  0.07266124  0.23370228
   0.34686166  0.14840968  0.33091063
   0.27320548  0.23448606  0.42234072
   0.16146283  0.34393865  0.45378306
   0.09265193  0.42012610  0.55902601
   0.00721529  0.50073067  0.67256175
   0.91181740  0.58998774  0.73164852
   0.81227514  0.66886272  0.85529680
   0.74594756  0.74366562  0.93207223
   0.67801142  0.83991787  0.00136145
   0.66852551  0.83184800  0.16910600
   0.59630193  0.90711504  0.25061688
   0.50152755  0.97681211  0.32601413
   0.43026648  0.06625812  0.42156274
   0.36623154  0.16587023  0.49242395
   0.23797314  0.25498620  0.55164583
   0.13597936  0.33821823  0.67905118
   0.08400792  0.41981820  0.77372558
   0.99365307  0.50485351  0.83945745
   0.91350703  0.57920752  0.92433396
   0.83605721  0.67136467  0.01705700
   0.76440275  0.77242663  0.10307938
   0.31783169  0.31322582  0.67728781
   0.23283176  0.40175761  0.75257443
   0.18202901  0.48947066  0.84175784
   0.10027099  0.57798607  0.92635545
   0.00430802  0.64696886  0.00359359
   0.91659535  0.74730429  0.09333334
   0.84438498  0.83814527  0.18650376
   0.76094273  0.90993907  0.25537817
   0.68223171  0.98665764  0.32783855
   0.59649192  0.06468146  0.41090563
   0.49397904  0.15299473  0.51129557
   0.40670592  0.25768139  0.56499947
   0.39219754  0.25520767  0.76441715
   0.34105329  0.34459007  0.81563506
   0.22163697  0.41098799  0.90384264
   0.17868892  0.48542420  0.01322719
   0.09268397  0.57842913  0.09807591
   0.00641810  0.68056955  0.17335595
   0.92921068  0.75031633  0.25859367
   0.82587511  0.79251016  0.35603699
   0.72697449  0.88726466  0.42897116
   0.66948192  0.01514945  0.51517475
   0.58436214  0.08693531  0.57093055
   0.49801258  0.18725809  0.64902487
   0.50940412  0.16939101  0.82617867
   0.43495386  0.24623702  0.91564464
   0.33611930  0.31139109  0.96307602
   0.25879387  0.41110434  0.08691628
   0.16065810  0.49533082  0.17625777
   0.10639614  0.60651129  0.26616577
   0.02290440  0.68546792  0.32152039
   0.95061431  0.72176507  0.43268093
   0.83305455  0.81202361  0.49205071
   0.73076956  0.90784377  0.58242319
   0.66703569  0.99448682  0.68011190
   0.57231803  0.07778583  0.72914503
   0.59013554  0.08806191  0.90013475
   0.49578860  0.16662498  0.97404740
   0.41778215  0.23658981  0.06455248
   0.33457240  0.30747120  0.17952172
   0.24518154  0.42407682  0.24494675
   0.16558984  0.49928878  0.34976990
   0.08706902  0.61359937  0.39752099
   0.03233965  0.67626442  0.50108187
   0.92595406  0.74613030  0.59174101
   0.82754386  0.80782478  0.64996822
   0.75065424  0.89807220  0.75228262
   0.68513534  0.02126466  0.81946570
   0.68501932  0.99610538  0.00770563
   0.58515557  0.06799239  0.06492823
   0.51650893  0.17098993  0.15885025
   0.41480225  0.24122755  0.26078127
   0.32789816  0.35067873  0.34600009
   0.26457737  0.41703857  0.40520761
   0.15816186  0.49273801  0.47363919
   0.10469332  0.56875374  0.57683313
   0.00148859  0.66674855  0.66668070
   0.88363198  0.72379355  0.75279042
   0.81740349  0.83166922  0.84791541
   0.74520993  0.92453695  0.89995220
   0.76307552  0.93296928  0.08760955
   0.65552002  0.98434538  0.17927943
   0.58592350  0.06683091  0.23735633
   0.51465413  0.16497272  0.34129833
   0.40534434  0.24645136  0.42430038
   0.32867669  0.33724080  0.50558948
   0.22248224  0.42418471  0.56294072
   0.16110991  0.48916735  0.69038068
   0.08847936  0.59039154  0.75264141
   0.99896325  0.63898067  0.83676258
   0.91962612  0.73190159  0.91053163
   0.84189098  0.82200728  0.98861911
   0.39114282  0.43043291  0.59657527
   0.33546837  0.51002208  0.66698213
   0.24809925  0.58089629  0.76034846
   0.16157038  0.67369649  0.82626925
   0.06752955  0.74487803  0.89938143
   0.98579542  0.83667925  0.98652646
   0.94433638  0.93565747  0.07261980
   0.85269698  0.00317557  0.19928961
   0.74489494  0.06646320  0.25850468
   0.64515999  0.14954765  0.33640245
   0.57319477  0.25945344  0.43720182
   0.48075094  0.33921403  0.50362905
   0.45741465  0.33024835  0.67421670
   0.40660313  0.42612449  0.73785997
   0.32771704  0.51269197  0.83261976
   0.23227529  0.60210508  0.90159483
   0.17661037  0.67389290  0.01533295
   0.08117509  0.76316326  0.08530514
   0.99267115  0.86023761  0.16128827
   0.90791495  0.89805847  0.27005206
   0.86118029  0.98899460  0.35992327
   0.75505714  0.07902697  0.41624099
   0.66641041  0.17619119  0.48647466
   0.56888659  0.27287008  0.58630530
   0.58166080  0.25489070  0.74543283
   0.51324135  0.34063053  0.83716233
   0.39507808  0.41323081  0.89332125
   0.30866298  0.50229886  0.97507334
   0.26818263  0.56864435  0.09204230
   0.14847641  0.68483275  0.14579180
   0.09159344  0.77440531  0.26017447
   0.00992920  0.83219990  0.33187521
   0.89505907  0.88230111  0.42569471
   0.82520173  0.99571211  0.49438523
   0.76717480  0.06841873  0.59265900
   0.65709584  0.18239142  0.65691717
   0.67938501  0.14022906  0.81321911
   0.58960844  0.24329818  0.91226171
   0.49202503  0.33666508  0.00785038
   0.40045629  0.42050896  0.08864971
   0.33567260  0.50182198  0.15153855
   0.24349844  0.60835440  0.25920234
   0.18413845  0.70821237  0.34194285
   0.09788716  0.75485971  0.44265630
   0.01477628  0.83077151  0.49964841
   0.93137341  0.90312512  0.57005109
   0.85629392  0.98532968  0.65937156
   0.77238008  0.09328197  0.71952571
   0.75034495  0.07677725  0.93963233
   0.65965878  0.16748942  0.01022009
   0.58040212  0.25983681  0.07699609
   0.49502408  0.32521810  0.17742570
   0.40537664  0.41939680  0.25172268
   0.33361865  0.49662774  0.34075922
   0.25880117  0.58797566  0.42343481
   0.17065675  0.67614505  0.50727441
   0.10372373  0.75125458  0.59675354
   0.00051267  0.83338319  0.68454015
   0.91791167  0.89548461  0.75951526
   0.82154051  0.98949833  0.80164798
   0.85117467  0.00844361  0.00637797
   0.76243749  0.07864952  0.09572874
   0.65239887  0.16374135  0.17046243
   0.58793342  0.25328092  0.24930079
   0.50221204  0.31931655  0.33886154
   0.39942936  0.41478463  0.42779224
   0.32325829  0.50627775  0.51153770
   0.21993767  0.56828392  0.58922740
   0.16547796  0.67291231  0.68972838
   0.07739792  0.74925117  0.73839078
   0.98210318  0.83546853  0.82598018
   0.90417061  0.91545312  0.91156145
