 504 504   0   0
  0.1982611E+02  0.2127286E-08  0.2105467E-08  0.2230970E-08  0.5000000E-15
  1.000000000000000E-004
  CAR 
 Li                                      
      3.50662567     -3.40639387  301      0.45267784      1.00000000
     -3.406  0.0000E+00  0.0000E+00
     -3.383  0.0000E+00  0.0000E+00
     -3.360  0.0000E+00  0.0000E+00
     -3.337  0.0000E+00  0.0000E+00
     -3.314  0.0000E+00  0.0000E+00
     -3.291  0.0000E+00  0.0000E+00
     -3.268  0.4818E-14  0.1110E-15
     -3.245  0.2351E-10  0.5420E-12
     -3.222  0.3857E-07  0.8894E-09
     -3.199  0.1997E-04  0.4611E-06
     -3.176  0.3294E-02  0.7636E-04
     -3.153  0.1752E+00  0.4114E-02
     -3.130  0.3058E+01  0.7458E-01
     -3.107  0.1785E+02  0.4860E+00
     -3.084  0.3546E+02  0.1303E+01
     -3.061  0.2425E+02  0.1862E+01
     -3.038  0.7454E+01  0.2034E+01
     -3.015  0.1534E+02  0.2387E+01
     -2.992  0.4893E+02  0.3514E+01
     -2.969  0.7985E+02  0.5355E+01
     -2.946  0.7377E+02  0.7054E+01
     -2.922  0.3504E+02  0.7862E+01
     -2.899  0.1674E+02  0.8247E+01
     -2.876  0.4205E+02  0.9216E+01
     -2.853  0.7712E+02  0.1099E+02
     -2.830  0.7721E+02  0.1277E+02
     -2.807  0.4460E+02  0.1380E+02
     -2.784  0.2792E+02  0.1444E+02
     -2.761  0.4897E+02  0.1557E+02
     -2.738  0.7799E+02  0.1737E+02
     -2.715  0.9761E+02  0.1962E+02
     -2.692  0.7629E+02  0.2138E+02
     -2.669  0.4728E+02  0.2247E+02
     -2.646  0.7056E+02  0.2409E+02
     -2.623  0.1083E+03  0.2659E+02
     -2.600  0.1266E+03  0.2950E+02
     -2.577  0.1150E+03  0.3215E+02
     -2.554  0.6458E+02  0.3364E+02
     -2.531  0.3445E+02  0.3443E+02
     -2.508  0.6071E+02  0.3583E+02
     -2.485  0.8737E+02  0.3785E+02
     -2.462  0.6827E+02  0.3942E+02
     -2.439  0.4324E+02  0.4042E+02
     -2.416  0.5700E+02  0.4173E+02
     -2.392  0.8740E+02  0.4374E+02
     -2.369  0.1104E+03  0.4629E+02
     -2.346  0.1230E+03  0.4912E+02
     -2.323  0.1170E+03  0.5182E+02
     -2.300  0.1055E+03  0.5425E+02
     -2.277  0.1152E+03  0.5691E+02
     -2.254  0.1362E+03  0.6004E+02
     -2.231  0.1552E+03  0.6362E+02
     -2.208  0.1500E+03  0.6708E+02
     -2.185  0.1078E+03  0.6956E+02
     -2.162  0.6690E+02  0.7110E+02
     -2.139  0.5124E+02  0.7229E+02
     -2.116  0.6284E+02  0.7373E+02
     -2.093  0.6956E+02  0.7534E+02
     -2.070  0.6393E+02  0.7681E+02
     -2.047  0.9140E+02  0.7892E+02
     -2.024  0.1270E+03  0.8184E+02
     -2.001  0.1391E+03  0.8505E+02
     -1.978  0.1353E+03  0.8817E+02
     -1.955  0.1254E+03  0.9106E+02
     -1.932  0.1127E+03  0.9365E+02
     -1.909  0.1184E+03  0.9638E+02
     -1.886  0.1359E+03  0.9951E+02
     -1.862  0.1611E+03  0.1032E+03
     -1.839  0.1724E+03  0.1072E+03
     -1.816  0.1347E+03  0.1103E+03
     -1.793  0.6856E+02  0.1119E+03
     -1.770  0.5505E+02  0.1132E+03
     -1.747  0.1028E+03  0.1155E+03
     -1.724  0.1370E+03  0.1187E+03
     -1.701  0.1345E+03  0.1218E+03
     -1.678  0.1334E+03  0.1249E+03
     -1.655  0.1536E+03  0.1284E+03
     -1.632  0.1614E+03  0.1321E+03
     -1.609  0.1568E+03  0.1357E+03
     -1.586  0.1526E+03  0.1392E+03
     -1.563  0.1359E+03  0.1424E+03
     -1.540  0.1265E+03  0.1453E+03
     -1.517  0.1291E+03  0.1483E+03
     -1.494  0.1456E+03  0.1516E+03
     -1.471  0.1600E+03  0.1553E+03
     -1.448  0.1362E+03  0.1584E+03
     -1.425  0.1059E+03  0.1609E+03
     -1.402  0.1092E+03  0.1634E+03
     -1.379  0.1197E+03  0.1662E+03
     -1.356  0.1086E+03  0.1687E+03
     -1.332  0.9473E+02  0.1708E+03
     -1.309  0.1197E+03  0.1736E+03
     -1.286  0.1491E+03  0.1770E+03
     -1.263  0.1436E+03  0.1803E+03
     -1.240  0.1406E+03  0.1836E+03
     -1.217  0.1599E+03  0.1873E+03
     -1.194  0.1628E+03  0.1910E+03
     -1.171  0.1649E+03  0.1948E+03
     -1.148  0.1929E+03  0.1993E+03
     -1.125  0.2193E+03  0.2043E+03
     -1.102  0.2175E+03  0.2093E+03
     -1.079  0.2010E+03  0.2140E+03
     -1.056  0.1842E+03  0.2182E+03
     -1.033  0.1705E+03  0.2221E+03
     -1.010  0.1582E+03  0.2258E+03
     -0.987  0.1411E+03  0.2290E+03
     -0.964  0.1110E+03  0.2316E+03
     -0.941  0.9643E+02  0.2338E+03
     -0.918  0.1299E+03  0.2368E+03
     -0.895  0.1605E+03  0.2405E+03
     -0.872  0.1568E+03  0.2441E+03
     -0.849  0.1590E+03  0.2478E+03
     -0.826  0.1787E+03  0.2519E+03
     -0.802  0.1919E+03  0.2563E+03
     -0.779  0.1883E+03  0.2607E+03
     -0.756  0.1746E+03  0.2647E+03
     -0.733  0.1549E+03  0.2682E+03
     -0.710  0.1215E+03  0.2710E+03
     -0.687  0.1039E+03  0.2734E+03
     -0.664  0.1394E+03  0.2767E+03
     -0.641  0.1738E+03  0.2807E+03
     -0.618  0.1723E+03  0.2846E+03
     -0.595  0.1731E+03  0.2886E+03
     -0.572  0.1850E+03  0.2929E+03
     -0.549  0.1987E+03  0.2975E+03
     -0.526  0.2171E+03  0.3025E+03
     -0.503  0.2237E+03  0.3076E+03
     -0.480  0.2168E+03  0.3126E+03
     -0.457  0.2083E+03  0.3174E+03
     -0.434  0.2105E+03  0.3223E+03
     -0.411  0.2152E+03  0.3272E+03
     -0.388  0.2092E+03  0.3320E+03
     -0.365  0.1949E+03  0.3365E+03
     -0.342  0.1738E+03  0.3405E+03
     -0.319  0.1578E+03  0.3442E+03
     -0.296  0.1658E+03  0.3480E+03
     -0.272  0.1753E+03  0.3520E+03
     -0.249  0.1719E+03  0.3560E+03
     -0.226  0.1694E+03  0.3599E+03
     -0.203  0.1831E+03  0.3641E+03
     -0.180  0.1890E+03  0.3685E+03
     -0.157  0.1816E+03  0.3727E+03
     -0.134  0.1805E+03  0.3768E+03
     -0.111  0.1920E+03  0.3812E+03
     -0.088  0.2011E+03  0.3859E+03
     -0.065  0.2154E+03  0.3908E+03
     -0.042  0.2310E+03  0.3962E+03
     -0.019  0.2363E+03  0.4016E+03
      0.004  0.2436E+03  0.4072E+03
      0.027  0.2401E+03  0.4128E+03
      0.050  0.2194E+03  0.4178E+03
      0.073  0.2165E+03  0.4228E+03
      0.096  0.2189E+03  0.4278E+03
      0.119  0.2097E+03  0.4327E+03
      0.142  0.2047E+03  0.4374E+03
      0.165  0.2053E+03  0.4421E+03
      0.188  0.2112E+03  0.4470E+03
      0.211  0.2055E+03  0.4517E+03
      0.234  0.1888E+03  0.4561E+03
      0.258  0.1786E+03  0.4602E+03
      0.281  0.1787E+03  0.4643E+03
      0.304  0.1888E+03  0.4687E+03
      0.327  0.2126E+03  0.4736E+03
      0.350  0.2310E+03  0.4789E+03
      0.373  0.2290E+03  0.4842E+03
      0.396  0.2387E+03  0.4897E+03
      0.419  0.2523E+03  0.4955E+03
      0.442  0.2509E+03  0.5013E+03
      0.465  0.2567E+03  0.5072E+03
      0.488  0.2644E+03  0.5133E+03
      0.511  0.2647E+03  0.5194E+03
      0.534  0.2664E+03  0.5255E+03
      0.557  0.2646E+03  0.5316E+03
      0.580  0.2632E+03  0.5377E+03
      0.603  0.2650E+03  0.5438E+03
      0.626  0.2636E+03  0.5498E+03
      0.649  0.2650E+03  0.5559E+03
      0.672  0.2601E+03  0.5619E+03
      0.695  0.2462E+03  0.5676E+03
      0.718  0.2292E+03  0.5729E+03
      0.741  0.2181E+03  0.5779E+03
      0.764  0.2233E+03  0.5831E+03
      0.788  0.2300E+03  0.5884E+03
      0.811  0.2180E+03  0.5934E+03
      0.834  0.2022E+03  0.5980E+03
      0.857  0.2016E+03  0.6027E+03
      0.880  0.2071E+03  0.6075E+03
      0.903  0.2089E+03  0.6123E+03
      0.926  0.2103E+03  0.6171E+03
      0.949  0.2058E+03  0.6219E+03
      0.972  0.2097E+03  0.6267E+03
      0.995  0.2162E+03  0.6317E+03
      1.018  0.2162E+03  0.6367E+03
      1.041  0.2236E+03  0.6418E+03
      1.064  0.2292E+03  0.6471E+03
      1.087  0.2326E+03  0.6525E+03
      1.110  0.2429E+03  0.6581E+03
      1.133  0.2430E+03  0.6637E+03
      1.156  0.2418E+03  0.6692E+03
      1.179  0.2477E+03  0.6749E+03
      1.202  0.2402E+03  0.6805E+03
      1.225  0.2295E+03  0.6858E+03
      1.248  0.2236E+03  0.6909E+03
      1.271  0.2153E+03  0.6959E+03
      1.294  0.2082E+03  0.7007E+03
      1.318  0.2060E+03  0.7054E+03
      1.341  0.2078E+03  0.7102E+03
      1.364  0.2102E+03  0.7151E+03
      1.387  0.2081E+03  0.7198E+03
      1.410  0.2044E+03  0.7246E+03
      1.433  0.1995E+03  0.7292E+03
      1.456  0.2045E+03  0.7339E+03
      1.479  0.2062E+03  0.7386E+03
      1.502  0.2027E+03  0.7433E+03
      1.525  0.2028E+03  0.7480E+03
      1.548  0.2059E+03  0.7527E+03
      1.571  0.2112E+03  0.7576E+03
      1.594  0.2102E+03  0.7624E+03
      1.617  0.2070E+03  0.7672E+03
      1.640  0.2046E+03  0.7719E+03
      1.663  0.2160E+03  0.7769E+03
      1.686  0.2261E+03  0.7821E+03
      1.709  0.2200E+03  0.7872E+03
      1.732  0.2088E+03  0.7920E+03
      1.755  0.2117E+03  0.7968E+03
      1.778  0.2150E+03  0.8018E+03
      1.801  0.2111E+03  0.8067E+03
      1.824  0.2165E+03  0.8117E+03
      1.848  0.2135E+03  0.8166E+03
      1.871  0.2026E+03  0.8212E+03
      1.894  0.2016E+03  0.8259E+03
      1.917  0.2069E+03  0.8307E+03
      1.940  0.2026E+03  0.8353E+03
      1.963  0.1894E+03  0.8397E+03
      1.986  0.1887E+03  0.8440E+03
      2.009  0.1962E+03  0.8486E+03
      2.032  0.2009E+03  0.8532E+03
      2.055  0.1988E+03  0.8578E+03
      2.078  0.1913E+03  0.8622E+03
      2.101  0.1830E+03  0.8664E+03
      2.124  0.1786E+03  0.8705E+03
      2.147  0.1842E+03  0.8748E+03
      2.170  0.1869E+03  0.8791E+03
      2.193  0.1727E+03  0.8830E+03
      2.216  0.1648E+03  0.8868E+03
      2.239  0.1712E+03  0.8908E+03
      2.262  0.1737E+03  0.8948E+03
      2.285  0.1750E+03  0.8988E+03
      2.308  0.1726E+03  0.9028E+03
      2.331  0.1602E+03  0.9065E+03
      2.354  0.1557E+03  0.9101E+03
      2.377  0.1591E+03  0.9137E+03
      2.401  0.1562E+03  0.9173E+03
      2.424  0.1470E+03  0.9207E+03
      2.447  0.1397E+03  0.9239E+03
      2.470  0.1417E+03  0.9272E+03
      2.493  0.1452E+03  0.9306E+03
      2.516  0.1432E+03  0.9339E+03
      2.539  0.1301E+03  0.9369E+03
      2.562  0.1276E+03  0.9398E+03
      2.585  0.1347E+03  0.9429E+03
      2.608  0.1411E+03  0.9461E+03
      2.631  0.1407E+03  0.9494E+03
      2.654  0.1402E+03  0.9526E+03
      2.677  0.1437E+03  0.9559E+03
      2.700  0.1489E+03  0.9594E+03
      2.723  0.1463E+03  0.9627E+03
      2.746  0.1426E+03  0.9660E+03
      2.769  0.1410E+03  0.9693E+03
      2.792  0.1334E+03  0.9723E+03
      2.815  0.1249E+03  0.9752E+03
      2.838  0.1276E+03  0.9782E+03
      2.861  0.1349E+03  0.9813E+03
      2.884  0.1224E+03  0.9841E+03
      2.907  0.1111E+03  0.9866E+03
      2.931  0.1123E+03  0.9892E+03
      2.954  0.1074E+03  0.9917E+03
      2.977  0.1129E+03  0.9943E+03
      3.000  0.1225E+03  0.9971E+03
      3.023  0.1201E+03  0.9999E+03
      3.046  0.9705E+02  0.1002E+04
      3.069  0.6186E+02  0.1004E+04
      3.092  0.4213E+02  0.1005E+04
      3.115  0.4530E+02  0.1006E+04
      3.138  0.5655E+02  0.1007E+04
      3.161  0.5690E+02  0.1008E+04
      3.184  0.4442E+02  0.1009E+04
      3.207  0.2519E+02  0.1010E+04
      3.230  0.7784E+01  0.1010E+04
      3.253  0.1036E+01  0.1010E+04
      3.276  0.5209E-01  0.1010E+04
      3.299  0.9158E-03  0.1010E+04
      3.322  0.5373E-05  0.1010E+04
      3.345  0.1022E-07  0.1010E+04
      3.368  0.6196E-11  0.1010E+04
      3.391  0.0000E+00  0.1010E+04
      3.414  0.0000E+00  0.1010E+04
      3.437  0.0000E+00  0.1010E+04
      3.461  0.0000E+00  0.1010E+04
      3.484  0.0000E+00  0.1010E+04
      3.507  0.0000E+00  0.1010E+04
