 running on   64 total cores
 distrk:  each k-point on   32 cores,    2 groups
 distr:  one band on   32 cores,    1 groups
 vasp.6.2.1 16May21 (build Nov 23 2021 15:40:41) complex                        
  
 POSCAR found type information on POSCAR Li
 POSCAR found :  1 types and     504 ions
 scaLAPACK will be used
 -----------------------------------------------------------------------------
|                                                                             |
|           W    W    AA    RRRRR   N    N  II  N    N   GGGG   !!!           |
|           W    W   A  A   R    R  NN   N  II  NN   N  G    G  !!!           |
|           W    W  A    A  R    R  N N  N  II  N N  N  G       !!!           |
|           W WW W  AAAAAA  RRRRR   N  N N  II  N  N N  G  GGG   !            |
|           WW  WW  A    A  R   R   N   NN  II  N   NN  G    G                |
|           W    W  A    A  R    R  N    N  II  N    N   GGGG   !!!           |
|                                                                             |
|     For optimal performance we recommend to set                             |
|       NCORE = 2 up to number-of-cores-per-socket                            |
|     NCORE specifies how many cores store one orbital (NPAR=cpu/NCORE).      |
|     This setting can greatly improve the performance of VASP for DFT.       |
|     The default, NCORE=1 might be grossly inefficient on modern             |
|     multi-core architectures or massively parallel machines. Do your        |
|     own testing! More info at https://www.vasp.at/wiki/index.php/NCORE      |
|     Unfortunately you need to use the default for GW and RPA                |
|     calculations (for HF NCORE is supported but not extensively tested      |
|     yet).                                                                   |
|                                                                             |
 -----------------------------------------------------------------------------

 -----------------------------------------------------------------------------
|                                                                             |
|               ----> ADVICE to this user running VASP <----                  |
|                                                                             |
|     You have a (more or less) 'large supercell' and for larger cells it     |
|     might be more efficient to use real-space projection operators.         |
|     Therefore, try LREAL= Auto in the INCAR file.                           |
|     Mind: If you want to do very accurate calculations, keep the            |
|     reciprocal projection scheme (i.e. LREAL=.FALSE.).                      |
|                                                                             |
 -----------------------------------------------------------------------------

 LDA part: xc-table for Pade appr. of Perdew
 POSCAR found type information on POSCAR Li
 POSCAR found :  1 types and     504 ions
 POSCAR, INCAR and KPOINTS ok, starting setup
 FFT: planning ...
 WAVECAR not read
 entering main loop
       N       E                     dE             d eps       ncg     rms          rms(c)
DAV:   1    -0.267571001991E+03   -0.26757E+03   -0.12315E+05  4040   0.658E+02
DAV:   2    -0.883326844516E+03   -0.61576E+03   -0.56307E+03  4644   0.682E+01
DAV:   3    -0.927396714604E+03   -0.44070E+02   -0.40199E+02  5208   0.144E+01
DAV:   4    -0.928919013957E+03   -0.15223E+01   -0.14969E+01  4728   0.291E+00
DAV:   5    -0.928954731525E+03   -0.35718E-01   -0.35646E-01  4872   0.472E-01    0.106E+01
DAV:   6    -0.921348318246E+03    0.76064E+01   -0.14648E+01  4648   0.523E+00    0.789E+00
DAV:   7    -0.916419713246E+03    0.49286E+01   -0.10897E+01  4744   0.463E+00    0.584E+00
DAV:   8    -0.912703689980E+03    0.37160E+01   -0.63492E+00  4656   0.304E+00    0.339E+00
DAV:   9    -0.912069927523E+03    0.63376E+00   -0.33979E+00  4616   0.189E+00    0.239E+00
DAV:  10    -0.911492784791E+03    0.57714E+00   -0.16138E+00  4632   0.128E+00    0.131E+00
DAV:  11    -0.911413601522E+03    0.79183E-01   -0.52143E-01  4376   0.580E-01    0.725E-01
DAV:  12    -0.911430829981E+03   -0.17228E-01   -0.10396E-01  4952   0.384E-01    0.659E-01
DAV:  13    -0.911389670006E+03    0.41160E-01   -0.54540E-02  4768   0.287E-01    0.342E-01
DAV:  14    -0.911386837206E+03    0.28328E-02   -0.20004E-02  4656   0.160E-01    0.222E-01
DAV:  15    -0.911384419229E+03    0.24180E-02   -0.11229E-02  4672   0.122E-01    0.146E-01
DAV:  16    -0.911382511878E+03    0.19074E-02   -0.41178E-03  4600   0.677E-02    0.639E-02
DAV:  17    -0.911382401792E+03    0.11009E-03   -0.12456E-03  4392   0.312E-02    0.348E-02
DAV:  18    -0.911382353905E+03    0.47887E-04   -0.28824E-04  4560   0.186E-02    0.233E-02
DAV:  19    -0.911382316047E+03    0.37858E-04   -0.93548E-05  4536   0.128E-02    0.161E-02
DAV:  20    -0.911382281082E+03    0.34964E-04   -0.43687E-05  4520   0.733E-03    0.618E-03
DAV:  21    -0.911382276858E+03    0.42242E-05   -0.18330E-05  2488   0.381E-03
   1 F= -.91138228E+03 E0= -.91132462E+03  d E =-.115307E+00
