Li                                      
           1
   -10.636430   18.422837    0.000000
   -18.233880  -10.527336    0.000000
    -0.000000    0.000000   22.309700
   Li
   504
Direct configuration=     1
   0.00402151  0.00220300  0.00752053
   0.92762466  0.04281568  0.63967455
   0.84730528  0.09026275  0.32216017
   0.78175372  0.12259460  0.99599838
   0.72051659  0.15829897  0.68263095
   0.64808927  0.21128651  0.32556190
   0.58315602  0.24752922  0.99212827
   0.50120497  0.28509005  0.65184726
   0.44006252  0.32143537  0.30087361
   0.36849938  0.38495664  0.01801740
   0.29736704  0.41857401  0.66418321
   0.22018903  0.46212686  0.34216539
   0.08330867  0.04103153  0.64928576
   0.00159524  0.08099592  0.33707177
   0.91742517  0.12270245  0.98233098
   0.85369398  0.15864911  0.64558453
   0.78460019  0.19613406  0.32016470
   0.71969914  0.24884606  0.00699777
   0.64562614  0.28719426  0.65169771
   0.56034408  0.33075464  0.31019818
   0.50643538  0.37552591  0.01900870
   0.43552670  0.43011490  0.65203777
   0.37455703  0.46855612  0.33162970
   0.28809437  0.49331538  0.01643093
   0.14327980  0.08169096  0.33611712
   0.06387548  0.12260145  0.00834326
   0.00727374  0.16004990  0.67056697
   0.92429294  0.20864675  0.33194685
   0.86096388  0.24090653  0.99910197
   0.79045058  0.28525780  0.65937160
   0.71621906  0.33204271  0.32587781
   0.63978060  0.36812399  0.01594662
   0.56979719  0.42484782  0.67480863
   0.50003414  0.44816855  0.32736969
   0.44307024  0.50321504  0.00328695
   0.35144527  0.53937763  0.67097202
   0.21802741  0.12662723  0.00637536
   0.14655524  0.16620885  0.66171420
   0.07070603  0.20867768  0.35849648
   0.99800932  0.24809073  0.98983494
   0.92101348  0.28366190  0.65533255
   0.85581807  0.32234821  0.31289889
   0.78316221  0.37926238  0.99160243
   0.70785672  0.42609516  0.67712594
   0.63676744  0.45497872  0.34054599
   0.57460183  0.49211314  0.00298791
   0.50015557  0.53456395  0.68906069
   0.43523829  0.58438681  0.32932231
   0.27610922  0.16408409  0.66835832
   0.21648592  0.21092273  0.32080559
   0.15279838  0.25440436  0.98762119
   0.07481396  0.28719217  0.68557677
   0.00394361  0.33829524  0.33823352
   0.91435635  0.36228751  0.96416263
   0.85839943  0.41192132  0.66541406
   0.78246265  0.45208882  0.33291785
   0.70991408  0.50782727  0.99477605
   0.63833990  0.54021179  0.67405278
   0.57346824  0.58246323  0.30280293
   0.49886089  0.62115711  0.02864018
   0.34691722  0.21264817  0.32021494
   0.28435345  0.24504188  0.01079091
   0.21364262  0.29232154  0.66476232
   0.13295770  0.33356233  0.35715819
   0.07314709  0.37022581  0.98929031
   0.00179857  0.41258947  0.66326982
   0.93380571  0.43791182  0.34955397
   0.86119982  0.48864331  0.98371611
   0.78428600  0.52955434  0.65421696
   0.72221035  0.58502589  0.34880737
   0.64656549  0.62501176  0.01604454
   0.56509044  0.66229255  0.67644761
   0.43467652  0.26200994  0.99845586
   0.36187287  0.29019839  0.69590035
   0.29370044  0.32826342  0.32360672
   0.21367667  0.37253613  0.00024969
   0.14403481  0.41784014  0.67587132
   0.07688975  0.45864029  0.32236394
   0.00828469  0.50067577  0.99576512
   0.93028739  0.53847025  0.67341134
   0.85537877  0.57820466  0.32319312
   0.78665030  0.62122032  0.97818632
   0.71667489  0.66374980  0.65413640
   0.64149177  0.70277410  0.36475119
   0.15092085  0.50086166  0.99711924
   0.08166570  0.54169857  0.66460990
   0.01053435  0.59040634  0.34362081
   0.94304714  0.62043101  0.97592488
   0.86585046  0.66567815  0.67982052
   0.79385766  0.69897496  0.33793702
   0.72267944  0.74040203  0.02320024
   0.23291188  0.54668687  0.64094099
   0.14699591  0.57948114  0.32497305
   0.08958120  0.61793149  0.97758125
   0.00334050  0.66673066  0.67890593
   0.94107912  0.70917329  0.33772348
   0.86984176  0.74113335  0.00437161
   0.80179541  0.78975778  0.65284835
   0.28221666  0.57944241  0.31107665
   0.21576272  0.61997581  0.01188133
   0.15797066  0.67937576  0.66455829
   0.08976356  0.70628004  0.33561759
   0.00716942  0.74845386  0.98239870
   0.93746503  0.79132818  0.67852954
   0.87273872  0.84192356  0.33890837
   0.36083804  0.61810997  0.02083931
   0.28700020  0.66282805  0.67259569
   0.21341777  0.70659122  0.31265870
   0.15479911  0.74694034  0.00287506
   0.08079046  0.77885050  0.67585557
   0.01154408  0.82078134  0.35161561
   0.93023213  0.88205717  0.98509260
   0.43038781  0.66005345  0.65787163
   0.36505443  0.70171639  0.33592919
   0.28217791  0.74401189  0.02745309
   0.20928195  0.78803374  0.67262690
   0.14420254  0.82592363  0.31600884
   0.07514426  0.87288076  0.98140786
   0.00424871  0.90400206  0.64990819
   0.92534206  0.96257119  0.35152327
   0.85541822  0.00540207  0.00938220
   0.78803671  0.04063223  0.65745444
   0.71482602  0.08196098  0.32270441
   0.64292659  0.12738008  0.98870728
   0.57554712  0.16912064  0.67047155
   0.49323279  0.21105260  0.33119492
   0.07786611  0.96142604  0.35578490
   0.14836745  0.99833205  0.99903944
   0.20640656  0.03950861  0.67633320
   0.28705232  0.07811098  0.35910113
   0.34719878  0.12156525  0.97762111
   0.42665063  0.16295366  0.67264328
   0.85687115  0.92279753  0.67181166
   0.79391868  0.95721133  0.34821281
   0.71319072  0.99816518  0.01964753
   0.63941504  0.03866357  0.66813633
   0.57214578  0.08319836  0.31728942
   0.50030193  0.12468616  0.00381581
   0.14275654  0.91636019  0.67051719
   0.21433079  0.95275480  0.35276762
   0.28023668  0.99227114  0.00541119
   0.35967278  0.03684143  0.67921693
   0.43137536  0.07914849  0.34068321
   0.78571938  0.88038073  0.99491372
   0.72496431  0.92192423  0.64914273
   0.65389520  0.95624301  0.30009858
   0.57038554  0.98793659  0.98022332
   0.49886249  0.03495396  0.64241338
   0.22286230  0.86676544  0.00281463
   0.27911261  0.90975740  0.66954620
   0.35550478  0.96616252  0.32259413
   0.43496692  0.99407413  0.00744283
   0.72092485  0.83328727  0.34542381
   0.65861523  0.86938298  0.01338336
   0.57124429  0.91381507  0.62972661
   0.49701112  0.95655403  0.35511160
   0.28791446  0.83492756  0.33929682
   0.35832451  0.87096438  0.00729061
   0.42849935  0.91584427  0.67320081
   0.64224249  0.78966598  0.64912658
   0.57205821  0.83984403  0.34833223
   0.50416588  0.87729463  0.99566073
   0.35749798  0.78681382  0.67247238
   0.42196696  0.82338698  0.34149602
   0.58040995  0.74532977  0.01466382
   0.50865253  0.78978861  0.65670336
   0.42892638  0.75311685  0.02063139
   0.49958593  0.70363573  0.32164213
   0.99816222  0.00043195  0.74285276
   0.91105094  0.04168502  0.43725208
   0.88211874  0.08726167  0.10959270
   0.79813639  0.12703063  0.77492094
   0.71929081  0.13805252  0.43518478
   0.64120520  0.23045308  0.09936702
   0.57087979  0.26398166  0.77139889
   0.49030374  0.27846571  0.43533183
   0.44030149  0.34198543  0.12267838
   0.36403582  0.38562867  0.76117562
   0.28921878  0.43231892  0.44723420
   0.21849676  0.45143676  0.11005859
   0.06061419  0.05193062  0.47763187
   0.01128907  0.07988327  0.09677476
   0.92726852  0.11711417  0.75060377
   0.84568076  0.15570430  0.45241108
   0.79888478  0.22108820  0.11692693
   0.73430348  0.25098276  0.76778088
   0.64163716  0.27074097  0.43194208
   0.58476248  0.33338659  0.11336648
   0.50601406  0.37568719  0.77595495
   0.40577250  0.41495549  0.43304109
   0.36927208  0.46822090  0.10842857
   0.28548658  0.49510868  0.77183352
   0.14029021  0.06354885  0.12103034
   0.06283811  0.13270280  0.78187389
   0.98919253  0.18587877  0.46290983
   0.94010821  0.21281849  0.10386865
   0.86926841  0.23578355  0.76540413
   0.76364439  0.29111600  0.41908199
   0.71160691  0.34485380  0.12061579
   0.64743081  0.37862418  0.78729304
   0.54805518  0.40559954  0.44361135
   0.49565399  0.46062976  0.09267598
   0.44304924  0.50996764  0.79728924
   0.37399732  0.54012430  0.42641893
   0.20832175  0.11669747  0.78356528
   0.15899358  0.17029946  0.46961612
   0.06391720  0.20539806  0.11082846
   0.99897049  0.25841530  0.75848413
   0.90971597  0.28795741  0.43339995
   0.84991257  0.33335753  0.10742200
   0.78892915  0.37296717  0.77431749
   0.70849252  0.40335856  0.45818755
   0.64832914  0.47138508  0.10228583
   0.57401162  0.51960545  0.78648875
   0.48828045  0.52522396  0.40983696
   0.42791954  0.59183832  0.12720074
   0.29214408  0.16650520  0.43013182
   0.20287721  0.20270164  0.11008298
   0.14479280  0.25861709  0.78433433
   0.07755336  0.27701216  0.46511944
   0.00290784  0.32663514  0.11453046
   0.94564086  0.37347646  0.78239685
   0.85276896  0.41918853  0.44412074
   0.78632774  0.44054485  0.10485227
   0.70952040  0.49709457  0.79344447
   0.64349979  0.53093463  0.45949239
   0.55214312  0.59585645  0.14103499
   0.51539524  0.65212487  0.78158560
   0.35545571  0.23488403  0.10593712
   0.27252291  0.26867503  0.77874479
   0.23448471  0.27674157  0.44988055
   0.13617253  0.32742648  0.10526263
   0.08636238  0.38239576  0.76546395
   0.99538936  0.39918033  0.43583481
   0.92121641  0.46161691  0.09766916
   0.85396144  0.49977177  0.79093922
   0.79412284  0.50438380  0.44418423
   0.70074543  0.57237124  0.08784479
   0.64489342  0.63551891  0.77555579
   0.55821950  0.65809707  0.42982478
   0.42956971  0.25744461  0.79903774
   0.34282073  0.28666480  0.44229104
   0.29642378  0.32636602  0.10357096
   0.23395591  0.39961655  0.77305876
   0.14120760  0.42826897  0.45330790
   0.07574705  0.46726034  0.12432302
   0.00757453  0.50275574  0.77878380
   0.92923603  0.54102342  0.46966208
   0.83521273  0.58480327  0.10328122
   0.76870392  0.62885592  0.76738802
   0.70074125  0.65880720  0.45252673
   0.61831243  0.71372631  0.11507248
   0.15065999  0.51877954  0.79057209
   0.07412109  0.52919583  0.45282480
   0.99233015  0.58420928  0.09043144
   0.94345156  0.62718674  0.79163250
   0.85139184  0.66189230  0.44432204
   0.76880588  0.70645924  0.11957960
   0.71973879  0.76935216  0.76233490
   0.21635479  0.54119016  0.43483489
   0.14167435  0.58660366  0.12451171
   0.07103717  0.62695260  0.77472511
   0.98602310  0.65784477  0.45302158
   0.91448151  0.72700609  0.06828629
   0.84561465  0.75147619  0.78113978
   0.79693784  0.77009651  0.45951924
   0.27997452  0.59073507  0.13529665
   0.22583378  0.62039322  0.76333748
   0.11655103  0.66149616  0.42166284
   0.06402389  0.71491614  0.11290764
   0.99046614  0.74457826  0.79007776
   0.91640447  0.79525293  0.44195160
   0.85013329  0.82980193  0.10068940
   0.38045773  0.62928964  0.78159076
   0.26752024  0.66955678  0.44264494
   0.22073538  0.72079842  0.13854070
   0.13613209  0.74793757  0.77324523
   0.06302644  0.80300210  0.43785297
   0.00252468  0.82484645  0.10771438
   0.93290825  0.89312490  0.76945640
   0.42743745  0.65849434  0.42044679
   0.35431342  0.71771929  0.14044866
   0.28411016  0.74060338  0.77784203
   0.18377527  0.79365235  0.44884384
   0.15201472  0.83437492  0.11961932
   0.05353631  0.87808484  0.76594200
   0.00349473  0.93854851  0.47290087
   0.92208511  0.95520298  0.11532132
   0.84704190  0.00588767  0.80198716
   0.76583758  0.02673627  0.40725730
   0.73174468  0.09198123  0.12472096
   0.64331538  0.13091325  0.77613558
   0.57576680  0.15020620  0.42546713
   0.50126669  0.21738814  0.11698294
   0.06418026  0.95324903  0.10725684
   0.14072720  0.01194960  0.77878977
   0.21531987  0.04285210  0.44057699
   0.29269596  0.08996548  0.11308069
   0.36476392  0.12180741  0.78439293
   0.43668118  0.15885775  0.43515049
   0.85362386  0.91487281  0.43818105
   0.78888690  0.94905905  0.10114636
   0.71317198  0.99890411  0.76423974
   0.64102678  0.00866897  0.43259231
   0.57640900  0.11174809  0.09043239
   0.50952105  0.12767383  0.77036905
   0.12313169  0.92555509  0.45341986
   0.22051620  0.96110980  0.10664829
   0.27296912  0.99289995  0.77855462
   0.37493999  0.03501900  0.44584550
   0.43478662  0.08356753  0.12044329
   0.76858497  0.88693171  0.77068182
   0.71479736  0.89679704  0.42893151
   0.65016783  0.97658239  0.12089025
   0.56503188  0.01043434  0.79096272
   0.49961362  0.02635621  0.43870466
   0.20468056  0.86795404  0.78700291
   0.28111623  0.91941494  0.46045413
   0.34921240  0.95792777  0.12642429
   0.42674811  0.99943180  0.76976567
   0.71230524  0.82249127  0.11255319
   0.63969990  0.88775435  0.77441336
   0.57981384  0.90689449  0.42137099
   0.49922627  0.95160192  0.12202588
   0.29355811  0.83408397  0.12565186
   0.35261980  0.87601209  0.79002449
   0.43247584  0.90065382  0.44428028
   0.64333276  0.77183290  0.43598612
   0.56293029  0.82887271  0.11440786
   0.50747499  0.88246911  0.78174068
   0.34600556  0.78526382  0.46445839
   0.42371201  0.82365573  0.11728171
   0.56823231  0.77821185  0.76776799
   0.50023628  0.78770640  0.45158512
   0.43833694  0.76580759  0.79303213
   0.49780404  0.70680407  0.12658682
   0.99211659  0.98981708  0.21763985
   0.91480207  0.03895101  0.89482516
   0.81869442  0.09139140  0.52017640
   0.78054309  0.13832363  0.19890169
   0.70576844  0.17248696  0.86024694
   0.63460202  0.18733942  0.54625489
   0.56446362  0.24773799  0.24521587
   0.50549605  0.29863304  0.90518165
   0.43133020  0.33029362  0.58554852
   0.35978276  0.37629246  0.21144764
   0.29190190  0.41928687  0.90577003
   0.21779062  0.46514705  0.53679500
   0.05442299  0.04562757  0.89069908
   0.98086156  0.06703320  0.55890953
   0.92680219  0.13135950  0.20817350
   0.86809108  0.17453350  0.88828401
   0.75758142  0.20022393  0.54098993
   0.70782605  0.25905045  0.21550208
   0.64807794  0.28926707  0.90055793
   0.55589055  0.31098835  0.55857110
   0.51398712  0.37628669  0.20153151
   0.44407653  0.41596203  0.87664789
   0.37205661  0.46142369  0.56060686
   0.28551763  0.50186704  0.22174738
   0.14254502  0.08513573  0.56413439
   0.06876571  0.11563845  0.21754466
   0.98684518  0.17044728  0.88601069
   0.90616380  0.21052139  0.56655112
   0.86696603  0.28626722  0.19260089
   0.80307406  0.29657339  0.89706863
   0.70657328  0.32610535  0.55938546
   0.65937209  0.39663483  0.22028897
   0.58119955  0.42537192  0.88811553
   0.49629248  0.44529928  0.54047940
   0.42647882  0.50185336  0.19784434
   0.34728820  0.55059378  0.89928792
   0.21555734  0.11343557  0.25116909
   0.12781766  0.17621328  0.89401680
   0.07092622  0.21153082  0.57590398
   0.00569090  0.25445211  0.22778404
   0.94561251  0.29099807  0.87031137
   0.84244214  0.33752440  0.53846937
   0.79739211  0.39369821  0.22181876
   0.72824521  0.43410080  0.89866520
   0.64475866  0.45034176  0.56698762
   0.58747615  0.49886765  0.21438058
   0.51068221  0.55763081  0.88081153
   0.42996904  0.56539512  0.56059574
   0.27702429  0.16516306  0.88926040
   0.23442901  0.21123122  0.56102267
   0.12856172  0.25098229  0.24958082
   0.07128174  0.32047494  0.90068089
   0.97579535  0.33621116  0.57335012
   0.91258911  0.39611603  0.21430214
   0.86518967  0.43113287  0.89347269
   0.78596147  0.44254461  0.55065731
   0.72811955  0.51012524  0.22736210
   0.65343244  0.54876917  0.87890811
   0.57343970  0.55518131  0.56838463
   0.49125608  0.62692397  0.21750571
   0.37301426  0.19571683  0.57645281
   0.28059670  0.23994485  0.22467263
   0.20919744  0.31340710  0.91602459
   0.15508587  0.33383185  0.54521640
   0.07172906  0.37752863  0.22525668
   0.01728021  0.43500690  0.88684033
   0.92534711  0.46195373  0.55206286
   0.83933440  0.51656521  0.20753989
   0.78992496  0.55282902  0.87958728
   0.71772318  0.57260073  0.56990634
   0.64935222  0.61082624  0.21768563
   0.58355222  0.67478059  0.90407575
   0.43171704  0.25567656  0.19778155
   0.35447735  0.30330724  0.88944627
   0.28719611  0.34176791  0.56622628
   0.19254564  0.35563834  0.23308924
   0.13565571  0.43583722  0.86916471
   0.06217526  0.45978442  0.55946254
   0.98881634  0.52246463  0.22303044
   0.92330139  0.55442910  0.88600318
   0.85155671  0.57826378  0.57630871
   0.78847748  0.63226712  0.23131511
   0.71821888  0.67616180  0.88061169
   0.63100686  0.67630494  0.54043011
   0.14361783  0.50281037  0.21992885
   0.06923615  0.55163912  0.87803638
   0.00214228  0.57989671  0.55610738
   0.90777437  0.62852776  0.20432581
   0.85235497  0.67298593  0.86113049
   0.79152250  0.69835893  0.57749124
   0.71088647  0.74033506  0.24244611
   0.21743065  0.54942587  0.89669416
   0.13941184  0.58369145  0.55584502
   0.07758983  0.63030208  0.22494309
   0.99687473  0.66990667  0.89313485
   0.92241513  0.71686942  0.56673894
   0.85350909  0.75423846  0.22947462
   0.76297231  0.81167712  0.89530305
   0.28748158  0.58402759  0.55427715
   0.19863697  0.62797159  0.22289854
   0.15882565  0.65945395  0.89467726
   0.05862814  0.71878701  0.56655255
   0.00146015  0.74682245  0.21505092
   0.91569820  0.78877701  0.86655541
   0.85139938  0.83731865  0.56871346
   0.35498191  0.61704418  0.21327095
   0.31772807  0.65832276  0.88452455
   0.19166394  0.70296172  0.56213200
   0.14804593  0.75508232  0.20239411
   0.06447362  0.79173527  0.89083921
   0.99596025  0.85158481  0.55095583
   0.92041951  0.87084902  0.22620328
   0.43944273  0.67946677  0.90266068
   0.35746408  0.69262472  0.54226576
   0.30745733  0.74727120  0.21889301
   0.23463918  0.77653032  0.89122646
   0.13059967  0.84351439  0.57314904
   0.07951624  0.86987096  0.22802189
   0.98659517  0.90566797  0.86858238
   0.91358110  0.96102733  0.54701255
   0.85870928  0.00564417  0.21958316
   0.78237090  0.05596278  0.89582688
   0.68724112  0.05586092  0.55966193
   0.63872759  0.13356401  0.20689317
   0.55957152  0.17341859  0.87013854
   0.50930122  0.19769879  0.54305773
   0.08204051  0.96977293  0.55901381
   0.13624596  0.98317935  0.24419335
   0.21058366  0.04948464  0.89023599
   0.29575128  0.07249453  0.56248275
   0.35065832  0.14148122  0.24150557
   0.43316733  0.16993153  0.88534489
   0.85054749  0.91226039  0.89364990
   0.76302341  0.97276981  0.54363474
   0.71236315  0.00809680  0.21566846
   0.63345306  0.05751383  0.88825460
   0.55875869  0.07263731  0.55270404
   0.49718701  0.13118111  0.22512324
   0.15044880  0.91183772  0.87856060
   0.21177391  0.96279904  0.56925033
   0.28004999  0.01448887  0.23391020
   0.33812280  0.04260953  0.88168131
   0.43008622  0.07730850  0.55280363
   0.79130168  0.86973398  0.22149251
   0.71685660  0.92212072  0.90160350
   0.63588880  0.93521402  0.55064351
   0.56618925  0.01730664  0.20980849
   0.48588053  0.05711839  0.90072873
   0.24532505  0.88771829  0.22793073
   0.28898169  0.91028711  0.88884247
   0.35923885  0.95750426  0.55979212
   0.41907471  0.00389972  0.25742161
   0.71149279  0.82638219  0.53905394
   0.64057031  0.87094974  0.24542099
   0.56695260  0.92311282  0.90224491
   0.50711141  0.93825774  0.53874906
   0.28504880  0.83701507  0.56717880
   0.36641175  0.87940906  0.21685886
   0.42511629  0.92890717  0.87114483
   0.64736103  0.81470470  0.90479245
   0.58239313  0.80287824  0.52336219
   0.48876346  0.86778005  0.23856716
   0.36963517  0.80780915  0.91156612
   0.43120306  0.82011508  0.56110776
   0.57121588  0.74696325  0.23037192
   0.51287715  0.80290319  0.90331402
   0.42170064  0.74318503  0.23068881
   0.49360130  0.69306054  0.56795967
