 504 504   0   0
  0.1982611E+02  0.2127286E-08  0.2105467E-08  0.2230970E-08  0.5000000E-15
  1.000000000000000E-004
  CAR 
 Li                                      
      3.55259294     -3.41320850  301      0.46058231      1.00000000
     -3.413  0.0000E+00  0.0000E+00
     -3.390  0.0000E+00  0.0000E+00
     -3.367  0.0000E+00  0.0000E+00
     -3.344  0.0000E+00  0.0000E+00
     -3.320  0.0000E+00  0.0000E+00
     -3.297  0.0000E+00  0.0000E+00
     -3.274  0.4781E-14  0.1110E-15
     -3.251  0.1600E-10  0.3717E-12
     -3.227  0.2923E-07  0.6790E-09
     -3.204  0.1654E-04  0.3848E-06
     -3.181  0.2929E-02  0.6841E-04
     -3.158  0.1645E+00  0.3887E-02
     -3.135  0.2978E+01  0.7303E-01
     -3.111  0.1775E+02  0.4851E+00
     -3.088  0.3545E+02  0.1308E+01
     -3.065  0.2397E+02  0.1865E+01
     -3.042  0.6495E+01  0.2016E+01
     -3.018  0.1200E+02  0.2294E+01
     -2.995  0.4879E+02  0.3427E+01
     -2.972  0.8888E+02  0.5491E+01
     -2.949  0.7525E+02  0.7238E+01
     -2.926  0.2893E+02  0.7910E+01
     -2.902  0.1253E+02  0.8201E+01
     -2.879  0.4095E+02  0.9152E+01
     -2.856  0.8460E+02  0.1112E+02
     -2.833  0.8138E+02  0.1301E+02
     -2.810  0.3772E+02  0.1388E+02
     -2.786  0.2155E+02  0.1438E+02
     -2.763  0.4989E+02  0.1554E+02
     -2.740  0.8821E+02  0.1759E+02
     -2.717  0.1032E+03  0.1998E+02
     -2.693  0.6819E+02  0.2157E+02
     -2.670  0.3612E+02  0.2241E+02
     -2.647  0.6691E+02  0.2396E+02
     -2.624  0.1201E+03  0.2675E+02
     -2.601  0.1429E+03  0.3007E+02
     -2.577  0.1141E+03  0.3271E+02
     -2.554  0.4925E+02  0.3386E+02
     -2.531  0.2646E+02  0.3447E+02
     -2.508  0.6177E+02  0.3591E+02
     -2.484  0.9309E+02  0.3807E+02
     -2.461  0.6782E+02  0.3964E+02
     -2.438  0.4121E+02  0.4060E+02
     -2.415  0.5925E+02  0.4197E+02
     -2.392  0.8933E+02  0.4405E+02
     -2.368  0.1160E+03  0.4674E+02
     -2.345  0.1287E+03  0.4973E+02
     -2.322  0.1097E+03  0.5228E+02
     -2.299  0.9506E+02  0.5448E+02
     -2.275  0.1140E+03  0.5713E+02
     -2.252  0.1554E+03  0.6074E+02
     -2.229  0.1788E+03  0.6489E+02
     -2.206  0.1445E+03  0.6825E+02
     -2.183  0.8140E+02  0.7014E+02
     -2.159  0.5339E+02  0.7138E+02
     -2.136  0.5208E+02  0.7259E+02
     -2.113  0.6546E+02  0.7411E+02
     -2.090  0.6607E+02  0.7564E+02
     -2.066  0.6426E+02  0.7713E+02
     -2.043  0.9305E+02  0.7929E+02
     -2.020  0.1264E+03  0.8223E+02
     -1.997  0.1515E+03  0.8574E+02
     -1.974  0.1473E+03  0.8916E+02
     -1.950  0.1148E+03  0.9183E+02
     -1.927  0.1043E+03  0.9425E+02
     -1.904  0.1189E+03  0.9701E+02
     -1.881  0.1473E+03  0.1004E+03
     -1.858  0.1872E+03  0.1048E+03
     -1.834  0.1785E+03  0.1089E+03
     -1.811  0.1019E+03  0.1113E+03
     -1.788  0.3829E+02  0.1122E+03
     -1.765  0.5397E+02  0.1134E+03
     -1.741  0.1165E+03  0.1161E+03
     -1.718  0.1464E+03  0.1195E+03
     -1.695  0.1286E+03  0.1225E+03
     -1.672  0.1340E+03  0.1256E+03
     -1.649  0.1577E+03  0.1293E+03
     -1.625  0.1660E+03  0.1331E+03
     -1.602  0.1738E+03  0.1372E+03
     -1.579  0.1517E+03  0.1407E+03
     -1.556  0.1166E+03  0.1434E+03
     -1.532  0.1214E+03  0.1462E+03
     -1.509  0.1455E+03  0.1496E+03
     -1.486  0.1650E+03  0.1534E+03
     -1.463  0.1587E+03  0.1571E+03
     -1.440  0.1166E+03  0.1598E+03
     -1.416  0.9349E+02  0.1620E+03
     -1.393  0.1012E+03  0.1644E+03
     -1.370  0.1039E+03  0.1668E+03
     -1.347  0.9835E+02  0.1691E+03
     -1.323  0.1079E+03  0.1716E+03
     -1.300  0.1384E+03  0.1748E+03
     -1.277  0.1465E+03  0.1782E+03
     -1.254  0.1381E+03  0.1814E+03
     -1.231  0.1510E+03  0.1849E+03
     -1.207  0.1633E+03  0.1887E+03
     -1.184  0.1641E+03  0.1925E+03
     -1.161  0.1739E+03  0.1965E+03
     -1.138  0.2042E+03  0.2013E+03
     -1.114  0.2313E+03  0.2066E+03
     -1.091  0.2177E+03  0.2117E+03
     -1.068  0.1851E+03  0.2160E+03
     -1.045  0.1739E+03  0.2200E+03
     -1.022  0.1708E+03  0.2240E+03
     -0.998  0.1563E+03  0.2276E+03
     -0.975  0.1238E+03  0.2305E+03
     -0.952  0.9060E+02  0.2326E+03
     -0.929  0.1030E+03  0.2350E+03
     -0.906  0.1481E+03  0.2384E+03
     -0.882  0.1661E+03  0.2423E+03
     -0.859  0.1551E+03  0.2459E+03
     -0.836  0.1565E+03  0.2495E+03
     -0.813  0.1690E+03  0.2535E+03
     -0.789  0.1929E+03  0.2579E+03
     -0.766  0.1959E+03  0.2625E+03
     -0.743  0.1711E+03  0.2665E+03
     -0.720  0.1392E+03  0.2697E+03
     -0.697  0.1108E+03  0.2723E+03
     -0.673  0.1284E+03  0.2752E+03
     -0.650  0.1704E+03  0.2792E+03
     -0.627  0.1661E+03  0.2830E+03
     -0.604  0.1510E+03  0.2866E+03
     -0.580  0.1602E+03  0.2903E+03
     -0.557  0.1793E+03  0.2944E+03
     -0.534  0.2111E+03  0.2993E+03
     -0.511  0.2424E+03  0.3050E+03
     -0.488  0.2285E+03  0.3103E+03
     -0.464  0.1953E+03  0.3148E+03
     -0.441  0.2037E+03  0.3195E+03
     -0.418  0.2289E+03  0.3249E+03
     -0.395  0.2336E+03  0.3303E+03
     -0.371  0.2083E+03  0.3351E+03
     -0.348  0.1767E+03  0.3392E+03
     -0.325  0.1437E+03  0.3426E+03
     -0.302  0.1431E+03  0.3459E+03
     -0.279  0.1750E+03  0.3499E+03
     -0.255  0.1824E+03  0.3542E+03
     -0.232  0.1569E+03  0.3578E+03
     -0.209  0.1494E+03  0.3613E+03
     -0.186  0.1805E+03  0.3655E+03
     -0.163  0.2029E+03  0.3702E+03
     -0.139  0.1972E+03  0.3748E+03
     -0.116  0.1926E+03  0.3792E+03
     -0.093  0.1968E+03  0.3838E+03
     -0.070  0.1937E+03  0.3883E+03
     -0.046  0.2054E+03  0.3931E+03
     -0.023  0.2442E+03  0.3987E+03
      0.000  0.2726E+03  0.4051E+03
      0.023  0.2618E+03  0.4112E+03
      0.046  0.2289E+03  0.4165E+03
      0.070  0.2013E+03  0.4211E+03
      0.093  0.1928E+03  0.4256E+03
      0.116  0.2031E+03  0.4303E+03
      0.139  0.2179E+03  0.4354E+03
      0.163  0.2141E+03  0.4404E+03
      0.186  0.2096E+03  0.4452E+03
      0.209  0.2113E+03  0.4501E+03
      0.232  0.2016E+03  0.4548E+03
      0.255  0.1820E+03  0.4590E+03
      0.279  0.1658E+03  0.4629E+03
      0.302  0.1677E+03  0.4668E+03
      0.325  0.1918E+03  0.4712E+03
      0.348  0.2131E+03  0.4762E+03
      0.372  0.2221E+03  0.4814E+03
      0.395  0.2342E+03  0.4868E+03
      0.418  0.2494E+03  0.4926E+03
      0.441  0.2640E+03  0.4987E+03
      0.464  0.2735E+03  0.5051E+03
      0.488  0.2790E+03  0.5115E+03
      0.511  0.2806E+03  0.5181E+03
      0.534  0.2795E+03  0.5245E+03
      0.557  0.2840E+03  0.5311E+03
      0.581  0.2852E+03  0.5378E+03
      0.604  0.2845E+03  0.5444E+03
      0.627  0.2801E+03  0.5509E+03
      0.650  0.2671E+03  0.5571E+03
      0.673  0.2522E+03  0.5629E+03
      0.697  0.2363E+03  0.5684E+03
      0.720  0.2306E+03  0.5738E+03
      0.743  0.2361E+03  0.5793E+03
      0.766  0.2259E+03  0.5845E+03
      0.789  0.2034E+03  0.5892E+03
      0.813  0.1974E+03  0.5938E+03
      0.836  0.2097E+03  0.5987E+03
      0.859  0.2171E+03  0.6037E+03
      0.882  0.2109E+03  0.6086E+03
      0.906  0.1968E+03  0.6132E+03
      0.929  0.1953E+03  0.6177E+03
      0.952  0.2078E+03  0.6225E+03
      0.975  0.2043E+03  0.6273E+03
      0.998  0.1939E+03  0.6318E+03
      1.022  0.1991E+03  0.6364E+03
      1.045  0.2212E+03  0.6415E+03
      1.068  0.2426E+03  0.6472E+03
      1.091  0.2476E+03  0.6529E+03
      1.115  0.2362E+03  0.6584E+03
      1.138  0.2276E+03  0.6637E+03
      1.161  0.2400E+03  0.6693E+03
      1.184  0.2465E+03  0.6750E+03
      1.207  0.2382E+03  0.6805E+03
      1.231  0.2304E+03  0.6859E+03
      1.254  0.2214E+03  0.6910E+03
      1.277  0.2150E+03  0.6960E+03
      1.300  0.2094E+03  0.7009E+03
      1.324  0.2160E+03  0.7059E+03
      1.347  0.2285E+03  0.7112E+03
      1.370  0.2292E+03  0.7165E+03
      1.393  0.2256E+03  0.7217E+03
      1.416  0.2208E+03  0.7269E+03
      1.440  0.2091E+03  0.7317E+03
      1.463  0.2015E+03  0.7364E+03
      1.486  0.1966E+03  0.7410E+03
      1.509  0.1906E+03  0.7454E+03
      1.533  0.2008E+03  0.7501E+03
      1.556  0.2138E+03  0.7550E+03
      1.579  0.2120E+03  0.7599E+03
      1.602  0.2093E+03  0.7648E+03
      1.625  0.2139E+03  0.7698E+03
      1.649  0.2307E+03  0.7751E+03
      1.672  0.2359E+03  0.7806E+03
      1.695  0.2192E+03  0.7857E+03
      1.718  0.2119E+03  0.7906E+03
      1.741  0.2148E+03  0.7956E+03
      1.765  0.2148E+03  0.8006E+03
      1.788  0.2115E+03  0.8055E+03
      1.811  0.2101E+03  0.8104E+03
      1.834  0.2087E+03  0.8152E+03
      1.858  0.2149E+03  0.8202E+03
      1.881  0.2176E+03  0.8253E+03
      1.904  0.2089E+03  0.8301E+03
      1.927  0.2082E+03  0.8350E+03
      1.950  0.2140E+03  0.8399E+03
      1.974  0.2124E+03  0.8449E+03
      1.997  0.2051E+03  0.8496E+03
      2.020  0.1972E+03  0.8542E+03
      2.043  0.1980E+03  0.8588E+03
      2.067  0.1984E+03  0.8634E+03
      2.090  0.2006E+03  0.8681E+03
      2.113  0.2015E+03  0.8727E+03
      2.136  0.1916E+03  0.8772E+03
      2.159  0.1888E+03  0.8816E+03
      2.183  0.1948E+03  0.8861E+03
      2.206  0.1846E+03  0.8904E+03
      2.229  0.1611E+03  0.8941E+03
      2.252  0.1457E+03  0.8975E+03
      2.276  0.1414E+03  0.9008E+03
      2.299  0.1458E+03  0.9042E+03
      2.322  0.1571E+03  0.9078E+03
      2.345  0.1624E+03  0.9116E+03
      2.368  0.1539E+03  0.9152E+03
      2.392  0.1565E+03  0.9188E+03
      2.415  0.1650E+03  0.9226E+03
      2.438  0.1573E+03  0.9263E+03
      2.461  0.1398E+03  0.9295E+03
      2.485  0.1340E+03  0.9326E+03
      2.508  0.1403E+03  0.9359E+03
      2.531  0.1339E+03  0.9390E+03
      2.554  0.1275E+03  0.9420E+03
      2.577  0.1353E+03  0.9451E+03
      2.601  0.1333E+03  0.9482E+03
      2.624  0.1267E+03  0.9511E+03
      2.647  0.1352E+03  0.9543E+03
      2.670  0.1436E+03  0.9576E+03
      2.693  0.1418E+03  0.9609E+03
      2.717  0.1387E+03  0.9641E+03
      2.740  0.1377E+03  0.9673E+03
      2.763  0.1354E+03  0.9705E+03
      2.786  0.1382E+03  0.9737E+03
      2.810  0.1313E+03  0.9767E+03
      2.833  0.1256E+03  0.9796E+03
      2.856  0.1222E+03  0.9825E+03
      2.879  0.1194E+03  0.9853E+03
      2.902  0.1164E+03  0.9880E+03
      2.926  0.1168E+03  0.9907E+03
      2.949  0.1169E+03  0.9934E+03
      2.972  0.1009E+03  0.9957E+03
      2.995  0.8689E+02  0.9977E+03
      3.019  0.8368E+02  0.9997E+03
      3.042  0.7665E+02  0.1001E+04
      3.065  0.7022E+02  0.1003E+04
      3.088  0.6607E+02  0.1005E+04
      3.111  0.5381E+02  0.1006E+04
      3.135  0.3529E+02  0.1007E+04
      3.158  0.2336E+02  0.1007E+04
      3.181  0.2052E+02  0.1008E+04
      3.204  0.2297E+02  0.1008E+04
      3.228  0.3381E+02  0.1009E+04
      3.251  0.2977E+02  0.1010E+04
      3.274  0.1042E+02  0.1010E+04
      3.297  0.1339E+01  0.1010E+04
      3.320  0.6094E-01  0.1010E+04
      3.344  0.9487E-03  0.1010E+04
      3.367  0.4896E-05  0.1010E+04
      3.390  0.8162E-08  0.1010E+04
      3.413  0.4310E-11  0.1010E+04
      3.436  0.0000E+00  0.1010E+04
      3.460  0.0000E+00  0.1010E+04
      3.483  0.0000E+00  0.1010E+04
      3.506  0.0000E+00  0.1010E+04
      3.529  0.0000E+00  0.1010E+04
      3.553  0.0000E+00  0.1010E+04
