       N       E                     dE             d eps       ncg     rms          rms(c)
DAV:   1    -0.290224955475E+03   -0.29022E+03   -0.12309E+05  4040   0.658E+02
DAV:   2    -0.897513725300E+03   -0.60729E+03   -0.55613E+03  4652   0.679E+01
DAV:   3    -0.940069338236E+03   -0.42556E+02   -0.38715E+02  5136   0.142E+01
DAV:   4    -0.941520962013E+03   -0.14516E+01   -0.14272E+01  4664   0.284E+00
DAV:   5    -0.941553933852E+03   -0.32972E-01   -0.32904E-01  4816   0.458E-01    0.889E+00
DAV:   6    -0.934591422583E+03    0.69625E+01   -0.10885E+01  4472   0.392E+00    0.602E+00
DAV:   7    -0.933088444756E+03    0.15030E+01   -0.88995E+00  4560   0.389E+00    0.498E+00
DAV:   8    -0.930072654924E+03    0.30158E+01   -0.41172E+00  4600   0.247E+00    0.273E+00
DAV:   9    -0.929562172828E+03    0.51048E+00   -0.19392E+00  4536   0.137E+00    0.175E+00
DAV:  10    -0.929382192999E+03    0.17998E+00   -0.81606E-01  4576   0.965E-01    0.123E+00
DAV:  11    -0.929276968792E+03    0.10522E+00   -0.32909E-01  4464   0.506E-01    0.621E-01
DAV:  12    -0.929279462654E+03   -0.24939E-02   -0.75012E-02  4616   0.283E-01    0.482E-01
DAV:  13    -0.929265343457E+03    0.14119E-01   -0.37588E-02  4592   0.228E-01    0.309E-01
DAV:  14    -0.929259314852E+03    0.60286E-02   -0.11542E-02  4576   0.132E-01    0.162E-01
DAV:  15    -0.929259231576E+03    0.83276E-04   -0.54911E-03  4656   0.956E-02    0.134E-01
DAV:  16    -0.929257168793E+03    0.20628E-02   -0.27052E-03  4584   0.608E-02    0.522E-02
DAV:  17    -0.929257059668E+03    0.10912E-03   -0.93356E-04  4312   0.264E-02    0.257E-02
DAV:  18    -0.929257023332E+03    0.36336E-04   -0.19593E-04  4496   0.142E-02    0.171E-02
DAV:  19    -0.929257009670E+03    0.13662E-04   -0.57124E-05  4480   0.968E-03    0.138E-02
DAV:  20    -0.929256976784E+03    0.32887E-04   -0.26093E-05  3496   0.633E-03    0.472E-03
DAV:  21    -0.929256972045E+03    0.47386E-05   -0.14902E-05  2200   0.341E-03
   1 F= -.92925697E+03 E0= -.92919497E+03  d E =-.124005E+00
