Li                                      
           1
   -10.636430   18.422837    0.000000
   -18.233880  -10.527336    0.000000
    -0.000000    0.000000   22.309700
   Li
   504
Direct configuration=     1
   0.00094243  0.00861190  0.01417420
   0.92618364  0.04247389  0.67500043
   0.86274868  0.07576327  0.33882058
   0.78172822  0.13114238  0.98113765
   0.71358818  0.16391880  0.66658529
   0.63753250  0.19486271  0.34113974
   0.57163010  0.25297891  0.00924565
   0.50124097  0.29962578  0.65324820
   0.42514617  0.33494828  0.30900672
   0.34921350  0.37017103  0.00067943
   0.29270767  0.42271802  0.68669042
   0.21868966  0.45379810  0.33769088
   0.08247053  0.04658423  0.67171545
   0.00047975  0.08205265  0.34054466
   0.92361387  0.12282398  0.99548834
   0.85939236  0.16299895  0.64866488
   0.78589471  0.20231267  0.34641508
   0.71559855  0.24023830  0.00819768
   0.63048696  0.28400971  0.66488986
   0.57587955  0.33420047  0.31394587
   0.50830840  0.38373459  0.01233451
   0.43287748  0.40071257  0.66111646
   0.36169700  0.46591083  0.32826953
   0.28979836  0.50819062  0.98384104
   0.14169207  0.08558530  0.30998560
   0.06916321  0.12915056  0.99209460
   0.99161970  0.17645661  0.66011909
   0.92974213  0.21731266  0.34621242
   0.86367316  0.24863257  0.01791974
   0.77676707  0.29320440  0.66868142
   0.71437781  0.33620346  0.34412935
   0.65175643  0.37558624  0.01898791
   0.57130644  0.41952239  0.65770843
   0.49601482  0.46271728  0.32178490
   0.42760726  0.49340074  0.00495698
   0.35574506  0.54474663  0.66112654
   0.22195442  0.13377439  0.00022430
   0.14635553  0.17837822  0.66630589
   0.06505321  0.21377684  0.32590234
   0.99856428  0.25578512  0.02940944
   0.92552120  0.29065691  0.67344701
   0.85796866  0.32932743  0.34738595
   0.78623676  0.37740557  0.99265111
   0.71790025  0.42322873  0.67501916
   0.64402287  0.46282654  0.34289398
   0.58195771  0.49833397  0.02546979
   0.49625669  0.54519591  0.66838469
   0.42309307  0.57924337  0.31853276
   0.28157792  0.16458345  0.66060632
   0.21489469  0.21953748  0.31735921
   0.13586323  0.25290843  0.97778492
   0.06455881  0.29505730  0.67959312
   0.99801797  0.34423831  0.31771184
   0.92891763  0.37771850  0.00092239
   0.85497027  0.40526412  0.66724157
   0.78769537  0.45798439  0.33700639
   0.71649797  0.50007406  0.02292937
   0.63783543  0.54292733  0.65304008
   0.57522093  0.57853217  0.31734388
   0.50668001  0.62307546  0.02242823
   0.35688805  0.19591375  0.33207008
   0.28359454  0.25573254  0.00398425
   0.21075297  0.28755828  0.68051557
   0.13779942  0.34140749  0.33894978
   0.06858796  0.36385981  0.99122118
   0.99966160  0.41763449  0.67924873
   0.92443729  0.44868654  0.33039229
   0.85927115  0.49435989  0.00687409
   0.79148556  0.54310000  0.66637032
   0.71640656  0.59141439  0.34253048
   0.63882690  0.62438355  0.01825354
   0.57099404  0.66890263  0.67678808
   0.41966646  0.25568280  0.99820867
   0.34258644  0.28779646  0.65869679
   0.27813725  0.32948652  0.31591017
   0.20360354  0.37966131  0.98734162
   0.13150991  0.41944603  0.67665388
   0.07841645  0.45368281  0.33744342
   0.99535732  0.49447309  0.01053510
   0.92796175  0.52939466  0.68324027
   0.85194899  0.58218345  0.32588201
   0.77886736  0.62761517  0.00485747
   0.71560648  0.66371157  0.65950073
   0.64748199  0.70138922  0.31880230
   0.13754617  0.49291860  0.99242915
   0.06613108  0.53801642  0.66354652
   0.00252876  0.59199527  0.35076248
   0.93108357  0.61612200  0.99144286
   0.85937854  0.66753779  0.65558903
   0.78652202  0.69872566  0.33440215
   0.71214591  0.75436073  0.00339026
   0.21328699  0.53847894  0.66981415
   0.14467925  0.56750373  0.33875980
   0.07515540  0.62087633  0.99234814
   0.99672457  0.66094038  0.68247242
   0.92987621  0.71122676  0.33300567
   0.85571078  0.74366095  0.99204447
   0.77892811  0.79175848  0.64800754
   0.28862097  0.58740649  0.34431214
   0.20998109  0.62251952  0.98196911
   0.13271154  0.66895148  0.65575888
   0.06819989  0.71629432  0.33870895
   0.00086820  0.74666314  0.99829771
   0.93408227  0.78851388  0.66894847
   0.85748620  0.82259691  0.32020667
   0.35826552  0.62924093  0.00629180
   0.27877107  0.67219030  0.66491210
   0.21888244  0.70630346  0.32540383
   0.14829954  0.75492708  0.98996525
   0.06931263  0.78874313  0.67402005
   0.00214311  0.83102177  0.33605985
   0.92010634  0.87560120  0.99037753
   0.43871768  0.65956426  0.65194472
   0.36600983  0.70166735  0.33605123
   0.29161931  0.74762570  0.96821496
   0.21640000  0.79675437  0.67315228
   0.14307896  0.83384254  0.32388367
   0.06912640  0.88228053  0.99208316
   0.99321275  0.92522170  0.67568441
   0.91922098  0.95636105  0.33460939
   0.85491327  0.99531660  0.99205394
   0.78440021  0.04480530  0.66464324
   0.71662843  0.08624652  0.33205417
   0.64308657  0.12759152  0.97918600
   0.56743371  0.16572017  0.65958557
   0.50454097  0.21227181  0.32833606
   0.07096634  0.96763506  0.32488133
   0.14770660  0.00639621  0.99038851
   0.20903213  0.04122167  0.67425683
   0.28009179  0.08137425  0.33718416
   0.35417925  0.12023341  0.98769239
   0.43132752  0.16137501  0.65364694
   0.84995531  0.91030379  0.65036868
   0.78651238  0.95617857  0.33379105
   0.70485447  0.99789005  0.98770048
   0.64067301  0.04959878  0.66876972
   0.57773217  0.08327237  0.34178673
   0.49835758  0.12313283  0.97359477
   0.14880097  0.91296923  0.69472667
   0.22130433  0.96212801  0.33115615
   0.28061582  0.00147719  0.99924427
   0.35957626  0.04312105  0.67097042
   0.42784535  0.07808753  0.32428134
   0.78511005  0.87464845  0.98995349
   0.71697965  0.91423699  0.67292394
   0.64295950  0.95851875  0.32259914
   0.57171836  0.00088175  0.99683365
   0.49959045  0.04911637  0.66858541
   0.21472748  0.87359261  0.99962184
   0.28621177  0.91754954  0.67829138
   0.35763583  0.96122563  0.35370844
   0.43397540  0.99946973  0.97774422
   0.71038185  0.82820388  0.33438198
   0.63732074  0.86684642  0.99780764
   0.56251688  0.90880025  0.66541901
   0.50215265  0.95835244  0.33713324
   0.28664867  0.83615785  0.35007448
   0.35254608  0.86845874  0.98608833
   0.43084836  0.92220669  0.69155847
   0.64220263  0.77765281  0.66522014
   0.57159926  0.82826072  0.33113069
   0.49853507  0.87225432  0.03320115
   0.36226939  0.78369091  0.67800641
   0.42754511  0.83086887  0.34486209
   0.57469904  0.74920039  0.02262086
   0.50430436  0.78509010  0.66067738
   0.43355874  0.75001144  0.00691686
   0.50944896  0.70951525  0.32479046
   0.98185078  0.99582939  0.76912809
   0.91671449  0.04813277  0.44406145
   0.85614993  0.08281776  0.10186354
   0.77732812  0.13011508  0.77351165
   0.72017583  0.17860589  0.43698494
   0.64682908  0.20580510  0.11679278
   0.58212398  0.25197188  0.76831128
   0.50413287  0.29839418  0.44307737
   0.43360350  0.33868126  0.12226211
   0.35722316  0.36481397  0.76866134
   0.29345982  0.41443376  0.44782185
   0.20036803  0.46534511  0.09851558
   0.05189811  0.05039834  0.46556912
   0.99775577  0.08094464  0.11451036
   0.92850330  0.14493289  0.77502286
   0.86077614  0.17891236  0.43293892
   0.78537771  0.20624041  0.10435626
   0.72127185  0.26102754  0.77170873
   0.63878710  0.29329653  0.44831107
   0.57917169  0.32398493  0.11865756
   0.50415276  0.36766713  0.76431173
   0.43584208  0.42710740  0.43050247
   0.32977782  0.46154125  0.10665839
   0.29609288  0.49164819  0.77783464
   0.14491834  0.06826019  0.08695323
   0.06967951  0.12874940  0.77511486
   0.99539336  0.17785280  0.45085393
   0.92893030  0.19630077  0.12220454
   0.85573831  0.25522072  0.78629456
   0.79721945  0.30230299  0.43581815
   0.71591029  0.31299645  0.10551642
   0.64767338  0.36820548  0.77327062
   0.56462121  0.42231196  0.43413030
   0.49032259  0.43911597  0.10825246
   0.44015265  0.49412338  0.77099052
   0.36967828  0.53967159  0.43379612
   0.22068235  0.12279096  0.77731282
   0.14085510  0.19257541  0.43218261
   0.07855263  0.20157405  0.11138934
   0.01475343  0.25546054  0.77244975
   0.94470178  0.30543037  0.44914430
   0.84546706  0.32475927  0.12371282
   0.79245944  0.38345293  0.78483515
   0.72227784  0.41669898  0.45700163
   0.64527195  0.45213560  0.12492846
   0.58174589  0.49617193  0.77437641
   0.49468711  0.56104098  0.44098527
   0.42288645  0.57262937  0.11756488
   0.27390116  0.17210335  0.43937437
   0.20555949  0.21078460  0.10300015
   0.14977606  0.23735237  0.78197949
   0.07459237  0.31113223  0.44948829
   0.99856322  0.32987947  0.12058522
   0.93552174  0.36851819  0.78758665
   0.86004598  0.42507230  0.45091512
   0.78715459  0.45502247  0.12471618
   0.71045541  0.51065781  0.77844265
   0.62803829  0.53338965  0.47003995
   0.56037341  0.58758721  0.11971048
   0.50107943  0.62147852  0.77679297
   0.35874974  0.21858537  0.10779817
   0.29586732  0.23969491  0.76944409
   0.21701164  0.30122631  0.45160481
   0.14462468  0.33579107  0.10627877
   0.08201923  0.38207828  0.77655786
   0.00079530  0.42272920  0.45807032
   0.91300167  0.44995348  0.10425861
   0.86596156  0.50163040  0.78842074
   0.78110328  0.53386941  0.44823740
   0.71253988  0.58346946  0.12984835
   0.64418974  0.62051674  0.78731468
   0.56047220  0.66714178  0.42572316
   0.43618046  0.23648968  0.77233326
   0.36624749  0.30856262  0.44369191
   0.27663123  0.33830252  0.10666488
   0.21974678  0.36475342  0.78705907
   0.15472948  0.41915345  0.44741901
   0.06776000  0.45796844  0.10301029
   0.00013705  0.49549042  0.78151576
   0.93042266  0.53906029  0.46483635
   0.84827316  0.58077148  0.12350969
   0.77962948  0.63007886  0.77897327
   0.70204103  0.67209800  0.42882072
   0.63986272  0.71068651  0.12595337
   0.14909051  0.50924134  0.78000461
   0.06580176  0.54073815  0.45287263
   0.99059036  0.58366744  0.10434684
   0.92541599  0.62225657  0.79563806
   0.85493325  0.68651845  0.43847846
   0.76954681  0.69681870  0.11645034
   0.70653773  0.74918362  0.76238272
   0.21816775  0.52404642  0.45395197
   0.12600499  0.58801060  0.09841133
   0.06834420  0.62837641  0.76911585
   0.99163991  0.66272279  0.42314050
   0.92162823  0.70978578  0.10537996
   0.85227752  0.74542950  0.76734309
   0.76780008  0.79657158  0.45298671
   0.25442996  0.59716240  0.10030001
   0.21481181  0.62380552  0.77398624
   0.14822184  0.66533103  0.43449317
   0.07414202  0.71913429  0.09534995
   0.97782496  0.75271738  0.78958034
   0.92051244  0.80565589  0.45214346
   0.83993481  0.83856854  0.09522802
   0.35164818  0.61690056  0.78012692
   0.28010630  0.65820472  0.46087827
   0.21530620  0.72307324  0.10989307
   0.12174559  0.75173346  0.79426391
   0.06510176  0.78699752  0.44625450
   0.00950664  0.83496650  0.11766860
   0.92110231  0.88494384  0.77548959
   0.43174167  0.67825085  0.45163552
   0.35586576  0.70111706  0.11285629
   0.28363975  0.75304246  0.78862943
   0.21018808  0.79118810  0.44684585
   0.14179015  0.83342418  0.11914908
   0.07087239  0.88517372  0.77692470
   0.98792596  0.92762754  0.44541899
   0.92445247  0.96611040  0.10992118
   0.86077929  0.01290420  0.76791736
   0.77585116  0.06430387  0.45480098
   0.72170574  0.08689224  0.10174689
   0.64344077  0.11582078  0.76791453
   0.55557508  0.18243630  0.46017772
   0.50479617  0.21063381  0.08610539
   0.06566602  0.96821198  0.11377430
   0.13931524  0.00859945  0.79446704
   0.20714188  0.05982218  0.45025363
   0.29954850  0.08746477  0.11745384
   0.37064377  0.11988087  0.76471074
   0.41684392  0.16419382  0.45249945
   0.84268437  0.93460241  0.43353090
   0.79330223  0.95715120  0.09358685
   0.71380074  0.98643409  0.77577432
   0.63713113  0.06555573  0.44121574
   0.57829642  0.08323614  0.10605013
   0.50765219  0.11980300  0.76929897
   0.14308007  0.92380933  0.44094162
   0.22353865  0.94985636  0.10744420
   0.28965392  0.00002790  0.76871689
   0.34237096  0.02723813  0.44649659
   0.41567699  0.09133262  0.10496278
   0.79124601  0.88897660  0.75850683
   0.70482267  0.93270441  0.44919813
   0.64648637  0.96132827  0.10967130
   0.57568707  0.98773583  0.78898085
   0.50478708  0.03540329  0.44235095
   0.21909738  0.87786321  0.77481711
   0.28372388  0.92365800  0.46052453
   0.35368873  0.97112690  0.11150561
   0.44035733  0.99126624  0.78430076
   0.68781546  0.83870232  0.10387149
   0.64937185  0.87177192  0.77144503
   0.57254132  0.91522316  0.42943629
   0.49666653  0.96466399  0.10859424
   0.29583827  0.83870361  0.11867868
   0.36241047  0.87726515  0.79066388
   0.43197920  0.91549822  0.43263481
   0.62619577  0.79978678  0.44726314
   0.56372797  0.83679431  0.14144755
   0.49723092  0.85261914  0.78808595
   0.36653123  0.79899768  0.45824130
   0.42071338  0.83625584  0.11419359
   0.55459670  0.76563513  0.77265142
   0.49219238  0.81622198  0.43787413
   0.42570352  0.75501517  0.77278894
   0.50103566  0.71643503  0.13307829
   0.00417870  0.00467279  0.22228596
   0.92932018  0.05022318  0.89374008
   0.85588309  0.10145678  0.54403846
   0.79093972  0.11398534  0.22829305
   0.70041125  0.15866961  0.87028614
   0.63659647  0.21616774  0.57372497
   0.57592840  0.23194141  0.21463279
   0.50731165  0.27547038  0.88533803
   0.43781153  0.34770659  0.55435651
   0.36041812  0.36714430  0.20899941
   0.30370295  0.40573091  0.88254943
   0.21975832  0.44397699  0.56906229
   0.07774695  0.04850272  0.88044710
   0.99427926  0.09998800  0.57234974
   0.94048500  0.11161944  0.21924870
   0.84568882  0.16221181  0.89536258
   0.79886363  0.20318154  0.52263043
   0.71479422  0.22397813  0.22561045
   0.65481944  0.29104362  0.90466835
   0.56536429  0.33240129  0.55988257
   0.49972607  0.36790877  0.20557765
   0.43464793  0.40386149  0.87926629
   0.36932623  0.45505160  0.55643593
   0.26902463  0.51334051  0.20853005
   0.12598514  0.09880376  0.55030906
   0.08051257  0.10928352  0.22049619
   0.00545162  0.17296462  0.88773708
   0.93262201  0.22554462  0.54832442
   0.85851173  0.24148341  0.23054036
   0.77461753  0.28238030  0.89482601
   0.71577685  0.33746451  0.55789587
   0.63855144  0.36601633  0.21349974
   0.57951899  0.42365165  0.88942047
   0.50729253  0.47475435  0.55015006
   0.41941421  0.48324732  0.20557712
   0.36643081  0.53781082  0.90304222
   0.21480678  0.11372115  0.20070016
   0.13935199  0.15640198  0.89209243
   0.06449674  0.22392102  0.54255563
   0.99674939  0.23508813  0.21595708
   0.93065030  0.29271831  0.89600694
   0.86023000  0.34201200  0.56056065
   0.77835665  0.36477764  0.23424434
   0.71458961  0.42486040  0.90424443
   0.64564682  0.46372409  0.55327076
   0.57595451  0.49702975  0.21488355
   0.49635294  0.53476861  0.91307568
   0.42859688  0.60301723  0.55660037
   0.29220930  0.15621863  0.87352919
   0.21781985  0.21827643  0.56309930
   0.14242196  0.24918617  0.23951162
   0.08461789  0.28508649  0.88360009
   0.00128572  0.33485135  0.56436053
   0.92498932  0.36189617  0.22683217
   0.87002389  0.39971587  0.90087244
   0.78314630  0.45707668  0.55661353
   0.71977074  0.49638822  0.22756989
   0.65608755  0.55218766  0.91504205
   0.57170034  0.58958506  0.55614947
   0.50293650  0.62050567  0.22232792
   0.34299143  0.21397466  0.54999502
   0.28314247  0.25368827  0.20880733
   0.22062088  0.27488625  0.88455631
   0.14351265  0.34845510  0.55994075
   0.06309806  0.37397322  0.22028033
   0.01610498  0.39853732  0.88887414
   0.93743145  0.44769381  0.57675155
   0.85371369  0.50046100  0.23087288
   0.78341332  0.54846733  0.88622103
   0.71036121  0.58586873  0.54004359
   0.64244533  0.62427280  0.21276225
   0.57454063  0.67370111  0.91219028
   0.42983245  0.26075101  0.21501676
   0.37101854  0.27812952  0.87921684
   0.29157167  0.33281934  0.57503530
   0.21147238  0.37355113  0.21308375
   0.15452739  0.42229751  0.89246561
   0.06976389  0.46432095  0.54859644
   0.00069166  0.49777034  0.22018182
   0.94536823  0.52938574  0.88977924
   0.85854954  0.58524771  0.55549550
   0.78535086  0.62315695  0.24197923
   0.72022165  0.67067421  0.89761635
   0.64701056  0.69593172  0.54327655
   0.12877396  0.49970718  0.20297937
   0.08673253  0.54156926  0.87133191
   0.01138176  0.57361474  0.56711600
   0.92381234  0.62076355  0.23624442
   0.85458829  0.65714951  0.89536099
   0.78535000  0.71749429  0.54198502
   0.71220851  0.74960215  0.21661432
   0.22556598  0.55714259  0.88797346
   0.16087515  0.56852713  0.54686092
   0.06993128  0.62953583  0.22703485
   0.00954527  0.65714083  0.89976956
   0.94417508  0.71141252  0.54299190
   0.85313159  0.74233228  0.22774989
   0.79612268  0.78561399  0.89441123
   0.30159372  0.57985401  0.55465875
   0.20523696  0.62705800  0.22357392
   0.15264708  0.66963629  0.88977786
   0.07255051  0.69708085  0.54138632
   0.02567725  0.74676522  0.21658344
   0.92782516  0.78884960  0.89625123
   0.84635448  0.83850294  0.54895709
   0.35073121  0.61857000  0.21570955
   0.29659209  0.66985253  0.88462826
   0.21665616  0.70165227  0.56311067
   0.15303006  0.75414561  0.22037128
   0.07210091  0.80988641  0.89804369
   0.99593827  0.84050363  0.55483210
   0.92316933  0.87636339  0.21667950
   0.43431697  0.65005959  0.89656550
   0.37095646  0.70702144  0.56937566
   0.29584810  0.74574906  0.23119169
   0.21877313  0.78312456  0.87133279
   0.14938068  0.82811133  0.56310608
   0.08253684  0.86267723  0.23651958
   0.00276535  0.92493038  0.89934603
   0.92054802  0.97350118  0.55433490
   0.85640318  0.99786622  0.22256023
   0.78174237  0.03825195  0.88745185
   0.70809860  0.09582076  0.54977325
   0.64363390  0.11321134  0.21892464
   0.57274059  0.16339448  0.88362475
   0.48451602  0.21370878  0.55868092
   0.07191825  0.96304556  0.56583613
   0.14907870  0.99387594  0.20872909
   0.21164274  0.03925773  0.89303577
   0.26824867  0.09096208  0.56233208
   0.35559171  0.13063642  0.22055651
   0.44166461  0.15953800  0.88200953
   0.85701369  0.92390901  0.87726622
   0.77556915  0.97317304  0.56380529
   0.73402426  0.98594626  0.21430421
   0.64366890  0.01936835  0.89339247
   0.57005869  0.10284169  0.55644225
   0.49448808  0.12493583  0.21670570
   0.15813480  0.91361651  0.87382376
   0.21457913  0.96743788  0.55699370
   0.28077853  0.99851002  0.21999337
   0.37142926  0.04123208  0.88357169
   0.42866448  0.07168883  0.54832732
   0.77832014  0.87059209  0.20504563
   0.72470352  0.90442924  0.88140850
   0.63528911  0.96701069  0.56300951
   0.57994847  0.01156084  0.25106449
   0.50891342  0.04189993  0.88345658
   0.22486991  0.86215087  0.23722035
   0.28444220  0.90525333  0.88443269
   0.36146295  0.95332995  0.57203478
   0.42657631  0.01008103  0.22009350
   0.71832363  0.84473587  0.54302885
   0.62013811  0.87433085  0.22090209
   0.57400564  0.90118503  0.89745000
   0.50613989  0.95468017  0.55449725
   0.28096658  0.82446077  0.56343585
   0.36544378  0.87799747  0.23264246
   0.43198960  0.91334772  0.90140971
   0.65640253  0.78858554  0.88330150
   0.55359019  0.81770591  0.54817542
   0.49916712  0.88311179  0.23256296
   0.36147660  0.78230846  0.86995835
   0.43262690  0.83155731  0.54082744
   0.57926544  0.72845176  0.22972784
   0.49296822  0.75986113  0.90192057
   0.42789027  0.74279924  0.22154251
   0.50849768  0.69606942  0.55772600
