 504 504   0   0
  0.2106490E+02  0.2170700E-08  0.2148436E-08  0.2276500E-08  0.5000000E-15
  1.000000000000000E-004
  CAR 
 Li                                      
      3.32049698     -3.48521268  301      0.30545644      1.00000000
     -3.485  0.0000E+00  0.0000E+00
     -3.463  0.0000E+00  0.0000E+00
     -3.440  0.0000E+00  0.0000E+00
     -3.417  0.0000E+00  0.0000E+00
     -3.394  0.0000E+00  0.0000E+00
     -3.372  0.0000E+00  0.0000E+00
     -3.349  0.1468E-13  0.3331E-15
     -3.326  0.5511E-10  0.1251E-11
     -3.304  0.7211E-07  0.1637E-08
     -3.281  0.3087E-04  0.7019E-06
     -3.258  0.4362E-02  0.9966E-04
     -3.236  0.2060E+00  0.4772E-02
     -3.213  0.3302E+01  0.7967E-01
     -3.190  0.1829E+02  0.4945E+00
     -3.168  0.3554E+02  0.1301E+01
     -3.145  0.2443E+02  0.1855E+01
     -3.122  0.6617E+01  0.2005E+01
     -3.100  0.9691E+01  0.2225E+01
     -3.077  0.4602E+02  0.3269E+01
     -3.054  0.9441E+02  0.5411E+01
     -3.031  0.8125E+02  0.7254E+01
     -3.009  0.2908E+02  0.7914E+01
     -2.986  0.9909E+01  0.8138E+01
     -2.963  0.3657E+02  0.8968E+01
     -2.941  0.8817E+02  0.1097E+02
     -2.918  0.8887E+02  0.1298E+02
     -2.895  0.3946E+02  0.1388E+02
     -2.873  0.2034E+02  0.1434E+02
     -2.850  0.4808E+02  0.1543E+02
     -2.827  0.9031E+02  0.1748E+02
     -2.805  0.1082E+03  0.1994E+02
     -2.782  0.7081E+02  0.2154E+02
     -2.759  0.3497E+02  0.2233E+02
     -2.737  0.6336E+02  0.2377E+02
     -2.714  0.1210E+03  0.2652E+02
     -2.691  0.1526E+03  0.2998E+02
     -2.669  0.1211E+03  0.3273E+02
     -2.646  0.5103E+02  0.3388E+02
     -2.623  0.2781E+02  0.3451E+02
     -2.600  0.5731E+02  0.3581E+02
     -2.578  0.8745E+02  0.3780E+02
     -2.555  0.7494E+02  0.3950E+02
     -2.532  0.5037E+02  0.4064E+02
     -2.510  0.5918E+02  0.4198E+02
     -2.487  0.8606E+02  0.4394E+02
     -2.464  0.1140E+03  0.4652E+02
     -2.442  0.1271E+03  0.4941E+02
     -2.419  0.1138E+03  0.5199E+02
     -2.396  0.1034E+03  0.5433E+02
     -2.374  0.1161E+03  0.5697E+02
     -2.351  0.1495E+03  0.6036E+02
     -2.328  0.1828E+03  0.6451E+02
     -2.306  0.1575E+03  0.6808E+02
     -2.283  0.9166E+02  0.7016E+02
     -2.260  0.5494E+02  0.7140E+02
     -2.237  0.4611E+02  0.7245E+02
     -2.215  0.6437E+02  0.7391E+02
     -2.192  0.7056E+02  0.7551E+02
     -2.169  0.6663E+02  0.7702E+02
     -2.147  0.9581E+02  0.7920E+02
     -2.124  0.1310E+03  0.8217E+02
     -2.101  0.1520E+03  0.8562E+02
     -2.079  0.1443E+03  0.8889E+02
     -2.056  0.1160E+03  0.9152E+02
     -2.033  0.1042E+03  0.9388E+02
     -2.011  0.1202E+03  0.9661E+02
     -1.988  0.1534E+03  0.1001E+03
     -1.965  0.1998E+03  0.1046E+03
     -1.943  0.1875E+03  0.1089E+03
     -1.920  0.1047E+03  0.1113E+03
     -1.897  0.3737E+02  0.1121E+03
     -1.875  0.4845E+02  0.1132E+03
     -1.852  0.1139E+03  0.1158E+03
     -1.829  0.1496E+03  0.1192E+03
     -1.806  0.1360E+03  0.1223E+03
     -1.784  0.1389E+03  0.1254E+03
     -1.761  0.1576E+03  0.1290E+03
     -1.738  0.1679E+03  0.1328E+03
     -1.716  0.1775E+03  0.1368E+03
     -1.693  0.1583E+03  0.1404E+03
     -1.670  0.1233E+03  0.1432E+03
     -1.648  0.1253E+03  0.1461E+03
     -1.625  0.1436E+03  0.1493E+03
     -1.602  0.1656E+03  0.1531E+03
     -1.580  0.1685E+03  0.1569E+03
     -1.557  0.1311E+03  0.1599E+03
     -1.534  0.9542E+02  0.1620E+03
     -1.512  0.9158E+02  0.1641E+03
     -1.489  0.1099E+03  0.1666E+03
     -1.466  0.1065E+03  0.1690E+03
     -1.443  0.1020E+03  0.1713E+03
     -1.421  0.1367E+03  0.1744E+03
     -1.398  0.1474E+03  0.1778E+03
     -1.375  0.1333E+03  0.1808E+03
     -1.353  0.1556E+03  0.1843E+03
     -1.330  0.1817E+03  0.1885E+03
     -1.307  0.1707E+03  0.1923E+03
     -1.285  0.1664E+03  0.1961E+03
     -1.262  0.1924E+03  0.2005E+03
     -1.239  0.2312E+03  0.2057E+03
     -1.217  0.2379E+03  0.2111E+03
     -1.194  0.2087E+03  0.2158E+03
     -1.171  0.1784E+03  0.2199E+03
     -1.149  0.1652E+03  0.2236E+03
     -1.126  0.1562E+03  0.2272E+03
     -1.103  0.1312E+03  0.2302E+03
     -1.081  0.9527E+02  0.2323E+03
     -1.058  0.1079E+03  0.2348E+03
     -1.035  0.1553E+03  0.2383E+03
     -1.012  0.1615E+03  0.2420E+03
     -0.990  0.1474E+03  0.2453E+03
     -0.967  0.1581E+03  0.2489E+03
     -0.944  0.1765E+03  0.2529E+03
     -0.922  0.1998E+03  0.2574E+03
     -0.899  0.2023E+03  0.2620E+03
     -0.876  0.1753E+03  0.2660E+03
     -0.854  0.1473E+03  0.2693E+03
     -0.831  0.1195E+03  0.2720E+03
     -0.808  0.1407E+03  0.2752E+03
     -0.786  0.1809E+03  0.2793E+03
     -0.763  0.1568E+03  0.2829E+03
     -0.740  0.1430E+03  0.2861E+03
     -0.718  0.1577E+03  0.2897E+03
     -0.695  0.1730E+03  0.2936E+03
     -0.672  0.2110E+03  0.2984E+03
     -0.650  0.2432E+03  0.3039E+03
     -0.627  0.2301E+03  0.3092E+03
     -0.604  0.2062E+03  0.3138E+03
     -0.581  0.2068E+03  0.3185E+03
     -0.559  0.2293E+03  0.3237E+03
     -0.536  0.2450E+03  0.3293E+03
     -0.513  0.2173E+03  0.3342E+03
     -0.491  0.1791E+03  0.3383E+03
     -0.468  0.1476E+03  0.3416E+03
     -0.445  0.1465E+03  0.3450E+03
     -0.423  0.1823E+03  0.3491E+03
     -0.400  0.1942E+03  0.3535E+03
     -0.377  0.1658E+03  0.3573E+03
     -0.355  0.1614E+03  0.3609E+03
     -0.332  0.1867E+03  0.3652E+03
     -0.309  0.1964E+03  0.3696E+03
     -0.287  0.1938E+03  0.3740E+03
     -0.264  0.1924E+03  0.3784E+03
     -0.241  0.1867E+03  0.3826E+03
     -0.218  0.1921E+03  0.3870E+03
     -0.196  0.2220E+03  0.3920E+03
     -0.173  0.2553E+03  0.3978E+03
     -0.150  0.2832E+03  0.4042E+03
     -0.128  0.2918E+03  0.4108E+03
     -0.105  0.2521E+03  0.4166E+03
     -0.082  0.1935E+03  0.4210E+03
     -0.060  0.1800E+03  0.4250E+03
     -0.037  0.2027E+03  0.4296E+03
     -0.014  0.2096E+03  0.4344E+03
      0.008  0.2064E+03  0.4391E+03
      0.031  0.2093E+03  0.4438E+03
      0.054  0.2093E+03  0.4486E+03
      0.076  0.2029E+03  0.4532E+03
      0.099  0.1921E+03  0.4575E+03
      0.122  0.1873E+03  0.4618E+03
      0.144  0.1840E+03  0.4660E+03
      0.167  0.1779E+03  0.4700E+03
      0.190  0.1829E+03  0.4741E+03
      0.213  0.2060E+03  0.4788E+03
      0.235  0.2349E+03  0.4841E+03
      0.258  0.2656E+03  0.4902E+03
      0.281  0.2884E+03  0.4967E+03
      0.303  0.2935E+03  0.5034E+03
      0.326  0.2961E+03  0.5101E+03
      0.349  0.3003E+03  0.5169E+03
      0.371  0.2950E+03  0.5236E+03
      0.394  0.2886E+03  0.5301E+03
      0.417  0.2922E+03  0.5368E+03
      0.439  0.2988E+03  0.5435E+03
      0.462  0.3000E+03  0.5503E+03
      0.485  0.2839E+03  0.5568E+03
      0.507  0.2482E+03  0.5624E+03
      0.530  0.2343E+03  0.5677E+03
      0.553  0.2466E+03  0.5733E+03
      0.576  0.2593E+03  0.5792E+03
      0.598  0.2505E+03  0.5849E+03
      0.621  0.2167E+03  0.5898E+03
      0.644  0.1920E+03  0.5942E+03
      0.666  0.1986E+03  0.5987E+03
      0.689  0.2205E+03  0.6037E+03
      0.712  0.2208E+03  0.6087E+03
      0.734  0.2081E+03  0.6134E+03
      0.757  0.2101E+03  0.6182E+03
      0.780  0.2128E+03  0.6230E+03
      0.802  0.2015E+03  0.6276E+03
      0.825  0.1867E+03  0.6318E+03
      0.848  0.1939E+03  0.6362E+03
      0.870  0.2181E+03  0.6411E+03
      0.893  0.2392E+03  0.6466E+03
      0.916  0.2529E+03  0.6523E+03
      0.938  0.2559E+03  0.6581E+03
      0.961  0.2534E+03  0.6639E+03
      0.984  0.2546E+03  0.6696E+03
      1.007  0.2485E+03  0.6753E+03
      1.029  0.2342E+03  0.6806E+03
      1.052  0.2281E+03  0.6858E+03
      1.075  0.2334E+03  0.6911E+03
      1.097  0.2310E+03  0.6963E+03
      1.120  0.2232E+03  0.7014E+03
      1.143  0.2205E+03  0.7064E+03
      1.165  0.2325E+03  0.7116E+03
      1.188  0.2427E+03  0.7171E+03
      1.211  0.2345E+03  0.7225E+03
      1.233  0.2197E+03  0.7274E+03
      1.256  0.2052E+03  0.7321E+03
      1.279  0.1908E+03  0.7364E+03
      1.301  0.1822E+03  0.7406E+03
      1.324  0.1895E+03  0.7449E+03
      1.347  0.2156E+03  0.7498E+03
      1.370  0.2324E+03  0.7550E+03
      1.392  0.2259E+03  0.7602E+03
      1.415  0.2196E+03  0.7651E+03
      1.438  0.2241E+03  0.7702E+03
      1.460  0.2233E+03  0.7753E+03
      1.483  0.2212E+03  0.7803E+03
      1.506  0.2292E+03  0.7855E+03
      1.528  0.2297E+03  0.7907E+03
      1.551  0.2227E+03  0.7958E+03
      1.574  0.2248E+03  0.8009E+03
      1.596  0.2382E+03  0.8063E+03
      1.619  0.2461E+03  0.8118E+03
      1.642  0.2476E+03  0.8175E+03
      1.664  0.2489E+03  0.8231E+03
      1.687  0.2348E+03  0.8284E+03
      1.710  0.2214E+03  0.8335E+03
      1.732  0.2176E+03  0.8384E+03
      1.755  0.2108E+03  0.8432E+03
      1.778  0.1999E+03  0.8477E+03
      1.801  0.1983E+03  0.8522E+03
      1.823  0.2049E+03  0.8569E+03
      1.846  0.2042E+03  0.8615E+03
      1.869  0.1976E+03  0.8660E+03
      1.891  0.1947E+03  0.8704E+03
      1.914  0.2012E+03  0.8750E+03
      1.937  0.2087E+03  0.8797E+03
      1.959  0.2029E+03  0.8843E+03
      1.982  0.1954E+03  0.8887E+03
      2.005  0.1861E+03  0.8929E+03
      2.027  0.1782E+03  0.8970E+03
      2.050  0.1680E+03  0.9008E+03
      2.073  0.1557E+03  0.9043E+03
      2.095  0.1480E+03  0.9077E+03
      2.118  0.1481E+03  0.9111E+03
      2.141  0.1537E+03  0.9145E+03
      2.164  0.1578E+03  0.9181E+03
      2.186  0.1552E+03  0.9216E+03
      2.209  0.1593E+03  0.9253E+03
      2.232  0.1636E+03  0.9290E+03
      2.254  0.1533E+03  0.9324E+03
      2.277  0.1345E+03  0.9355E+03
      2.300  0.1274E+03  0.9384E+03
      2.322  0.1363E+03  0.9415E+03
      2.345  0.1383E+03  0.9446E+03
      2.368  0.1377E+03  0.9477E+03
      2.390  0.1391E+03  0.9509E+03
      2.413  0.1407E+03  0.9541E+03
      2.436  0.1453E+03  0.9574E+03
      2.458  0.1525E+03  0.9608E+03
      2.481  0.1559E+03  0.9644E+03
      2.504  0.1459E+03  0.9677E+03
      2.526  0.1331E+03  0.9707E+03
      2.549  0.1252E+03  0.9736E+03
      2.572  0.1272E+03  0.9764E+03
      2.595  0.1296E+03  0.9794E+03
      2.617  0.1186E+03  0.9821E+03
      2.640  0.1186E+03  0.9848E+03
      2.663  0.1244E+03  0.9876E+03
      2.685  0.1199E+03  0.9903E+03
      2.708  0.1186E+03  0.9930E+03
      2.731  0.1199E+03  0.9957E+03
      2.753  0.1147E+03  0.9983E+03
      2.776  0.1027E+03  0.1001E+04
      2.799  0.8551E+02  0.1003E+04
      2.821  0.5961E+02  0.1004E+04
      2.844  0.3963E+02  0.1005E+04
      2.867  0.3444E+02  0.1006E+04
      2.889  0.3449E+02  0.1006E+04
      2.912  0.3592E+02  0.1007E+04
      2.935  0.2528E+02  0.1008E+04
      2.958  0.1053E+02  0.1008E+04
      2.980  0.1398E+02  0.1008E+04
      3.003  0.3089E+02  0.1009E+04
      3.026  0.2950E+02  0.1010E+04
      3.048  0.1111E+02  0.1010E+04
      3.071  0.1600E+01  0.1010E+04
      3.094  0.8484E-01  0.1010E+04
      3.116  0.1598E-02  0.1010E+04
      3.139  0.1038E-04  0.1010E+04
      3.162  0.2275E-07  0.1010E+04
      3.184  0.1659E-10  0.1010E+04
      3.207  0.4894E-14  0.1010E+04
      3.230  0.0000E+00  0.1010E+04
      3.252  0.0000E+00  0.1010E+04
      3.275  0.0000E+00  0.1010E+04
      3.298  0.0000E+00  0.1010E+04
      3.320  0.0000E+00  0.1010E+04
