 running on   64 total cores
 distrk:  each k-point on   32 cores,    2 groups
 distr:  one band on   32 cores,    1 groups
 vasp.6.2.1 16May21 (build Nov 23 2021 15:40:41) complex                        
  
 POSCAR found type information on POSCAR Li
 POSCAR found :  1 types and     504 ions
 scaLAPACK will be used
 -----------------------------------------------------------------------------
|                                                                             |
|           W    W    AA    RRRRR   N    N  II  N    N   GGGG   !!!           |
|           W    W   A  A   R    R  NN   N  II  NN   N  G    G  !!!           |
|           W    W  A    A  R    R  N N  N  II  N N  N  G       !!!           |
|           W WW W  AAAAAA  RRRRR   N  N N  II  N  N N  G  GGG   !            |
|           WW  WW  A    A  R   R   N   NN  II  N   NN  G    G                |
|           W    W  A    A  R    R  N    N  II  N    N   GGGG   !!!           |
|                                                                             |
|     For optimal performance we recommend to set                             |
|       NCORE = 2 up to number-of-cores-per-socket                            |
|     NCORE specifies how many cores store one orbital (NPAR=cpu/NCORE).      |
|     This setting can greatly improve the performance of VASP for DFT.       |
|     The default, NCORE=1 might be grossly inefficient on modern             |
|     multi-core architectures or massively parallel machines. Do your        |
|     own testing! More info at https://www.vasp.at/wiki/index.php/NCORE      |
|     Unfortunately you need to use the default for GW and RPA                |
|     calculations (for HF NCORE is supported but not extensively tested      |
|     yet).                                                                   |
|                                                                             |
 -----------------------------------------------------------------------------

 -----------------------------------------------------------------------------
|                                                                             |
|               ----> ADVICE to this user running VASP <----                  |
|                                                                             |
|     You have a (more or less) 'large supercell' and for larger cells it     |
|     might be more efficient to use real-space projection operators.         |
|     Therefore, try LREAL= Auto in the INCAR file.                           |
|     Mind: If you want to do very accurate calculations, keep the            |
|     reciprocal projection scheme (i.e. LREAL=.FALSE.).                      |
|                                                                             |
 -----------------------------------------------------------------------------

 LDA part: xc-table for Pade appr. of Perdew
 POSCAR found type information on POSCAR Li
 POSCAR found :  1 types and     504 ions
 POSCAR, INCAR and KPOINTS ok, starting setup
 FFT: planning ...
 WAVECAR not read
 entering main loop
       N       E                     dE             d eps       ncg     rms          rms(c)
DAV:   1    -0.316077864875E+03   -0.31608E+03   -0.12100E+05  4040   0.652E+02
DAV:   2    -0.901047335146E+03   -0.58497E+03   -0.53634E+03  4636   0.662E+01
DAV:   3    -0.942219324211E+03   -0.41172E+02   -0.37518E+02  5136   0.138E+01
DAV:   4    -0.943639208529E+03   -0.14199E+01   -0.13960E+01  4632   0.279E+00
DAV:   5    -0.943671420323E+03   -0.32212E-01   -0.32143E-01  4832   0.449E-01    0.722E+00
DAV:   6    -0.945012287076E+03   -0.13409E+01   -0.64757E+00  4672   0.400E+00    0.716E+00
DAV:   7    -0.937348757075E+03    0.76635E+01   -0.63611E+00  4760   0.358E+00    0.369E+00
DAV:   8    -0.936279666050E+03    0.10691E+01   -0.30438E+00  4536   0.172E+00    0.233E+00
DAV:   9    -0.936201329898E+03    0.78336E-01   -0.16182E+00  4552   0.135E+00    0.195E+00
DAV:  10    -0.935774529551E+03    0.42680E+00   -0.79144E-01  4536   0.910E-01    0.980E-01
DAV:  11    -0.935733758196E+03    0.40771E-01   -0.24180E-01  4352   0.396E-01    0.546E-01
DAV:  12    -0.935748863625E+03   -0.15105E-01   -0.54838E-02  4808   0.284E-01    0.504E-01
DAV:  13    -0.935721446435E+03    0.27417E-01   -0.29929E-02  4680   0.217E-01    0.239E-01
DAV:  14    -0.935723123875E+03   -0.16774E-02   -0.99661E-03  4728   0.127E-01    0.203E-01
DAV:  15    -0.935718815585E+03    0.43083E-02   -0.64737E-03  4664   0.992E-02    0.972E-02
DAV:  16    -0.935718132890E+03    0.68269E-03   -0.21796E-03  4472   0.482E-02    0.492E-02
DAV:  17    -0.935718245706E+03   -0.11282E-03   -0.69687E-04  4560   0.304E-02    0.459E-02
DAV:  18    -0.935717966471E+03    0.27923E-03   -0.38513E-04  4520   0.222E-02    0.188E-02
DAV:  19    -0.935717940378E+03    0.26094E-04   -0.11073E-04  4408   0.101E-02    0.109E-02
DAV:  20    -0.935717924699E+03    0.15679E-04   -0.41512E-05  4008   0.581E-03    0.467E-03
DAV:  21    -0.935717921890E+03    0.28083E-05   -0.67680E-06  2152   0.274E-03
   1 F= -.93571792E+03 E0= -.93565171E+03  d E =-.132417E+00
