Li                                      
           1
   -10.853500   18.798813    0.000000
   -18.606000  -10.742179    0.000000
     0.000000    0.000000   22.765000
   Li
   504
Direct configuration=     1
   0.01906403  0.04509154  0.97431627
   0.92181776  0.05275561  0.65917221
   0.84961259  0.07259009  0.33847060
   0.78730948  0.11403546  0.00573161
   0.70069113  0.18495762  0.66796742
   0.65219824  0.20873006  0.32305052
   0.58211316  0.25011882  0.99834164
   0.50541487  0.29630307  0.67204070
   0.43750632  0.34269712  0.33037703
   0.34576474  0.36677631  0.99181462
   0.28348243  0.43140958  0.67357544
   0.21883577  0.46082703  0.33452146
   0.05580776  0.04538259  0.66726074
   0.01054306  0.09383051  0.35672731
   0.93594595  0.14136359  0.01129719
   0.85418647  0.16514745  0.64694002
   0.77963737  0.19196848  0.33893057
   0.72428260  0.25017292  0.99105487
   0.64390852  0.29517715  0.66174051
   0.57428428  0.33630899  0.33319478
   0.50764836  0.38183013  0.99850754
   0.42755121  0.42620644  0.66479372
   0.35031572  0.46277321  0.33402614
   0.27800822  0.49087932  0.00021120
   0.14076830  0.06134657  0.34319629
   0.08028845  0.15297400  0.99831296
   0.00283907  0.16914822  0.67293328
   0.93008757  0.20401762  0.33778385
   0.86404743  0.25083425  0.99690038
   0.79567747  0.28111164  0.65384820
   0.73166371  0.33855273  0.33189134
   0.64316930  0.37580785  0.99598253
   0.56973583  0.42662983  0.65459721
   0.49078725  0.47040023  0.32558054
   0.42268459  0.49845528  0.00305747
   0.34383953  0.53378805  0.67990576
   0.22430862  0.13683614  0.99481023
   0.14485634  0.16535148  0.66718134
   0.07164499  0.20389143  0.35542688
   0.01397337  0.26468214  0.00322328
   0.93324635  0.28321678  0.66471735
   0.85647825  0.32158545  0.32387697
   0.78823849  0.37313908  0.00265353
   0.71489681  0.40389917  0.65171347
   0.64217716  0.44859542  0.33864088
   0.57974777  0.50645495  0.99280883
   0.48731889  0.53048708  0.67197753
   0.43387930  0.59071225  0.34567020
   0.27283062  0.16145426  0.66404776
   0.21741051  0.19505706  0.33583740
   0.16346463  0.27195333  0.00655622
   0.08240636  0.31384813  0.67039711
   0.00148723  0.32659408  0.34435430
   0.91753399  0.37366566  0.00876104
   0.86522874  0.41927717  0.65717338
   0.79249835  0.44974144  0.33831935
   0.72311023  0.50885239  0.99142740
   0.63443915  0.54285038  0.65722532
   0.58484275  0.57060232  0.31675919
   0.50656364  0.62947423  0.99536410
   0.36752118  0.21444278  0.34805733
   0.29851573  0.25836329  0.00430393
   0.21054833  0.29749114  0.65759407
   0.14841602  0.33705003  0.33672587
   0.05885351  0.38174040  0.00118387
   0.98235061  0.40962517  0.66606377
   0.92244390  0.45140427  0.33260689
   0.84655825  0.50350150  0.98313879
   0.78389206  0.52866058  0.65045853
   0.73702330  0.57833650  0.33259538
   0.64268363  0.61841242  0.99487940
   0.56368510  0.67118203  0.64565607
   0.44215636  0.25774635  0.01435137
   0.34802073  0.29950539  0.68035303
   0.27443352  0.33338057  0.33330274
   0.20044164  0.38042115  0.00361738
   0.14675033  0.41755111  0.65842865
   0.08354054  0.45635215  0.33010042
   0.99115410  0.50565458  0.00048278
   0.93001852  0.54147990  0.66629303
   0.86572380  0.57012659  0.33112089
   0.78129818  0.63160048  0.98788517
   0.71415081  0.66782553  0.65777272
   0.66877128  0.69893618  0.31584682
   0.13959977  0.50452034  0.99520414
   0.08349519  0.54229806  0.67466463
   0.00660023  0.56974670  0.35008862
   0.92586285  0.64740703  0.99941784
   0.84648707  0.66473006  0.66752110
   0.80005406  0.69598306  0.32843186
   0.72122284  0.75058510  0.98260315
   0.20084544  0.54814026  0.67208462
   0.14469307  0.58785064  0.32632965
   0.07862122  0.63752369  0.00183193
   0.98438804  0.67002565  0.65887724
   0.92665538  0.70819095  0.32776637
   0.86457060  0.75987662  0.99398954
   0.79360526  0.78898300  0.65757351
   0.29262614  0.58545735  0.34288604
   0.21237553  0.62178364  0.00219650
   0.13528025  0.67290164  0.67978792
   0.07590763  0.71010974  0.34446642
   0.01377762  0.75863547  0.99711714
   0.91870275  0.81307444  0.66874865
   0.84844322  0.81963503  0.30841272
   0.36244162  0.62941708  0.00311691
   0.27994290  0.67694521  0.66177813
   0.20983536  0.70733365  0.33657803
   0.15637359  0.75678580  0.00755550
   0.05910410  0.79115424  0.67705719
   0.00168022  0.83136212  0.33383413
   0.95411371  0.89765814  0.99539030
   0.42598437  0.66324772  0.66020086
   0.35353261  0.69917964  0.33935161
   0.28883137  0.75119574  0.00522092
   0.19730287  0.79675791  0.66882694
   0.14856901  0.84369457  0.34386187
   0.07958001  0.89173899  0.99969159
   0.98629753  0.91484159  0.67055354
   0.94037923  0.95102670  0.32216638
   0.85277195  0.00799870  0.99572337
   0.78142210  0.05452240  0.67000156
   0.69987847  0.07390146  0.32818496
   0.65010222  0.12795312  0.99611169
   0.56557745  0.17558663  0.66147962
   0.50564853  0.19210737  0.33198238
   0.07255617  0.96324213  0.34214252
   0.14044136  0.01813696  0.99688980
   0.20384966  0.04006753  0.67483939
   0.28215026  0.06180570  0.34616917
   0.37253568  0.14616564  0.01241815
   0.41485127  0.17016250  0.66389534
   0.83917522  0.92836935  0.67688797
   0.79252136  0.95528353  0.32506065
   0.71962598  0.98712400  0.99926592
   0.63484384  0.04144377  0.68164004
   0.57532735  0.07852753  0.33190835
   0.50943641  0.12627347  0.00203463
   0.12703619  0.91561729  0.67032941
   0.21804637  0.94192510  0.33527288
   0.29847815  0.00958276  0.01491739
   0.33962446  0.04090529  0.66961581
   0.43325124  0.07219771  0.33853416
   0.79412831  0.88035081  0.00006731
   0.70254690  0.90609273  0.66227808
   0.64665123  0.94984401  0.33516333
   0.57986664  0.00428433  0.99653824
   0.48327173  0.04900984  0.67377753
   0.22535898  0.88310501  0.98907313
   0.26222616  0.90949825  0.68448325
   0.36368116  0.96783989  0.33378025
   0.43670334  0.99946588  0.02615245
   0.72969703  0.82360856  0.33597184
   0.63449323  0.86867339  0.99598601
   0.55075611  0.90679440  0.66537379
   0.50531082  0.95861244  0.32982113
   0.28637374  0.83187364  0.33259948
   0.35081060  0.86898857  0.99531152
   0.41182299  0.91728526  0.67416851
   0.64724686  0.78591640  0.66372546
   0.57171940  0.81771950  0.30717703
   0.50818538  0.87034993  0.00239311
   0.35598745  0.79016560  0.67599024
   0.42862622  0.82731582  0.34322438
   0.56905876  0.74873706  0.99155378
   0.48849505  0.78903585  0.64792133
   0.41814238  0.74632644  0.99810844
   0.50785787  0.69338100  0.34114951
   0.99267556  0.02454747  0.77621554
   0.92877568  0.04035062  0.45180600
   0.85124604  0.08417331  0.09890839
   0.78019161  0.13093873  0.77111334
   0.72458069  0.14349297  0.43717849
   0.64231843  0.21150780  0.11853900
   0.58081181  0.24665630  0.78598134
   0.50348914  0.27296741  0.43603985
   0.41802435  0.33676489  0.12398727
   0.37384071  0.38348520  0.77811845
   0.28936229  0.41120270  0.43891425
   0.21064824  0.47319710  0.10739304
   0.07775586  0.04660818  0.45439742
   0.99640323  0.10666019  0.11163040
   0.93257096  0.13361545  0.78500724
   0.86706335  0.15888348  0.45457870
   0.78358092  0.19727360  0.10357360
   0.70591724  0.23628666  0.78227478
   0.64637712  0.26494332  0.44309860
   0.55996234  0.32629984  0.11085150
   0.50869752  0.37059338  0.77249660
   0.43898369  0.41861124  0.45119009
   0.36720616  0.45310538  0.10535191
   0.28329533  0.50201502  0.77941614
   0.14643431  0.08698508  0.11807361
   0.08131794  0.13765100  0.76050684
   0.99793273  0.17196410  0.45457570
   0.93492499  0.23345664  0.11725203
   0.86804108  0.23914115  0.76829360
   0.79411163  0.28508582  0.45759481
   0.71500263  0.32315705  0.09871226
   0.65355943  0.35599111  0.76858814
   0.56984367  0.42191928  0.44106159
   0.50959857  0.45697334  0.09853521
   0.43189032  0.49279911  0.78243706
   0.34963226  0.52778010  0.43813377
   0.20829275  0.12154315  0.77150234
   0.14427711  0.15581159  0.45023396
   0.07331437  0.22397995  0.10562772
   0.01179156  0.25963328  0.77600111
   0.91509588  0.29358451  0.44305585
   0.83850178  0.33079024  0.11626852
   0.80223742  0.36693209  0.75577196
   0.71296271  0.40079491  0.44762830
   0.64994832  0.45550722  0.12103059
   0.57483919  0.47714405  0.77015845
   0.49686029  0.54282669  0.44860236
   0.44257070  0.57999044  0.10482055
   0.30098788  0.16922849  0.44081270
   0.21927856  0.21332905  0.12305215
   0.13818535  0.25306842  0.75941829
   0.07594673  0.28920504  0.45387341
   0.98773402  0.34731656  0.10432869
   0.93057614  0.37415095  0.78922596
   0.86346647  0.42101960  0.43839568
   0.78259511  0.46037084  0.10540534
   0.70975810  0.49441365  0.77471518
   0.65728504  0.53819884  0.43820608
   0.55898196  0.58048440  0.10322574
   0.50408502  0.61496565  0.77671775
   0.35633373  0.20365826  0.12769879
   0.28432119  0.24412729  0.77805407
   0.22158810  0.28281400  0.44401742
   0.12758391  0.32957377  0.11526756
   0.06655866  0.39431840  0.78268423
   0.99185243  0.40977225  0.43225506
   0.92522024  0.45454905  0.10864993
   0.86258317  0.49179991  0.76577000
   0.79253300  0.52080823  0.44394847
   0.71372878  0.58076722  0.09891887
   0.63895443  0.61630887  0.76895446
   0.57103619  0.65975810  0.42965982
   0.43178775  0.24072680  0.77710755
   0.35217448  0.30865217  0.45889350
   0.28405026  0.34548347  0.11278559
   0.22122634  0.38166056  0.78679998
   0.14350704  0.41427195  0.44216262
   0.06657632  0.45335535  0.11850140
   0.99324252  0.50029389  0.78968281
   0.93399128  0.53570734  0.45370321
   0.85975409  0.58951050  0.10527833
   0.78144587  0.62572716  0.76711405
   0.72340066  0.66451161  0.43122297
   0.63767000  0.69601447  0.08753979
   0.14258642  0.48447270  0.78362132
   0.07059731  0.53462527  0.45328498
   0.00376117  0.58022267  0.11107568
   0.92774703  0.60728816  0.77744191
   0.86405795  0.64668343  0.43448232
   0.78842756  0.72067453  0.09390059
   0.70350101  0.74135233  0.77429892
   0.20717578  0.54006497  0.44250342
   0.12749315  0.58090493  0.11139282
   0.06233013  0.61231057  0.77161193
   0.00349973  0.66742279  0.45520561
   0.94752814  0.70533143  0.10396818
   0.84901169  0.75142202  0.77822259
   0.80463390  0.77404063  0.44385136
   0.29604508  0.58735227  0.11536839
   0.21170430  0.62629412  0.77185159
   0.14772445  0.66168948  0.45540798
   0.06579325  0.71374531  0.11555543
   0.99697060  0.76005673  0.77777855
   0.93214367  0.77856700  0.44214428
   0.87225578  0.83489103  0.11040826
   0.34076807  0.60512778  0.76863454
   0.28183038  0.66799667  0.46515458
   0.21380264  0.71415017  0.12144494
   0.14564461  0.75067183  0.79220116
   0.07389755  0.78809403  0.45470519
   0.00781184  0.82886705  0.10487210
   0.92290206  0.89176732  0.77596255
   0.41216717  0.66846944  0.43840677
   0.37604454  0.69802069  0.12042499
   0.28916262  0.75489283  0.77901703
   0.21901158  0.77888893  0.45100324
   0.14001975  0.83504089  0.10451144
   0.05563484  0.88893844  0.78112207
   0.00248335  0.92152520  0.44810050
   0.94144953  0.97777904  0.09731267
   0.84830158  0.99315412  0.78407685
   0.79171648  0.03772031  0.44940768
   0.71253547  0.06654874  0.09769632
   0.63486433  0.11125405  0.78130819
   0.58301463  0.13991652  0.44278966
   0.49118217  0.20861851  0.11966144
   0.07130145  0.96552396  0.10537992
   0.13332648  0.99431405  0.77351750
   0.19674191  0.04335586  0.45496731
   0.29468518  0.09174384  0.12449751
   0.34785027  0.10920615  0.77714899
   0.42397252  0.16421356  0.43775754
   0.86555044  0.90926939  0.44359560
   0.81297915  0.95672253  0.10791168
   0.70407836  0.99538710  0.78230173
   0.65047244  0.03660283  0.45463829
   0.58066760  0.09198010  0.09647710
   0.48511463  0.13418404  0.78755592
   0.15975471  0.92669203  0.46135027
   0.20690691  0.95413020  0.11320470
   0.29100398  0.00318817  0.76814034
   0.35321597  0.02568718  0.44181997
   0.44721737  0.07759894  0.12149696
   0.78170293  0.87169108  0.77042432
   0.73127000  0.91303476  0.44740157
   0.64753498  0.95365297  0.11242935
   0.55447434  0.00326339  0.78169338
   0.49877385  0.03776496  0.44861581
   0.20372012  0.88042243  0.78785335
   0.28307896  0.92039471  0.44919510
   0.34797742  0.95304130  0.11700885
   0.41688667  0.99291841  0.78518813
   0.72174223  0.83346530  0.10796202
   0.63311910  0.87804573  0.77253230
   0.56781291  0.92381302  0.44110617
   0.50280107  0.95123816  0.12850857
   0.28824093  0.82720094  0.11076756
   0.35400268  0.87933594  0.79234362
   0.43557417  0.91512583  0.43546139
   0.64165984  0.78745125  0.42504202
   0.58043320  0.83988008  0.11242972
   0.48032663  0.86496901  0.78318045
   0.34817526  0.77863700  0.44225194
   0.44005290  0.83221478  0.11446332
   0.55361622  0.75717917  0.76084153
   0.49195316  0.79470734  0.44344333
   0.42428396  0.74015215  0.76973160
   0.51461276  0.71624168  0.10500391
   0.98966190  0.01942947  0.21228136
   0.92840114  0.06515857  0.88997062
   0.84900509  0.08098795  0.55968967
   0.78345222  0.12241557  0.21686593
   0.71918372  0.16545831  0.87368957
   0.64011135  0.20230624  0.55732779
   0.56798461  0.24604496  0.21543455
   0.50475932  0.29328450  0.88527145
   0.41772931  0.33586622  0.56028864
   0.35820489  0.36533879  0.22325321
   0.27667558  0.43004487  0.88645572
   0.21101001  0.46415463  0.55366229
   0.09119018  0.05825566  0.88620085
   0.00566042  0.09552265  0.54052197
   0.92647120  0.12042699  0.22009582
   0.85806501  0.16285218  0.89906675
   0.79247249  0.20153452  0.56004267
   0.72748891  0.25654766  0.22921198
   0.64707931  0.28752628  0.88647547
   0.56569928  0.32890583  0.55796532
   0.49460044  0.37321325  0.23468600
   0.43963974  0.42490330  0.89415536
   0.35586670  0.45992758  0.55852403
   0.30124979  0.49936004  0.22406566
   0.13085729  0.08295007  0.57452600
   0.06676934  0.12164422  0.24091835
   0.01305430  0.18147599  0.89010055
   0.93386153  0.20176182  0.54987543
   0.84946644  0.23372835  0.22722310
   0.79357373  0.29234509  0.87981442
   0.71586628  0.32122809  0.54303149
   0.64568816  0.37178966  0.23337422
   0.58326488  0.41792909  0.87758452
   0.49603931  0.45156091  0.55396451
   0.42092018  0.50735604  0.22437073
   0.35443850  0.53920030  0.89790558
   0.21136955  0.12805908  0.22220848
   0.15902212  0.19137750  0.88701227
   0.07433485  0.21203806  0.57651561
   0.00358200  0.25334397  0.22668899
   0.93576053  0.28634346  0.88215632
   0.85855007  0.32241532  0.56401348
   0.78918976  0.37639341  0.23473194
   0.72942967  0.41574405  0.87643085
   0.65915344  0.45918702  0.54204784
   0.56300826  0.47631406  0.21916582
   0.51001101  0.54849275  0.89208375
   0.41340005  0.57464418  0.54845738
   0.28626188  0.18847169  0.88576080
   0.22059309  0.20572639  0.54788820
   0.13803400  0.25801543  0.23785939
   0.07020201  0.29619264  0.89113234
   0.98711627  0.33397878  0.54275480
   0.92935019  0.36822894  0.21523143
   0.85352602  0.41842690  0.88573885
   0.78651582  0.45363758  0.55065130
   0.71835957  0.48337126  0.24107708
   0.63946231  0.54453449  0.87984242
   0.57327090  0.57816841  0.55005760
   0.51183488  0.63784634  0.22340679
   0.34453719  0.21770943  0.55461978
   0.28721432  0.25523453  0.22073252
   0.20269269  0.30709778  0.89735471
   0.14574819  0.32771636  0.54800583
   0.07700248  0.37800770  0.21886130
   0.99597283  0.41056790  0.90490423
   0.93035902  0.45994369  0.54925475
   0.85487318  0.49653849  0.20959925
   0.78695857  0.54409582  0.87297733
   0.71557505  0.57982836  0.56057373
   0.65288976  0.58943662  0.20050788
   0.56372303  0.66651250  0.88011354
   0.43220926  0.24120341  0.22287125
   0.36293315  0.29349099  0.89167517
   0.27936638  0.34065501  0.55964859
   0.22374455  0.37717127  0.22585660
   0.13063454  0.42741751  0.88864811
   0.05746542  0.44679058  0.55537987
   0.98923923  0.49233006  0.22833230
   0.92443188  0.55109410  0.89675035
   0.86733656  0.56743518  0.56913060
   0.79027164  0.62232150  0.22319789
   0.70465059  0.66790511  0.87217542
   0.64313237  0.69111896  0.53818024
   0.15070338  0.50187125  0.20691164
   0.06546496  0.54537212  0.89713733
   0.99817941  0.57929660  0.55145508
   0.92884652  0.61750006  0.23410313
   0.84929752  0.68312367  0.88807346
   0.79506462  0.70225602  0.55479340
   0.72701952  0.75167814  0.21182444
   0.21343449  0.55063382  0.88681697
   0.14281155  0.57291351  0.55911404
   0.06633393  0.62278742  0.23245756
   0.98108884  0.67048262  0.89178956
   0.91337700  0.71990728  0.55714494
   0.86881694  0.75403656  0.20696866
   0.78447882  0.80710628  0.88900652
   0.27516121  0.57969141  0.56955142
   0.21846929  0.62132283  0.21286847
   0.12394815  0.66778181  0.88946274
   0.05794698  0.70774025  0.55960449
   0.99890868  0.75937379  0.23622405
   0.91755570  0.79561988  0.89738989
   0.85747033  0.83858569  0.56176605
   0.35811699  0.63619316  0.22121563
   0.26955667  0.67852353  0.89304364
   0.19671544  0.69971482  0.56166110
   0.14243058  0.74266255  0.22789445
   0.07423189  0.80519544  0.89378480
   0.99877413  0.82386054  0.55332269
   0.93761158  0.87943137  0.21103422
   0.42593750  0.66906524  0.88574453
   0.35700376  0.69371690  0.56141921
   0.28590623  0.73740613  0.22529978
   0.21791827  0.79305492  0.89700475
   0.14104687  0.82917039  0.56355824
   0.07654719  0.88041842  0.22358657
   0.00187621  0.94043568  0.89043802
   0.93606218  0.96796581  0.56785381
   0.86032953  0.99870681  0.21275399
   0.78183273  0.04363714  0.88541507
   0.70701634  0.08652274  0.57170916
   0.62981273  0.12559693  0.20536209
   0.57291392  0.17091016  0.88398425
   0.49620594  0.20586598  0.54955212
   0.06508775  0.94883908  0.56826218
   0.14247544  0.00736148  0.23032754
   0.22421848  0.05557264  0.88241816
   0.28043104  0.08565989  0.53938934
   0.35819932  0.11543979  0.23408208
   0.42871293  0.17217773  0.90574945
   0.86041227  0.93253351  0.87301944
   0.77645126  0.96737548  0.55794882
   0.72892963  0.99321982  0.22305081
   0.64269875  0.04510988  0.88822932
   0.56548022  0.07507578  0.56981776
   0.49656637  0.11775451  0.23067228
   0.14449647  0.92584632  0.89202329
   0.20406662  0.96103714  0.56723365
   0.26688215  0.98177686  0.23128796
   0.36772737  0.06122454  0.90143956
   0.42429548  0.08710180  0.56286012
   0.79758498  0.87994419  0.22038624
   0.71497768  0.92365669  0.90006461
   0.63610538  0.93939896  0.55585075
   0.58320523  0.99420991  0.22366179
   0.50040317  0.05094435  0.89225778
   0.19811257  0.87996797  0.22203677
   0.27945267  0.93778302  0.89044225
   0.35253832  0.96633499  0.55607097
   0.42337153  0.00892437  0.23919526
   0.71536434  0.82809114  0.54126567
   0.64380108  0.87217823  0.22575186
   0.57267948  0.93331284  0.88543309
   0.48319266  0.95683253  0.55794138
   0.28309306  0.81440888  0.56708198
   0.36623914  0.86929333  0.22978443
   0.42623121  0.93986720  0.89921207
   0.63249405  0.79635525  0.88206714
   0.55607059  0.83337925  0.55306569
   0.50443255  0.87808088  0.21786954
   0.36206757  0.81057792  0.88847597
   0.40683687  0.82233552  0.54910282
   0.58314789  0.74107153  0.21023127
   0.48796415  0.79674969  0.87821847
   0.43728867  0.75483458  0.21680478
   0.49056148  0.70179083  0.53317708
