 504 504   0   0
  0.1982611E+02  0.2127286E-08  0.2105467E-08  0.2230970E-08  0.5000000E-15
  1.000000000000000E-004
  CAR 
 Li                                      
      3.62386426     -3.42005548  301      0.46276896      1.00000000
     -3.420  0.0000E+00  0.0000E+00
     -3.397  0.0000E+00  0.0000E+00
     -3.373  0.0000E+00  0.0000E+00
     -3.350  0.0000E+00  0.0000E+00
     -3.326  0.0000E+00  0.0000E+00
     -3.303  0.0000E+00  0.0000E+00
     -3.279  0.0000E+00  0.0000E+00
     -3.256  0.8652E-11  0.2031E-12
     -3.232  0.1865E-07  0.4380E-09
     -3.209  0.1213E-04  0.2852E-06
     -3.185  0.2402E-02  0.5670E-04
     -3.162  0.1470E+00  0.3508E-02
     -3.138  0.2828E+01  0.6991E-01
     -3.115  0.1748E+02  0.4804E+00
     -3.091  0.3541E+02  0.1312E+01
     -3.068  0.2373E+02  0.1869E+01
     -3.044  0.5867E+01  0.2007E+01
     -3.021  0.9489E+01  0.2229E+01
     -2.997  0.4742E+02  0.3343E+01
     -2.974  0.9594E+02  0.5596E+01
     -2.950  0.7653E+02  0.7392E+01
     -2.927  0.2360E+02  0.7946E+01
     -2.904  0.8854E+01  0.8154E+01
     -2.880  0.3986E+02  0.9090E+01
     -2.857  0.9248E+02  0.1126E+02
     -2.833  0.8320E+02  0.1322E+02
     -2.810  0.3119E+02  0.1395E+02
     -2.786  0.1918E+02  0.1440E+02
     -2.763  0.5198E+02  0.1562E+02
     -2.739  0.9750E+02  0.1791E+02
     -2.716  0.1076E+03  0.2043E+02
     -2.692  0.5669E+02  0.2177E+02
     -2.669  0.2900E+02  0.2245E+02
     -2.645  0.7118E+02  0.2412E+02
     -2.622  0.1333E+03  0.2725E+02
     -2.598  0.1552E+03  0.3089E+02
     -2.575  0.1006E+03  0.3325E+02
     -2.551  0.3308E+02  0.3403E+02
     -2.528  0.2965E+02  0.3473E+02
     -2.504  0.6861E+02  0.3634E+02
     -2.481  0.8797E+02  0.3840E+02
     -2.457  0.6081E+02  0.3983E+02
     -2.434  0.4396E+02  0.4086E+02
     -2.410  0.6236E+02  0.4233E+02
     -2.387  0.9593E+02  0.4458E+02
     -2.363  0.1275E+03  0.4757E+02
     -2.340  0.1257E+03  0.5052E+02
     -2.317  0.9689E+02  0.5280E+02
     -2.293  0.9940E+02  0.5513E+02
     -2.270  0.1259E+03  0.5809E+02
     -2.246  0.1707E+03  0.6210E+02
     -2.223  0.1835E+03  0.6641E+02
     -2.199  0.1229E+03  0.6929E+02
     -2.176  0.6417E+02  0.7080E+02
     -2.152  0.4388E+02  0.7183E+02
     -2.129  0.4737E+02  0.7294E+02
     -2.105  0.6964E+02  0.7458E+02
     -2.082  0.6287E+02  0.7605E+02
     -2.058  0.7317E+02  0.7777E+02
     -2.035  0.1153E+03  0.8048E+02
     -2.011  0.1442E+03  0.8386E+02
     -1.988  0.1493E+03  0.8737E+02
     -1.964  0.1281E+03  0.9038E+02
     -1.941  0.9879E+02  0.9270E+02
     -1.917  0.1059E+03  0.9518E+02
     -1.894  0.1355E+03  0.9836E+02
     -1.870  0.1827E+03  0.1027E+03
     -1.847  0.2026E+03  0.1074E+03
     -1.823  0.1367E+03  0.1106E+03
     -1.800  0.5266E+02  0.1119E+03
     -1.776  0.3420E+02  0.1127E+03
     -1.753  0.8764E+02  0.1147E+03
     -1.730  0.1399E+03  0.1180E+03
     -1.706  0.1351E+03  0.1212E+03
     -1.683  0.1231E+03  0.1241E+03
     -1.659  0.1444E+03  0.1275E+03
     -1.636  0.1636E+03  0.1313E+03
     -1.612  0.1811E+03  0.1355E+03
     -1.589  0.1736E+03  0.1396E+03
     -1.565  0.1231E+03  0.1425E+03
     -1.542  0.1139E+03  0.1452E+03
     -1.518  0.1367E+03  0.1484E+03
     -1.495  0.1580E+03  0.1521E+03
     -1.471  0.1665E+03  0.1560E+03
     -1.448  0.1342E+03  0.1592E+03
     -1.424  0.9680E+02  0.1614E+03
     -1.401  0.9261E+02  0.1636E+03
     -1.377  0.1061E+03  0.1661E+03
     -1.354  0.1003E+03  0.1685E+03
     -1.330  0.9437E+02  0.1707E+03
     -1.307  0.1235E+03  0.1736E+03
     -1.283  0.1484E+03  0.1771E+03
     -1.260  0.1381E+03  0.1803E+03
     -1.236  0.1477E+03  0.1838E+03
     -1.213  0.1706E+03  0.1878E+03
     -1.189  0.1638E+03  0.1916E+03
     -1.166  0.1614E+03  0.1954E+03
     -1.143  0.1877E+03  0.1998E+03
     -1.119  0.2317E+03  0.2053E+03
     -1.096  0.2396E+03  0.2109E+03
     -1.072  0.2054E+03  0.2157E+03
     -1.049  0.1747E+03  0.2198E+03
     -1.025  0.1606E+03  0.2236E+03
     -1.002  0.1490E+03  0.2271E+03
     -0.978  0.1260E+03  0.2300E+03
     -0.955  0.8686E+02  0.2321E+03
     -0.931  0.9879E+02  0.2344E+03
     -0.908  0.1591E+03  0.2381E+03
     -0.884  0.1653E+03  0.2420E+03
     -0.861  0.1391E+03  0.2453E+03
     -0.837  0.1484E+03  0.2488E+03
     -0.814  0.1695E+03  0.2527E+03
     -0.790  0.2007E+03  0.2575E+03
     -0.767  0.2057E+03  0.2623E+03
     -0.743  0.1670E+03  0.2662E+03
     -0.720  0.1327E+03  0.2693E+03
     -0.696  0.1111E+03  0.2719E+03
     -0.673  0.1345E+03  0.2751E+03
     -0.649  0.1812E+03  0.2793E+03
     -0.626  0.1635E+03  0.2832E+03
     -0.602  0.1378E+03  0.2864E+03
     -0.579  0.1483E+03  0.2899E+03
     -0.556  0.1766E+03  0.2940E+03
     -0.532  0.2222E+03  0.2993E+03
     -0.509  0.2498E+03  0.3051E+03
     -0.485  0.2300E+03  0.3105E+03
     -0.462  0.1921E+03  0.3150E+03
     -0.438  0.1853E+03  0.3194E+03
     -0.415  0.2193E+03  0.3245E+03
     -0.391  0.2390E+03  0.3302E+03
     -0.368  0.2139E+03  0.3352E+03
     -0.344  0.1757E+03  0.3393E+03
     -0.321  0.1377E+03  0.3425E+03
     -0.297  0.1482E+03  0.3460E+03
     -0.274  0.1862E+03  0.3504E+03
     -0.250  0.1823E+03  0.3547E+03
     -0.227  0.1450E+03  0.3581E+03
     -0.203  0.1390E+03  0.3613E+03
     -0.180  0.1769E+03  0.3655E+03
     -0.156  0.2038E+03  0.3703E+03
     -0.133  0.2092E+03  0.3752E+03
     -0.109  0.2035E+03  0.3800E+03
     -0.086  0.1867E+03  0.3843E+03
     -0.062  0.1911E+03  0.3888E+03
     -0.039  0.2164E+03  0.3939E+03
     -0.015  0.2429E+03  0.3996E+03
      0.008  0.2765E+03  0.4061E+03
      0.031  0.2811E+03  0.4127E+03
      0.055  0.2349E+03  0.4182E+03
      0.078  0.1849E+03  0.4226E+03
      0.102  0.1746E+03  0.4267E+03
      0.125  0.1964E+03  0.4313E+03
      0.149  0.2098E+03  0.4362E+03
      0.172  0.2105E+03  0.4412E+03
      0.196  0.2132E+03  0.4462E+03
      0.219  0.2088E+03  0.4511E+03
      0.243  0.1932E+03  0.4556E+03
      0.266  0.1776E+03  0.4598E+03
      0.290  0.1787E+03  0.4640E+03
      0.313  0.1844E+03  0.4683E+03
      0.337  0.1849E+03  0.4726E+03
      0.360  0.1920E+03  0.4771E+03
      0.384  0.2151E+03  0.4822E+03
      0.407  0.2400E+03  0.4878E+03
      0.431  0.2767E+03  0.4943E+03
      0.454  0.3009E+03  0.5014E+03
      0.478  0.2981E+03  0.5084E+03
      0.501  0.2843E+03  0.5151E+03
      0.525  0.2746E+03  0.5215E+03
      0.548  0.2789E+03  0.5281E+03
      0.571  0.2919E+03  0.5349E+03
      0.595  0.3125E+03  0.5422E+03
      0.618  0.3130E+03  0.5496E+03
      0.642  0.2775E+03  0.5561E+03
      0.665  0.2491E+03  0.5620E+03
      0.689  0.2322E+03  0.5674E+03
      0.712  0.2268E+03  0.5727E+03
      0.736  0.2420E+03  0.5784E+03
      0.759  0.2465E+03  0.5842E+03
      0.783  0.2105E+03  0.5891E+03
      0.806  0.1759E+03  0.5933E+03
      0.830  0.1871E+03  0.5977E+03
      0.853  0.2114E+03  0.6026E+03
      0.877  0.2289E+03  0.6080E+03
      0.900  0.2310E+03  0.6134E+03
      0.924  0.2134E+03  0.6184E+03
      0.947  0.1951E+03  0.6230E+03
      0.971  0.1900E+03  0.6275E+03
      0.994  0.1825E+03  0.6318E+03
      1.018  0.1775E+03  0.6359E+03
      1.041  0.2021E+03  0.6407E+03
      1.065  0.2384E+03  0.6463E+03
      1.088  0.2571E+03  0.6523E+03
      1.112  0.2555E+03  0.6583E+03
      1.135  0.2453E+03  0.6641E+03
      1.158  0.2428E+03  0.6698E+03
      1.182  0.2417E+03  0.6755E+03
      1.205  0.2299E+03  0.6808E+03
      1.229  0.2168E+03  0.6859E+03
      1.252  0.2131E+03  0.6909E+03
      1.276  0.2168E+03  0.6960E+03
      1.299  0.2308E+03  0.7015E+03
      1.323  0.2329E+03  0.7069E+03
      1.346  0.2273E+03  0.7123E+03
      1.370  0.2354E+03  0.7178E+03
      1.393  0.2297E+03  0.7232E+03
      1.417  0.2116E+03  0.7281E+03
      1.440  0.1979E+03  0.7328E+03
      1.464  0.1859E+03  0.7372E+03
      1.487  0.1892E+03  0.7416E+03
      1.511  0.2113E+03  0.7466E+03
      1.534  0.2259E+03  0.7519E+03
      1.558  0.2234E+03  0.7571E+03
      1.581  0.2042E+03  0.7619E+03
      1.605  0.1874E+03  0.7663E+03
      1.628  0.1941E+03  0.7709E+03
      1.652  0.2111E+03  0.7758E+03
      1.675  0.2208E+03  0.7810E+03
      1.699  0.2287E+03  0.7864E+03
      1.722  0.2280E+03  0.7917E+03
      1.745  0.2143E+03  0.7968E+03
      1.769  0.2111E+03  0.8017E+03
      1.792  0.2174E+03  0.8068E+03
      1.816  0.2338E+03  0.8123E+03
      1.839  0.2533E+03  0.8183E+03
      1.863  0.2567E+03  0.8243E+03
      1.886  0.2367E+03  0.8298E+03
      1.910  0.2171E+03  0.8349E+03
      1.933  0.1951E+03  0.8395E+03
      1.957  0.1804E+03  0.8438E+03
      1.980  0.1871E+03  0.8481E+03
      2.004  0.1981E+03  0.8528E+03
      2.027  0.2048E+03  0.8576E+03
      2.051  0.2037E+03  0.8624E+03
      2.074  0.2022E+03  0.8671E+03
      2.098  0.2041E+03  0.8719E+03
      2.121  0.2011E+03  0.8767E+03
      2.145  0.1953E+03  0.8812E+03
      2.168  0.1901E+03  0.8857E+03
      2.192  0.1814E+03  0.8900E+03
      2.215  0.1757E+03  0.8941E+03
      2.239  0.1645E+03  0.8979E+03
      2.262  0.1548E+03  0.9016E+03
      2.286  0.1573E+03  0.9053E+03
      2.309  0.1573E+03  0.9090E+03
      2.332  0.1383E+03  0.9122E+03
      2.356  0.1230E+03  0.9151E+03
      2.379  0.1380E+03  0.9183E+03
      2.403  0.1581E+03  0.9221E+03
      2.426  0.1688E+03  0.9260E+03
      2.450  0.1579E+03  0.9297E+03
      2.473  0.1355E+03  0.9329E+03
      2.497  0.1200E+03  0.9357E+03
      2.520  0.1141E+03  0.9384E+03
      2.544  0.1216E+03  0.9413E+03
      2.567  0.1362E+03  0.9445E+03
      2.591  0.1528E+03  0.9480E+03
      2.614  0.1517E+03  0.9516E+03
      2.638  0.1389E+03  0.9549E+03
      2.661  0.1378E+03  0.9581E+03
      2.685  0.1382E+03  0.9613E+03
      2.708  0.1367E+03  0.9646E+03
      2.732  0.1341E+03  0.9677E+03
      2.755  0.1202E+03  0.9705E+03
      2.779  0.1162E+03  0.9733E+03
      2.802  0.1212E+03  0.9761E+03
      2.826  0.1180E+03  0.9789E+03
      2.849  0.1192E+03  0.9817E+03
      2.873  0.1280E+03  0.9847E+03
      2.896  0.1245E+03  0.9876E+03
      2.919  0.1106E+03  0.9902E+03
      2.943  0.1128E+03  0.9928E+03
      2.966  0.1213E+03  0.9957E+03
      2.990  0.1218E+03  0.9986E+03
      3.013  0.1108E+03  0.1001E+04
      3.037  0.8118E+02  0.1003E+04
      3.060  0.3870E+02  0.1004E+04
      3.084  0.2396E+02  0.1005E+04
      3.107  0.3074E+02  0.1005E+04
      3.131  0.3184E+02  0.1006E+04
      3.154  0.2847E+02  0.1007E+04
      3.178  0.2838E+02  0.1007E+04
      3.201  0.2028E+02  0.1008E+04
      3.225  0.7173E+01  0.1008E+04
      3.248  0.4002E+01  0.1008E+04
      3.272  0.1529E+02  0.1008E+04
      3.295  0.3108E+02  0.1009E+04
      3.319  0.2594E+02  0.1010E+04
      3.342  0.8558E+01  0.1010E+04
      3.366  0.1059E+01  0.1010E+04
      3.389  0.4648E-01  0.1010E+04
      3.413  0.6866E-03  0.1010E+04
      3.436  0.3273E-05  0.1010E+04
      3.460  0.4878E-08  0.1010E+04
      3.483  0.2229E-11  0.1010E+04
      3.506  0.0000E+00  0.1010E+04
      3.530  0.0000E+00  0.1010E+04
      3.553  0.0000E+00  0.1010E+04
      3.577  0.0000E+00  0.1010E+04
      3.600  0.0000E+00  0.1010E+04
      3.624  0.0000E+00  0.1010E+04
