       N       E                     dE             d eps       ncg     rms          rms(c)
DAV:   1    -0.304405093027E+03   -0.30441E+03   -0.12303E+05  4040   0.658E+02
DAV:   2    -0.906181289705E+03   -0.60178E+03   -0.55172E+03  4644   0.678E+01
DAV:   3    -0.947737420443E+03   -0.41556E+02   -0.37753E+02  5104   0.140E+01
DAV:   4    -0.949147032057E+03   -0.14096E+01   -0.13853E+01  4616   0.281E+00
DAV:   5    -0.949178180359E+03   -0.31148E-01   -0.31087E-01  4776   0.449E-01    0.740E+00
DAV:   6    -0.952459189048E+03   -0.32810E+01   -0.79219E+00  4600   0.444E+00    0.796E+00
DAV:   7    -0.942802531561E+03    0.96567E+01   -0.73416E+00  4616   0.405E+00    0.398E+00
DAV:   8    -0.941345882144E+03    0.14566E+01   -0.34050E+00  4512   0.187E+00    0.238E+00
DAV:   9    -0.941192638578E+03    0.15324E+00   -0.16013E+00  4520   0.131E+00    0.189E+00
DAV:  10    -0.940854078661E+03    0.33856E+00   -0.75792E-01  4520   0.885E-01    0.107E+00
DAV:  11    -0.940798656643E+03    0.55422E-01   -0.23541E-01  4424   0.420E-01    0.636E-01
DAV:  12    -0.940808077920E+03   -0.94213E-02   -0.70954E-02  4696   0.324E-01    0.572E-01
DAV:  13    -0.940775264633E+03    0.32813E-01   -0.34195E-02  4624   0.229E-01    0.263E-01
DAV:  14    -0.940777776386E+03   -0.25118E-02   -0.12191E-02  4672   0.145E-01    0.238E-01
DAV:  15    -0.940771804744E+03    0.59716E-02   -0.78006E-03  4608   0.108E-01    0.961E-02
DAV:  16    -0.940771185943E+03    0.61880E-03   -0.25518E-03  4432   0.502E-02    0.510E-02
DAV:  17    -0.940771316736E+03   -0.13079E-03   -0.79105E-04  4552   0.315E-02    0.489E-02
DAV:  18    -0.940770984840E+03    0.33190E-03   -0.44302E-04  4520   0.234E-02    0.174E-02
DAV:  19    -0.940770959863E+03    0.24977E-04   -0.11203E-04  4392   0.999E-03    0.105E-02
DAV:  20    -0.940770943259E+03    0.16603E-04   -0.35390E-05  3472   0.568E-03    0.505E-03
DAV:  21    -0.940770941113E+03    0.21458E-05   -0.62984E-06  2320   0.347E-03
   1 F= -.94077094E+03 E0= -.94070348E+03  d E =-.134919E+00
