 504 504   0   0
  0.1922536E+02  0.2105579E-08  0.2083983E-08  0.2208205E-08  0.5000000E-15
  1.000000000000000E-004
  CAR 
 Li                                      
      3.64427226     -3.35962524  301      0.53194814      1.00000000
     -3.360  0.0000E+00  0.0000E+00
     -3.336  0.0000E+00  0.0000E+00
     -3.313  0.0000E+00  0.0000E+00
     -3.290  0.0000E+00  0.0000E+00
     -3.266  0.0000E+00  0.0000E+00
     -3.243  0.0000E+00  0.0000E+00
     -3.220  0.0000E+00  0.0000E+00
     -3.196  0.1124E-10  0.2624E-12
     -3.173  0.2241E-07  0.5235E-09
     -3.150  0.1368E-04  0.3199E-06
     -3.126  0.2578E-02  0.6051E-04
     -3.103  0.1521E+00  0.3611E-02
     -3.079  0.2858E+01  0.7034E-01
     -3.056  0.1747E+02  0.4782E+00
     -3.033  0.3539E+02  0.1304E+01
     -3.009  0.2400E+02  0.1865E+01
     -2.986  0.6301E+01  0.2012E+01
     -2.963  0.1100E+02  0.2269E+01
     -2.939  0.4764E+02  0.3381E+01
     -2.916  0.9011E+02  0.5485E+01
     -2.893  0.7600E+02  0.7259E+01
     -2.869  0.2811E+02  0.7915E+01
     -2.846  0.1154E+02  0.8185E+01
     -2.823  0.4065E+02  0.9134E+01
     -2.799  0.8684E+02  0.1116E+02
     -2.776  0.8154E+02  0.1306E+02
     -2.753  0.3577E+02  0.1390E+02
     -2.729  0.2110E+02  0.1439E+02
     -2.706  0.5072E+02  0.1558E+02
     -2.683  0.8802E+02  0.1763E+02
     -2.659  0.1014E+03  0.2000E+02
     -2.636  0.6697E+02  0.2156E+02
     -2.613  0.3459E+02  0.2237E+02
     -2.589  0.6863E+02  0.2397E+02
     -2.566  0.1258E+03  0.2691E+02
     -2.543  0.1390E+03  0.3015E+02
     -2.519  0.1039E+03  0.3258E+02
     -2.496  0.5144E+02  0.3378E+02
     -2.472  0.3384E+02  0.3457E+02
     -2.449  0.6415E+02  0.3607E+02
     -2.426  0.8476E+02  0.3805E+02
     -2.402  0.6658E+02  0.3960E+02
     -2.379  0.4915E+02  0.4075E+02
     -2.356  0.5941E+02  0.4214E+02
     -2.332  0.8653E+02  0.4416E+02
     -2.309  0.1124E+03  0.4678E+02
     -2.286  0.1162E+03  0.4949E+02
     -2.262  0.1132E+03  0.5214E+02
     -2.239  0.1099E+03  0.5470E+02
     -2.216  0.1144E+03  0.5737E+02
     -2.192  0.1460E+03  0.6078E+02
     -2.169  0.1655E+03  0.6464E+02
     -2.146  0.1377E+03  0.6786E+02
     -2.122  0.9450E+02  0.7006E+02
     -2.099  0.6041E+02  0.7147E+02
     -2.076  0.4445E+02  0.7251E+02
     -2.052  0.6088E+02  0.7393E+02
     -2.029  0.7095E+02  0.7559E+02
     -2.006  0.7247E+02  0.7728E+02
     -1.982  0.9519E+02  0.7950E+02
     -1.959  0.1216E+03  0.8234E+02
     -1.935  0.1427E+03  0.8568E+02
     -1.912  0.1480E+03  0.8913E+02
     -1.889  0.1202E+03  0.9194E+02
     -1.865  0.9992E+02  0.9427E+02
     -1.842  0.1167E+03  0.9699E+02
     -1.819  0.1495E+03  0.1005E+03
     -1.795  0.1790E+03  0.1047E+03
     -1.772  0.1649E+03  0.1085E+03
     -1.749  0.1046E+03  0.1110E+03
     -1.725  0.4961E+02  0.1121E+03
     -1.702  0.6048E+02  0.1135E+03
     -1.679  0.1178E+03  0.1163E+03
     -1.655  0.1452E+03  0.1197E+03
     -1.632  0.1318E+03  0.1227E+03
     -1.609  0.1259E+03  0.1257E+03
     -1.585  0.1435E+03  0.1290E+03
     -1.562  0.1655E+03  0.1329E+03
     -1.539  0.1729E+03  0.1369E+03
     -1.515  0.1528E+03  0.1405E+03
     -1.492  0.1209E+03  0.1433E+03
     -1.469  0.1181E+03  0.1461E+03
     -1.445  0.1366E+03  0.1493E+03
     -1.422  0.1596E+03  0.1530E+03
     -1.399  0.1606E+03  0.1567E+03
     -1.375  0.1283E+03  0.1597E+03
     -1.352  0.1006E+03  0.1621E+03
     -1.328  0.9918E+02  0.1644E+03
     -1.305  0.1050E+03  0.1669E+03
     -1.282  0.9991E+02  0.1692E+03
     -1.258  0.1072E+03  0.1717E+03
     -1.235  0.1353E+03  0.1748E+03
     -1.212  0.1482E+03  0.1783E+03
     -1.188  0.1454E+03  0.1817E+03
     -1.165  0.1490E+03  0.1852E+03
     -1.142  0.1577E+03  0.1889E+03
     -1.118  0.1626E+03  0.1927E+03
     -1.095  0.1715E+03  0.1967E+03
     -1.072  0.1922E+03  0.2011E+03
     -1.048  0.2046E+03  0.2059E+03
     -1.025  0.2110E+03  0.2109E+03
     -1.002  0.2055E+03  0.2156E+03
     -0.978  0.1849E+03  0.2200E+03
     -0.955  0.1659E+03  0.2238E+03
     -0.932  0.1467E+03  0.2273E+03
     -0.908  0.1230E+03  0.2301E+03
     -0.885  0.1020E+03  0.2325E+03
     -0.862  0.1118E+03  0.2351E+03
     -0.838  0.1408E+03  0.2384E+03
     -0.815  0.1612E+03  0.2422E+03
     -0.792  0.1647E+03  0.2460E+03
     -0.768  0.1602E+03  0.2498E+03
     -0.745  0.1718E+03  0.2538E+03
     -0.721  0.1844E+03  0.2581E+03
     -0.698  0.1795E+03  0.2623E+03
     -0.675  0.1638E+03  0.2661E+03
     -0.651  0.1503E+03  0.2696E+03
     -0.628  0.1443E+03  0.2730E+03
     -0.605  0.1442E+03  0.2763E+03
     -0.581  0.1546E+03  0.2800E+03
     -0.558  0.1532E+03  0.2835E+03
     -0.535  0.1455E+03  0.2869E+03
     -0.511  0.1645E+03  0.2908E+03
     -0.488  0.1944E+03  0.2953E+03
     -0.465  0.2107E+03  0.3002E+03
     -0.441  0.2183E+03  0.3053E+03
     -0.418  0.2138E+03  0.3103E+03
     -0.395  0.2031E+03  0.3151E+03
     -0.371  0.2049E+03  0.3198E+03
     -0.348  0.2181E+03  0.3249E+03
     -0.325  0.2192E+03  0.3300E+03
     -0.301  0.1990E+03  0.3347E+03
     -0.278  0.1794E+03  0.3389E+03
     -0.255  0.1681E+03  0.3428E+03
     -0.231  0.1662E+03  0.3467E+03
     -0.208  0.1661E+03  0.3506E+03
     -0.185  0.1612E+03  0.3543E+03
     -0.161  0.1609E+03  0.3581E+03
     -0.138  0.1714E+03  0.3621E+03
     -0.114  0.1850E+03  0.3664E+03
     -0.091  0.1973E+03  0.3710E+03
     -0.068  0.2013E+03  0.3757E+03
     -0.044  0.1966E+03  0.3803E+03
     -0.021  0.1935E+03  0.3848E+03
      0.002  0.2055E+03  0.3896E+03
      0.026  0.2235E+03  0.3948E+03
      0.049  0.2358E+03  0.4003E+03
      0.072  0.2414E+03  0.4060E+03
      0.096  0.2361E+03  0.4115E+03
      0.119  0.2219E+03  0.4167E+03
      0.142  0.2094E+03  0.4216E+03
      0.166  0.2020E+03  0.4263E+03
      0.189  0.2021E+03  0.4310E+03
      0.212  0.2037E+03  0.4357E+03
      0.236  0.2030E+03  0.4405E+03
      0.259  0.2042E+03  0.4453E+03
      0.282  0.2066E+03  0.4501E+03
      0.306  0.2042E+03  0.4548E+03
      0.329  0.1958E+03  0.4594E+03
      0.352  0.1947E+03  0.4640E+03
      0.376  0.1989E+03  0.4686E+03
      0.399  0.2092E+03  0.4735E+03
      0.422  0.2107E+03  0.4784E+03
      0.446  0.2085E+03  0.4833E+03
      0.469  0.2223E+03  0.4885E+03
      0.493  0.2359E+03  0.4940E+03
      0.516  0.2480E+03  0.4998E+03
      0.539  0.2649E+03  0.5059E+03
      0.563  0.2646E+03  0.5121E+03
      0.586  0.2596E+03  0.5182E+03
      0.609  0.2608E+03  0.5243E+03
      0.633  0.2554E+03  0.5302E+03
      0.656  0.2498E+03  0.5361E+03
      0.679  0.2613E+03  0.5422E+03
      0.703  0.2613E+03  0.5483E+03
      0.726  0.2512E+03  0.5541E+03
      0.749  0.2388E+03  0.5597E+03
      0.773  0.2374E+03  0.5652E+03
      0.796  0.2408E+03  0.5709E+03
      0.819  0.2250E+03  0.5761E+03
      0.843  0.2140E+03  0.5811E+03
      0.866  0.2205E+03  0.5863E+03
      0.889  0.2262E+03  0.5915E+03
      0.913  0.2188E+03  0.5967E+03
      0.936  0.2033E+03  0.6014E+03
      0.959  0.1898E+03  0.6058E+03
      0.983  0.1800E+03  0.6100E+03
      1.006  0.1812E+03  0.6143E+03
      1.029  0.1920E+03  0.6187E+03
      1.053  0.2050E+03  0.6235E+03
      1.076  0.2145E+03  0.6285E+03
      1.100  0.2156E+03  0.6336E+03
      1.123  0.2171E+03  0.6386E+03
      1.146  0.2116E+03  0.6436E+03
      1.170  0.2092E+03  0.6485E+03
      1.193  0.2191E+03  0.6536E+03
      1.216  0.2304E+03  0.6590E+03
      1.240  0.2331E+03  0.6644E+03
      1.263  0.2231E+03  0.6696E+03
      1.286  0.2145E+03  0.6746E+03
      1.310  0.2144E+03  0.6796E+03
      1.333  0.2199E+03  0.6848E+03
      1.356  0.2222E+03  0.6900E+03
      1.380  0.2147E+03  0.6950E+03
      1.403  0.2070E+03  0.6998E+03
      1.426  0.2051E+03  0.7046E+03
      1.450  0.2026E+03  0.7093E+03
      1.473  0.1976E+03  0.7139E+03
      1.496  0.1980E+03  0.7186E+03
      1.520  0.2025E+03  0.7233E+03
      1.543  0.1950E+03  0.7278E+03
      1.566  0.1953E+03  0.7324E+03
      1.590  0.2095E+03  0.7373E+03
      1.613  0.2066E+03  0.7421E+03
      1.636  0.1996E+03  0.7468E+03
      1.660  0.2012E+03  0.7515E+03
      1.683  0.1977E+03  0.7561E+03
      1.707  0.1968E+03  0.7607E+03
      1.730  0.2051E+03  0.7655E+03
      1.753  0.2109E+03  0.7704E+03
      1.777  0.2099E+03  0.7753E+03
      1.800  0.2106E+03  0.7802E+03
      1.823  0.2068E+03  0.7850E+03
      1.847  0.1981E+03  0.7897E+03
      1.870  0.2054E+03  0.7945E+03
      1.893  0.2094E+03  0.7993E+03
      1.917  0.2024E+03  0.8041E+03
      1.940  0.1954E+03  0.8086E+03
      1.963  0.1931E+03  0.8131E+03
      1.987  0.1999E+03  0.8178E+03
      2.010  0.1995E+03  0.8225E+03
      2.033  0.1956E+03  0.8270E+03
      2.057  0.1894E+03  0.8314E+03
      2.080  0.1843E+03  0.8357E+03
      2.103  0.1859E+03  0.8401E+03
      2.127  0.1951E+03  0.8446E+03
      2.150  0.2056E+03  0.8494E+03
      2.173  0.2059E+03  0.8542E+03
      2.197  0.1942E+03  0.8588E+03
      2.220  0.1784E+03  0.8629E+03
      2.243  0.1725E+03  0.8670E+03
      2.267  0.1671E+03  0.8709E+03
      2.290  0.1643E+03  0.8747E+03
      2.314  0.1711E+03  0.8787E+03
      2.337  0.1693E+03  0.8827E+03
      2.360  0.1716E+03  0.8867E+03
      2.384  0.1820E+03  0.8909E+03
      2.407  0.1694E+03  0.8949E+03
      2.430  0.1529E+03  0.8984E+03
      2.454  0.1543E+03  0.9020E+03
      2.477  0.1563E+03  0.9057E+03
      2.500  0.1487E+03  0.9092E+03
      2.524  0.1515E+03  0.9127E+03
      2.547  0.1559E+03  0.9163E+03
      2.570  0.1502E+03  0.9198E+03
      2.594  0.1445E+03  0.9232E+03
      2.617  0.1347E+03  0.9264E+03
      2.640  0.1284E+03  0.9294E+03
      2.664  0.1383E+03  0.9326E+03
      2.687  0.1509E+03  0.9361E+03
      2.710  0.1518E+03  0.9397E+03
      2.734  0.1464E+03  0.9431E+03
      2.757  0.1335E+03  0.9462E+03
      2.780  0.1283E+03  0.9492E+03
      2.804  0.1334E+03  0.9523E+03
      2.827  0.1406E+03  0.9556E+03
      2.850  0.1439E+03  0.9589E+03
      2.874  0.1421E+03  0.9623E+03
      2.897  0.1382E+03  0.9655E+03
      2.921  0.1367E+03  0.9687E+03
      2.944  0.1363E+03  0.9719E+03
      2.967  0.1336E+03  0.9750E+03
      2.991  0.1287E+03  0.9780E+03
      3.014  0.1207E+03  0.9808E+03
      3.037  0.1218E+03  0.9836E+03
      3.061  0.1212E+03  0.9865E+03
      3.084  0.1148E+03  0.9891E+03
      3.107  0.1049E+03  0.9916E+03
      3.131  0.1059E+03  0.9941E+03
      3.154  0.1076E+03  0.9966E+03
      3.177  0.9694E+02  0.9988E+03
      3.201  0.9188E+02  0.1001E+04
      3.224  0.8766E+02  0.1003E+04
      3.247  0.8107E+02  0.1005E+04
      3.271  0.6605E+02  0.1006E+04
      3.294  0.5181E+02  0.1008E+04
      3.317  0.4956E+02  0.1009E+04
      3.341  0.3640E+02  0.1010E+04
      3.364  0.1179E+02  0.1010E+04
      3.387  0.1428E+01  0.1010E+04
      3.411  0.6122E-01  0.1010E+04
      3.434  0.8944E-03  0.1010E+04
      3.458  0.4307E-05  0.1010E+04
      3.481  0.6647E-08  0.1010E+04
      3.504  0.3219E-11  0.1010E+04
      3.528  0.0000E+00  0.1010E+04
      3.551  0.0000E+00  0.1010E+04
      3.574  0.0000E+00  0.1010E+04
      3.598  0.0000E+00  0.1010E+04
      3.621  0.0000E+00  0.1010E+04
      3.644  0.0000E+00  0.1010E+04
