       N       E                     dE             d eps       ncg     rms          rms(c)
DAV:   1    -0.242703937911E+03   -0.24270E+03   -0.12443E+05  4040   0.661E+02
DAV:   2    -0.870273265698E+03   -0.62757E+03   -0.57382E+03  4644   0.690E+01
DAV:   3    -0.915170499398E+03   -0.44897E+02   -0.41002E+02  5192   0.146E+01
DAV:   4    -0.916707643056E+03   -0.15371E+01   -0.15119E+01  4760   0.293E+00
DAV:   5    -0.916744677542E+03   -0.37034E-01   -0.36956E-01  4872   0.477E-01    0.111E+01
DAV:   6    -0.905622342790E+03    0.11122E+02   -0.15172E+01  4664   0.461E+00    0.713E+00
DAV:   7    -0.903842619090E+03    0.17797E+01   -0.10599E+01  4840   0.445E+00    0.605E+00
DAV:   8    -0.899386724990E+03    0.44559E+01   -0.60836E+00  4704   0.297E+00    0.316E+00
DAV:   9    -0.898661380043E+03    0.72534E+00   -0.33292E+00  4624   0.165E+00    0.183E+00
DAV:  10    -0.898651946564E+03    0.94335E-02   -0.12121E+00  4736   0.115E+00    0.156E+00
DAV:  11    -0.898412715743E+03    0.23923E+00   -0.50318E-01  4640   0.685E-01    0.723E-01
DAV:  12    -0.898411607822E+03    0.11079E-02   -0.11683E-01  4592   0.326E-01    0.511E-01
DAV:  13    -0.898399732823E+03    0.11875E-01   -0.51527E-02  4744   0.265E-01    0.355E-01
DAV:  14    -0.898390787726E+03    0.89451E-02   -0.16139E-02  4608   0.149E-01    0.180E-01
DAV:  15    -0.898391014489E+03   -0.22676E-03   -0.67710E-03  4648   0.938E-02    0.137E-01
DAV:  16    -0.898389113755E+03    0.19007E-02   -0.37337E-03  4616   0.683E-02    0.682E-02
DAV:  17    -0.898388909499E+03    0.20426E-03   -0.11150E-03  4456   0.314E-02    0.330E-02
DAV:  18    -0.898388889458E+03    0.20041E-04   -0.31368E-04  4776   0.204E-02    0.265E-02
DAV:  19    -0.898388817320E+03    0.72138E-04   -0.12533E-04  4656   0.132E-02    0.142E-02
DAV:  20    -0.898388792730E+03    0.24590E-04   -0.48059E-05  4496   0.697E-03    0.645E-03
DAV:  21    -0.898388787300E+03    0.54299E-05   -0.16231E-05  2456   0.371E-03
   1 F= -.89838879E+03 E0= -.89832862E+03  d E =-.120339E+00
