Li                                      
           1
   -10.527895   18.234849   -0.000000
   -18.047820  -10.419914    0.000000
    -0.000000    0.000000   22.082050
   Li
   504
Direct configuration=     1
   0.00628839  0.00583883  0.99557917
   0.90883381  0.04447948  0.66642022
   0.88635977  0.08293355  0.32027423
   0.78377824  0.11521099  0.00169491
   0.68139596  0.14661697  0.65195171
   0.62424250  0.23704633  0.34299250
   0.56024761  0.24031553  0.99081686
   0.53570186  0.29632125  0.67184322
   0.42292958  0.32836207  0.32338298
   0.34825676  0.37576719  0.98973712
   0.27594740  0.43316998  0.67421578
   0.21119526  0.45504938  0.33457473
   0.08253263  0.04472081  0.66221138
   0.01752331  0.08627501  0.34056471
   0.93342998  0.10869834  0.00527031
   0.83016625  0.16090951  0.64500011
   0.78271867  0.19790201  0.35128253
   0.71635818  0.25288622  0.99821974
   0.66066009  0.28540815  0.65136287
   0.54930813  0.35427960  0.34299273
   0.50714064  0.35210376  0.99285904
   0.44683146  0.42341978  0.63395298
   0.36986560  0.47090379  0.33688543
   0.28542422  0.47847114  0.99151239
   0.15482983  0.09543759  0.33576142
   0.07331825  0.10057482  0.98599518
   0.96019329  0.16561730  0.65438154
   0.92659965  0.23007742  0.33641223
   0.85611669  0.23462787  0.01119088
   0.77855982  0.28209988  0.64438121
   0.69978962  0.32448096  0.31941303
   0.66374612  0.37732075  0.00508986
   0.57312597  0.44149109  0.64181795
   0.49940905  0.47684397  0.36236841
   0.42987227  0.47880539  0.02311580
   0.35617750  0.52865187  0.69038419
   0.23059379  0.12013000  0.99680628
   0.11851430  0.19162434  0.68429659
   0.04297663  0.21770962  0.34528673
   0.97118200  0.24594238  0.97998991
   0.91847694  0.29823130  0.66562437
   0.86078030  0.33741223  0.36553899
   0.79377468  0.37897405  0.99918927
   0.69512649  0.41657268  0.67507005
   0.65562970  0.45305995  0.33242836
   0.54634373  0.51987073  0.99611431
   0.50645905  0.54081624  0.66424285
   0.43967760  0.57071678  0.34622820
   0.28215142  0.20060636  0.66365827
   0.20801763  0.19533576  0.32758563
   0.13142936  0.21576784  0.99496770
   0.05859455  0.27418248  0.69078303
   0.99591657  0.34421323  0.34541092
   0.89703175  0.37051784  0.99776372
   0.85105251  0.42866043  0.65264457
   0.80046820  0.44771709  0.33508779
   0.71664222  0.49018064  0.00497578
   0.65326997  0.56313456  0.67682943
   0.58320386  0.59215328  0.34100928
   0.48346195  0.63589273  0.00434195
   0.34408934  0.19380553  0.31930036
   0.28373950  0.25871303  0.99303826
   0.20428397  0.31068160  0.66036486
   0.14087536  0.33609840  0.32196714
   0.06677491  0.35246318  0.01822486
   0.98998700  0.43098011  0.67861330
   0.94145633  0.45303191  0.31260682
   0.85699552  0.50030043  0.00671896
   0.78126827  0.53496316  0.66812701
   0.71678771  0.59638010  0.30535053
   0.63966865  0.62370412  0.00462833
   0.59877540  0.68059452  0.67651090
   0.41792171  0.24821213  0.99102114
   0.36535465  0.31450029  0.67607967
   0.30668965  0.32067251  0.31418865
   0.18944755  0.36972198  0.00278290
   0.13715762  0.40869200  0.67012278
   0.07614212  0.46470999  0.34433153
   0.99623056  0.48622045  0.03073406
   0.93174178  0.54841416  0.66713991
   0.86623129  0.57746055  0.33325532
   0.79473250  0.63153336  0.01626916
   0.72752088  0.64939456  0.65977310
   0.65911543  0.73569760  0.31401842
   0.11492629  0.47005206  0.00512419
   0.08486794  0.57123480  0.65134683
   0.00306102  0.58486402  0.32623834
   0.94610447  0.61256507  0.99597125
   0.85736999  0.66356095  0.66522940
   0.78808852  0.69099973  0.30881675
   0.73150976  0.75459249  0.99883366
   0.22068747  0.54213550  0.67478425
   0.13735061  0.59433175  0.34519176
   0.07239613  0.60982702  0.99764926
   0.00046965  0.68598219  0.68402494
   0.92438602  0.71679568  0.31942415
   0.86648811  0.75635096  0.99366477
   0.79134078  0.78592867  0.64931320
   0.27133039  0.57110921  0.31405829
   0.21587936  0.59285594  0.01242381
   0.15932239  0.70603522  0.65326045
   0.04564591  0.71130169  0.32345760
   0.01445064  0.74200463  0.99776244
   0.92075988  0.79231952  0.65879820
   0.86001479  0.84347383  0.32441705
   0.34701767  0.61466216  0.99630929
   0.30512294  0.66316016  0.65349963
   0.21897215  0.70689893  0.33790827
   0.13754803  0.71893121  0.00345006
   0.07899933  0.81478250  0.65732695
   0.98736926  0.84240663  0.30913510
   0.94484671  0.86942351  0.98910043
   0.43724072  0.65817948  0.65610257
   0.36752858  0.71243904  0.33811576
   0.28357657  0.72295941  0.00393877
   0.24255546  0.79628370  0.67276065
   0.14892584  0.81614227  0.33920719
   0.05952387  0.85247544  0.00137640
   0.01097318  0.93698368  0.67204983
   0.93050304  0.96409652  0.34158136
   0.86651058  0.01261360  0.00447521
   0.78318344  0.06315888  0.68707402
   0.71277649  0.08370695  0.34832356
   0.65733353  0.13083085  0.98793706
   0.56649476  0.17050218  0.66953336
   0.51888818  0.23105190  0.34184894
   0.07914630  0.96146931  0.32417933
   0.15319943  0.98312056  0.01276036
   0.22514150  0.08528528  0.67112023
   0.27813599  0.07429917  0.31352930
   0.36517427  0.14794078  0.01177903
   0.41400283  0.21611651  0.66951440
   0.85704827  0.92369857  0.68075178
   0.80277325  0.95549706  0.33189886
   0.72001090  0.00246078  0.99248362
   0.61688441  0.02061662  0.67002442
   0.54309957  0.10408817  0.35382697
   0.49658112  0.14367903  0.99047169
   0.16871737  0.92848231  0.66470045
   0.23039177  0.96904690  0.31924720
   0.26406788  0.98667761  0.01625805
   0.33589431  0.06200266  0.66961322
   0.42291288  0.09394769  0.32244846
   0.79755320  0.88082438  0.98991282
   0.72588931  0.90194491  0.67345171
   0.64151934  0.97184174  0.33423343
   0.57953305  0.01900969  0.01154221
   0.48317682  0.05047407  0.68485410
   0.22644281  0.85362696  0.99891380
   0.28733862  0.89997086  0.65212602
   0.37662116  0.95427501  0.32811179
   0.43702440  0.98832965  0.01468084
   0.71859071  0.83544706  0.33207440
   0.64491539  0.86480815  0.99183415
   0.56612028  0.92314667  0.67674865
   0.52440241  0.96010819  0.33749571
   0.29927790  0.84547047  0.35840732
   0.35766958  0.85780464  0.99314535
   0.42390161  0.92238954  0.68755007
   0.64867187  0.78570874  0.67141741
   0.59540903  0.84104740  0.33872919
   0.49731281  0.88136476  0.00576696
   0.36340722  0.79283571  0.66162148
   0.45123104  0.83151483  0.34163291
   0.58184979  0.76079567  0.99954064
   0.50452007  0.78891609  0.66677149
   0.43288775  0.73275751  0.01039625
   0.52881142  0.70170406  0.33987074
   0.98415457  0.01199358  0.74557395
   0.94931953  0.03437468  0.46342372
   0.86237991  0.10291540  0.13017333
   0.74899178  0.12315073  0.79863485
   0.69929808  0.14527694  0.43743606
   0.63930490  0.20403853  0.10232247
   0.56668662  0.25502901  0.77935083
   0.47673454  0.30579027  0.44029006
   0.43840387  0.34082429  0.08859320
   0.35063069  0.39162717  0.77588779
   0.27988713  0.42181633  0.43108765
   0.22246984  0.43480134  0.09363355
   0.06131764  0.07062307  0.44318850
   0.00195577  0.06695098  0.10093978
   0.90544622  0.13380440  0.77905796
   0.84582102  0.15821192  0.42416316
   0.75728237  0.19844556  0.10973884
   0.70121819  0.23584489  0.75652427
   0.61708519  0.28388811  0.45887542
   0.57478212  0.33097228  0.09530650
   0.49944608  0.39541012  0.77511236
   0.43675287  0.42782852  0.45642294
   0.35745300  0.41442641  0.10364065
   0.27123024  0.52018098  0.78327314
   0.13492074  0.06220906  0.11385748
   0.05627935  0.13335258  0.76794632
   0.99630918  0.17585206  0.43966827
   0.93779653  0.18682164  0.11871209
   0.84491703  0.24417280  0.76039659
   0.77015844  0.29533950  0.44643573
   0.70526281  0.32242557  0.13848537
   0.65531724  0.37415688  0.76777992
   0.59972853  0.42014226  0.45567449
   0.50737765  0.44645601  0.11887713
   0.45079228  0.48085369  0.76529245
   0.38170540  0.53865774  0.43394669
   0.22921577  0.12235785  0.78707861
   0.12966381  0.17250455  0.41823002
   0.05032603  0.18295891  0.10463083
   0.98363088  0.22585334  0.76514932
   0.92559631  0.29675375  0.46034315
   0.82142477  0.29118168  0.12043754
   0.78369174  0.37542490  0.75121229
   0.70931198  0.42913141  0.43189855
   0.63926175  0.44093354  0.09045026
   0.56837468  0.51320794  0.79669081
   0.53232674  0.54405699  0.46533011
   0.43631297  0.55713783  0.11936640
   0.25584775  0.13910275  0.44021514
   0.21079837  0.19074792  0.13690053
   0.13741838  0.24439198  0.78750565
   0.05860219  0.30973265  0.45259457
   0.97120436  0.31117026  0.09909664
   0.93786181  0.36738333  0.77966046
   0.85020700  0.43720531  0.45456755
   0.78898440  0.45603417  0.12084789
   0.70358266  0.51888615  0.77202021
   0.67777336  0.53852087  0.43691447
   0.56324382  0.58289513  0.11963990
   0.50747026  0.62465241  0.77673065
   0.35574593  0.21280298  0.11125745
   0.27856979  0.24796088  0.78496071
   0.21981142  0.30578955  0.44097248
   0.11319832  0.30575369  0.09701711
   0.04846009  0.36521244  0.79105436
   0.98491374  0.42519009  0.44445612
   0.92222631  0.44144755  0.12626245
   0.85492888  0.48878745  0.78852873
   0.79315336  0.54174996  0.42192694
   0.69906668  0.57029298  0.09698938
   0.63821416  0.63533362  0.79732042
   0.58801297  0.68606055  0.44907022
   0.42531461  0.28899362  0.77269893
   0.33702537  0.28858581  0.45967849
   0.25491323  0.32562601  0.11382480
   0.21663145  0.37076575  0.77182195
   0.15544653  0.41369938  0.43087547
   0.08145668  0.44415893  0.13376337
   0.99512930  0.52996426  0.79715876
   0.95929362  0.52745146  0.43807855
   0.86284389  0.56456048  0.09879580
   0.79001506  0.62740329  0.76665624
   0.71773372  0.67890394  0.41540467
   0.63523969  0.72071033  0.11132338
   0.14254617  0.50446730  0.77453194
   0.08285769  0.55606799  0.46856070
   0.99442882  0.57438154  0.09505959
   0.91405347  0.63174307  0.78345800
   0.86898434  0.66449238  0.42587688
   0.79155084  0.68606930  0.12687714
   0.69867200  0.74583123  0.77099663
   0.21047929  0.56057929  0.45876409
   0.12876782  0.57269305  0.10561562
   0.08966726  0.64800464  0.77339675
   0.01260542  0.65377266  0.46781464
   0.92329640  0.69911535  0.09770053
   0.87234993  0.75597128  0.77187158
   0.77966615  0.80660492  0.45068772
   0.29250548  0.54149081  0.10563401
   0.20908077  0.64821184  0.76327961
   0.14009979  0.69159534  0.44671821
   0.08321318  0.68561843  0.12499704
   0.00203428  0.76467097  0.77721601
   0.92293811  0.80964358  0.43017658
   0.87228673  0.84214198  0.10680017
   0.35003778  0.60349981  0.75415090
   0.27946931  0.66072961  0.43797791
   0.23288346  0.69202328  0.10922048
   0.15155980  0.74937013  0.77079592
   0.06327825  0.78804136  0.44331630
   0.00338412  0.81490812  0.12987671
   0.94859005  0.89871764  0.78289232
   0.44347140  0.67219160  0.44775696
   0.36716567  0.69676607  0.12256764
   0.30141969  0.72454935  0.78518960
   0.20142424  0.81694084  0.45001055
   0.14066568  0.80987384  0.11127213
   0.09094930  0.88811527  0.76597288
   0.99178068  0.92228251  0.43649778
   0.93182708  0.96577022  0.09830494
   0.86238483  0.00332681  0.79256992
   0.79310553  0.04769376  0.41784205
   0.72798852  0.06903452  0.12215917
   0.64114079  0.11792873  0.77985172
   0.55806356  0.17857663  0.45043203
   0.49456759  0.22471718  0.08386801
   0.06364650  0.93023160  0.10043252
   0.16584470  0.01423838  0.77764533
   0.20251690  0.03822359  0.45073349
   0.28031034  0.06291831  0.11159519
   0.35167409  0.14757172  0.77779270
   0.44543599  0.17846419  0.42608180
   0.85487242  0.94050989  0.43548100
   0.80371039  0.98175182  0.10656428
   0.73556781  0.97332555  0.76207752
   0.62921134  0.06125418  0.44926122
   0.58805917  0.10056206  0.11813585
   0.48919013  0.15132665  0.77120323
   0.13799828  0.92316710  0.44610646
   0.21732096  0.92212877  0.11230952
   0.27401173  0.00098777  0.78071670
   0.37206079  0.03077713  0.44463686
   0.44508874  0.04985699  0.09571684
   0.80454089  0.86691824  0.77635166
   0.69970290  0.93948120  0.47392819
   0.64036584  0.94562371  0.12392796
   0.55289779  0.98302761  0.79086744
   0.49399515  0.05487724  0.45838998
   0.21049617  0.85878724  0.77345037
   0.29214407  0.91827375  0.43379076
   0.35822740  0.94056634  0.10804107
   0.41300922  0.99652680  0.78190490
   0.71546084  0.84980881  0.09554577
   0.64503748  0.87583387  0.79447645
   0.58414579  0.91392659  0.47164472
   0.51673056  0.94376549  0.12675278
   0.31593115  0.81303155  0.12781551
   0.34600619  0.85769732  0.78120421
   0.43794494  0.91065925  0.46330848
   0.66647156  0.80860877  0.44215656
   0.59657764  0.82612605  0.12968001
   0.48567629  0.86074479  0.75150240
   0.33974036  0.80441226  0.44650254
   0.44475136  0.82546016  0.11825099
   0.56321707  0.75827807  0.77855594
   0.49012227  0.79792007  0.45551215
   0.40788108  0.74001998  0.76556705
   0.50543609  0.71275023  0.12550673
   0.01689708  0.99097271  0.22282741
   0.95049973  0.04838358  0.89383802
   0.85043039  0.08141497  0.54434457
   0.81583120  0.10783510  0.25333324
   0.72035311  0.18725842  0.91021082
   0.61652271  0.21005905  0.56302303
   0.56848687  0.23215841  0.19927442
   0.50150989  0.29846539  0.87732062
   0.43616034  0.34610395  0.54328410
   0.35691961  0.34950681  0.20275749
   0.29399507  0.41380028  0.87459983
   0.20494154  0.46105761  0.56778769
   0.10987262  0.03074647  0.86591485
   0.99557537  0.09262157  0.56485436
   0.95122717  0.12313533  0.21225204
   0.85865002  0.15380799  0.88657678
   0.73154864  0.19341367  0.54846068
   0.71571147  0.23574422  0.23244303
   0.65592033  0.31711304  0.88283100
   0.56242067  0.32974606  0.56210603
   0.51131151  0.37156936  0.22844507
   0.42813355  0.43499652  0.87980782
   0.37038321  0.48957543  0.55717919
   0.28528742  0.48612655  0.21580192
   0.16027891  0.08639624  0.56083893
   0.08268323  0.12393449  0.22498970
   0.98692609  0.16059099  0.89710947
   0.89402050  0.21299633  0.55509013
   0.84567910  0.24148332  0.21814493
   0.78166128  0.31527840  0.88753915
   0.68883098  0.35292664  0.54028380
   0.62899683  0.38159526  0.22528942
   0.58086456  0.43163216  0.89046717
   0.50946430  0.47842164  0.52514860
   0.43890488  0.47498565  0.22472787
   0.36071061  0.51842361  0.88891153
   0.21964806  0.10738098  0.21865118
   0.13476916  0.16428068  0.88865435
   0.03946906  0.23820717  0.54915204
   0.98962529  0.26303786  0.23954161
   0.90677208  0.28348780  0.87163192
   0.82607538  0.33979559  0.54955370
   0.77880674  0.35199842  0.23759047
   0.71791359  0.42446388  0.89118065
   0.63543470  0.48294489  0.55148278
   0.57243978  0.48693826  0.22012188
   0.51356627  0.55308350  0.88119123
   0.41943677  0.57708542  0.55921040
   0.29669382  0.19143645  0.90757785
   0.20161608  0.21166542  0.55184193
   0.13075711  0.24272745  0.20631874
   0.04912561  0.29613645  0.89669577
   0.98900173  0.33673657  0.58479159
   0.94256512  0.35674515  0.23469641
   0.84214628  0.43178701  0.87350383
   0.77478511  0.47033810  0.54576772
   0.69789386  0.48464136  0.22782901
   0.65011552  0.54075968  0.89814611
   0.58857352  0.58072662  0.56145332
   0.49325017  0.60691743  0.22164951
   0.35048450  0.24086620  0.52877210
   0.28056660  0.20986497  0.22065089
   0.18318183  0.31836277  0.90791280
   0.11467184  0.33895828  0.56295385
   0.06477944  0.38255901  0.23462213
   0.98610709  0.43489121  0.91758196
   0.91922786  0.45538200  0.56153265
   0.83268957  0.49761194  0.21837065
   0.77757735  0.55492094  0.89112698
   0.72276822  0.58547141  0.53345577
   0.63330833  0.64346375  0.20067209
   0.56952972  0.67365838  0.90527471
   0.42225630  0.23646388  0.21816280
   0.36569285  0.33038440  0.87061138
   0.27955813  0.35214907  0.57135505
   0.20117835  0.36606390  0.21860397
   0.11501715  0.40814971  0.88773381
   0.07072425  0.47899326  0.56241916
   0.99778276  0.48506047  0.21939255
   0.93726825  0.55001122  0.92019792
   0.87905831  0.55712806  0.55471789
   0.79291809  0.61234240  0.19739329
   0.69616428  0.66983146  0.88219228
   0.63956426  0.72345104  0.55269791
   0.16302567  0.49851867  0.22052591
   0.08399499  0.54603624  0.90105281
   0.01134073  0.58311990  0.56915686
   0.92544541  0.61928255  0.21535232
   0.85515717  0.65621785  0.88231582
   0.79092834  0.68774394  0.55451403
   0.71406098  0.76549394  0.21944980
   0.22099018  0.53114373  0.88844443
   0.15574176  0.62472243  0.54637404
   0.08624942  0.59653849  0.21959649
   0.01160004  0.67242373  0.87704546
   0.91242236  0.72123762  0.55235553
   0.83906274  0.76487344  0.19718135
   0.78443355  0.80591022  0.87290662
   0.30854019  0.59007472  0.54791542
   0.21838214  0.62362272  0.20668567
   0.16870929  0.66128040  0.88487236
   0.07027970  0.70801576  0.56251298
   0.98387150  0.72522920  0.19500886
   0.94173793  0.79479231  0.88880394
   0.82404498  0.86133010  0.54591628
   0.36438322  0.60843701  0.23168452
   0.27447015  0.64228073  0.88296568
   0.24208799  0.73042551  0.54221464
   0.13243358  0.73164110  0.22265435
   0.11147789  0.78628154  0.88863501
   0.98295261  0.82133630  0.54440037
   0.93289286  0.86161224  0.20824637
   0.41451301  0.68717757  0.86750562
   0.37085654  0.71902798  0.53420907
   0.28589184  0.73323046  0.25217685
   0.24269225  0.80444498  0.87962715
   0.16715721  0.85631586  0.56336952
   0.06929787  0.85884298  0.21165038
   0.02801288  0.91037853  0.88227039
   0.93154207  0.94456928  0.57069777
   0.87876511  0.00221915  0.22592448
   0.78268316  0.03113253  0.88265080
   0.70329360  0.04380358  0.55422487
   0.64287291  0.13371922  0.23240155
   0.57334980  0.15412205  0.88935195
   0.48020884  0.21398472  0.55162531
   0.06513442  0.97462619  0.54840992
   0.15244289  0.97218326  0.22431384
   0.24097987  0.06717515  0.88801515
   0.29120987  0.08042767  0.56388537
   0.35869654  0.09439522  0.17856165
   0.43757236  0.20419968  0.89947022
   0.87582916  0.91531944  0.86687736
   0.76679857  0.97363445  0.58242209
   0.69307939  0.99700735  0.22143309
   0.67381433  0.03959680  0.87761145
   0.56918100  0.07932277  0.55460620
   0.50732406  0.15179003  0.23248923
   0.18119104  0.92725906  0.90822962
   0.23118690  0.95708845  0.55698269
   0.27983829  0.96623589  0.22671995
   0.36166994  0.05612306  0.90235855
   0.40190675  0.09561632  0.56307003
   0.79334847  0.88736034  0.20650991
   0.71990068  0.92122149  0.88293627
   0.63946516  0.94163994  0.57013261
   0.54966186  0.01625075  0.23213578
   0.50080226  0.03341706  0.90239314
   0.20629333  0.83806342  0.23967423
   0.30996975  0.93542496  0.90590982
   0.36321649  0.95183589  0.56375898
   0.42899723  0.98490801  0.22011796
   0.69425878  0.82157319  0.57130996
   0.65129141  0.87209893  0.22487677
   0.56394277  0.90378001  0.90536542
   0.47265924  0.97543779  0.57506224
   0.28436508  0.83553075  0.57227113
   0.36461167  0.85366665  0.23764243
   0.42750971  0.89321064  0.89109149
   0.65497826  0.79706176  0.88359464
   0.54368601  0.83694857  0.55983421
   0.51222181  0.86085560  0.23022418
   0.36165551  0.78781443  0.90213175
   0.42428323  0.85009454  0.56493473
   0.57222194  0.75361343  0.23472364
   0.50415798  0.78982222  0.88499821
   0.43023777  0.74418994  0.23017095
   0.49578393  0.71516479  0.56176676
