 500 500   0   0
  0.1852332E+02  0.2100050E-08  0.2100050E-08  0.2100050E-08  0.5000000E-15
  1.000000000000000E-004
  CAR 
 Li                                      
      3.90478040     -3.31845755  301      0.63850155      1.00000000
     -3.318  0.0000E+00  0.0000E+00
     -3.294  0.0000E+00  0.0000E+00
     -3.270  0.0000E+00  0.0000E+00
     -3.246  0.0000E+00  0.0000E+00
     -3.222  0.0000E+00  0.0000E+00
     -3.198  0.0000E+00  0.0000E+00
     -3.174  0.0000E+00  0.0000E+00
     -3.150  0.2036E-11  0.4902E-13
     -3.126  0.6474E-08  0.1559E-09
     -3.102  0.5834E-05  0.1406E-06
     -3.078  0.1505E-02  0.3637E-04
     -3.054  0.1127E+00  0.2750E-02
     -3.030  0.2501E+01  0.6297E-01
     -3.005  0.1686E+02  0.4688E+00
     -2.981  0.3530E+02  0.1319E+01
     -2.957  0.2323E+02  0.1878E+01
     -2.933  0.5151E+01  0.2002E+01
     -2.909  0.7554E+01  0.2184E+01
     -2.885  0.4503E+02  0.3268E+01
     -2.861  0.9673E+02  0.5597E+01
     -2.837  0.7558E+02  0.7417E+01
     -2.813  0.2213E+02  0.7950E+01
     -2.789  0.7824E+01  0.8138E+01
     -2.765  0.3815E+02  0.9057E+01
     -2.741  0.9186E+02  0.1127E+02
     -2.717  0.8223E+02  0.1325E+02
     -2.692  0.2805E+02  0.1392E+02
     -2.668  0.1021E+02  0.1417E+02
     -2.644  0.4601E+02  0.1528E+02
     -2.620  0.1129E+03  0.1799E+02
     -2.596  0.1114E+03  0.2068E+02
     -2.572  0.4717E+02  0.2181E+02
     -2.548  0.1826E+02  0.2225E+02
     -2.524  0.6013E+02  0.2370E+02
     -2.500  0.1478E+03  0.2726E+02
     -2.476  0.1706E+03  0.3137E+02
     -2.452  0.8883E+02  0.3351E+02
     -2.428  0.2074E+02  0.3401E+02
     -2.404  0.2084E+02  0.3451E+02
     -2.379  0.7325E+02  0.3627E+02
     -2.355  0.9870E+02  0.3865E+02
     -2.331  0.4785E+02  0.3980E+02
     -2.307  0.1262E+02  0.4010E+02
     -2.283  0.4087E+02  0.4109E+02
     -2.259  0.1318E+03  0.4426E+02
     -2.235  0.1787E+03  0.4856E+02
     -2.211  0.1102E+03  0.5122E+02
     -2.187  0.3778E+02  0.5213E+02
     -2.163  0.6041E+02  0.5358E+02
     -2.139  0.1665E+03  0.5759E+02
     -2.115  0.2360E+03  0.6327E+02
     -2.091  0.1857E+03  0.6774E+02
     -2.066  0.7854E+02  0.6963E+02
     -2.042  0.2328E+02  0.7019E+02
     -2.018  0.4758E+02  0.7134E+02
     -1.994  0.9321E+02  0.7358E+02
     -1.970  0.7403E+02  0.7537E+02
     -1.946  0.2603E+02  0.7599E+02
     -1.922  0.2952E+02  0.7670E+02
     -1.898  0.1104E+03  0.7936E+02
     -1.874  0.2021E+03  0.8423E+02
     -1.850  0.1703E+03  0.8833E+02
     -1.826  0.6349E+02  0.8986E+02
     -1.802  0.3695E+02  0.9075E+02
     -1.778  0.1219E+03  0.9368E+02
     -1.753  0.2275E+03  0.9916E+02
     -1.729  0.2198E+03  0.1045E+03
     -1.705  0.1158E+03  0.1072E+03
     -1.681  0.3556E+02  0.1081E+03
     -1.657  0.4962E+02  0.1093E+03
     -1.633  0.1344E+03  0.1125E+03
     -1.609  0.1763E+03  0.1168E+03
     -1.585  0.1074E+03  0.1194E+03
     -1.561  0.4707E+02  0.1205E+03
     -1.537  0.1046E+03  0.1230E+03
     -1.513  0.2142E+03  0.1282E+03
     -1.489  0.2281E+03  0.1337E+03
     -1.464  0.1362E+03  0.1369E+03
     -1.440  0.5284E+02  0.1382E+03
     -1.416  0.8024E+02  0.1401E+03
     -1.392  0.1894E+03  0.1447E+03
     -1.368  0.2363E+03  0.1504E+03
     -1.344  0.1643E+03  0.1543E+03
     -1.320  0.6419E+02  0.1559E+03
     -1.296  0.4822E+02  0.1571E+03
     -1.272  0.1198E+03  0.1599E+03
     -1.248  0.1700E+03  0.1640E+03
     -1.224  0.1217E+03  0.1670E+03
     -1.200  0.5332E+02  0.1682E+03
     -1.176  0.6905E+02  0.1699E+03
     -1.151  0.1221E+03  0.1728E+03
     -1.127  0.1373E+03  0.1761E+03
     -1.103  0.1104E+03  0.1788E+03
     -1.079  0.6329E+02  0.1803E+03
     -1.055  0.1098E+03  0.1830E+03
     -1.031  0.2479E+03  0.1889E+03
     -1.007  0.3350E+03  0.1970E+03
     -0.983  0.2960E+03  0.2041E+03
     -0.959  0.1791E+03  0.2084E+03
     -0.935  0.1005E+03  0.2109E+03
     -0.911  0.1503E+03  0.2145E+03
     -0.887  0.2298E+03  0.2200E+03
     -0.863  0.2026E+03  0.2249E+03
     -0.838  0.1074E+03  0.2275E+03
     -0.814  0.5785E+02  0.2289E+03
     -0.790  0.7961E+02  0.2308E+03
     -0.766  0.1486E+03  0.2344E+03
     -0.742  0.1861E+03  0.2389E+03
     -0.718  0.1454E+03  0.2424E+03
     -0.694  0.1621E+03  0.2463E+03
     -0.670  0.2269E+03  0.2517E+03
     -0.646  0.2391E+03  0.2575E+03
     -0.622  0.2016E+03  0.2623E+03
     -0.598  0.1145E+03  0.2651E+03
     -0.574  0.4092E+02  0.2661E+03
     -0.550  0.4396E+02  0.2671E+03
     -0.525  0.8783E+02  0.2692E+03
     -0.501  0.8295E+02  0.2712E+03
     -0.477  0.5632E+02  0.2726E+03
     -0.453  0.1153E+03  0.2754E+03
     -0.429  0.2251E+03  0.2808E+03
     -0.405  0.2912E+03  0.2878E+03
     -0.381  0.3024E+03  0.2951E+03
     -0.357  0.2759E+03  0.3017E+03
     -0.333  0.2156E+03  0.3069E+03
     -0.309  0.1768E+03  0.3112E+03
     -0.285  0.2168E+03  0.3164E+03
     -0.261  0.2711E+03  0.3229E+03
     -0.237  0.2632E+03  0.3293E+03
     -0.212  0.1934E+03  0.3339E+03
     -0.188  0.1185E+03  0.3368E+03
     -0.164  0.9232E+02  0.3390E+03
     -0.140  0.1304E+03  0.3421E+03
     -0.116  0.1611E+03  0.3460E+03
     -0.092  0.1781E+03  0.3503E+03
     -0.068  0.1675E+03  0.3543E+03
     -0.044  0.1520E+03  0.3580E+03
     -0.020  0.1699E+03  0.3621E+03
      0.004  0.1696E+03  0.3662E+03
      0.028  0.1667E+03  0.3702E+03
      0.052  0.2110E+03  0.3753E+03
      0.076  0.2652E+03  0.3816E+03
      0.101  0.2770E+03  0.3883E+03
      0.125  0.2352E+03  0.3940E+03
      0.149  0.1976E+03  0.3987E+03
      0.173  0.2097E+03  0.4038E+03
      0.197  0.2210E+03  0.4091E+03
      0.221  0.1772E+03  0.4134E+03
      0.245  0.1094E+03  0.4160E+03
      0.269  0.1154E+03  0.4188E+03
      0.293  0.1955E+03  0.4235E+03
      0.317  0.2422E+03  0.4293E+03
      0.341  0.2464E+03  0.4353E+03
      0.365  0.2351E+03  0.4409E+03
      0.389  0.2048E+03  0.4459E+03
      0.414  0.1873E+03  0.4504E+03
      0.438  0.1997E+03  0.4552E+03
      0.462  0.2026E+03  0.4600E+03
      0.486  0.1993E+03  0.4648E+03
      0.510  0.2038E+03  0.4698E+03
      0.534  0.2012E+03  0.4746E+03
      0.558  0.2165E+03  0.4798E+03
      0.582  0.2553E+03  0.4860E+03
      0.606  0.2690E+03  0.4924E+03
      0.630  0.2408E+03  0.4982E+03
      0.654  0.2076E+03  0.5032E+03
      0.678  0.2132E+03  0.5084E+03
      0.702  0.2362E+03  0.5140E+03
      0.727  0.2381E+03  0.5198E+03
      0.751  0.2278E+03  0.5253E+03
      0.775  0.2369E+03  0.5310E+03
      0.799  0.2640E+03  0.5373E+03
      0.823  0.2801E+03  0.5441E+03
      0.847  0.2921E+03  0.5511E+03
      0.871  0.3055E+03  0.5585E+03
      0.895  0.3005E+03  0.5657E+03
      0.919  0.2876E+03  0.5726E+03
      0.943  0.2727E+03  0.5792E+03
      0.967  0.2587E+03  0.5854E+03
      0.991  0.2429E+03  0.5913E+03
      1.015  0.2351E+03  0.5969E+03
      1.040  0.2329E+03  0.6025E+03
      1.064  0.2189E+03  0.6078E+03
      1.088  0.1785E+03  0.6121E+03
      1.112  0.1272E+03  0.6152E+03
      1.136  0.1087E+03  0.6178E+03
      1.160  0.1279E+03  0.6209E+03
      1.184  0.1531E+03  0.6245E+03
      1.208  0.1717E+03  0.6287E+03
      1.232  0.1811E+03  0.6330E+03
      1.256  0.1989E+03  0.6378E+03
      1.280  0.2230E+03  0.6432E+03
      1.304  0.2292E+03  0.6487E+03
      1.328  0.2236E+03  0.6541E+03
      1.353  0.2264E+03  0.6595E+03
      1.377  0.2342E+03  0.6652E+03
      1.401  0.2494E+03  0.6712E+03
      1.425  0.2580E+03  0.6774E+03
      1.449  0.2516E+03  0.6835E+03
      1.473  0.2396E+03  0.6892E+03
      1.497  0.2335E+03  0.6949E+03
      1.521  0.2269E+03  0.7003E+03
      1.545  0.2246E+03  0.7057E+03
      1.569  0.2250E+03  0.7111E+03
      1.593  0.2049E+03  0.7161E+03
      1.617  0.1853E+03  0.7205E+03
      1.641  0.1793E+03  0.7249E+03
      1.666  0.1904E+03  0.7294E+03
      1.690  0.2123E+03  0.7345E+03
      1.714  0.2117E+03  0.7396E+03
      1.738  0.1978E+03  0.7444E+03
      1.762  0.1959E+03  0.7491E+03
      1.786  0.1861E+03  0.7536E+03
      1.810  0.1709E+03  0.7577E+03
      1.834  0.1787E+03  0.7620E+03
      1.858  0.1754E+03  0.7662E+03
      1.882  0.1500E+03  0.7699E+03
      1.906  0.1340E+03  0.7731E+03
      1.930  0.1457E+03  0.7766E+03
      1.955  0.1618E+03  0.7805E+03
      1.979  0.1621E+03  0.7844E+03
      2.003  0.1554E+03  0.7881E+03
      2.027  0.1397E+03  0.7915E+03
      2.051  0.1355E+03  0.7948E+03
      2.075  0.1538E+03  0.7985E+03
      2.099  0.1653E+03  0.8024E+03
      2.123  0.1686E+03  0.8065E+03
      2.147  0.1827E+03  0.8109E+03
      2.171  0.2017E+03  0.8158E+03
      2.195  0.2157E+03  0.8209E+03
      2.219  0.2094E+03  0.8260E+03
      2.243  0.2095E+03  0.8310E+03
      2.268  0.2102E+03  0.8361E+03
      2.292  0.2044E+03  0.8410E+03
      2.316  0.1943E+03  0.8457E+03
      2.340  0.1831E+03  0.8501E+03
      2.364  0.1693E+03  0.8542E+03
      2.388  0.1516E+03  0.8578E+03
      2.412  0.1471E+03  0.8614E+03
      2.436  0.1346E+03  0.8646E+03
      2.460  0.1210E+03  0.8675E+03
      2.484  0.1298E+03  0.8707E+03
      2.508  0.1375E+03  0.8740E+03
      2.532  0.1334E+03  0.8772E+03
      2.556  0.1378E+03  0.8805E+03
      2.581  0.1515E+03  0.8841E+03
      2.605  0.1518E+03  0.8878E+03
      2.629  0.1459E+03  0.8913E+03
      2.653  0.1501E+03  0.8949E+03
      2.677  0.1477E+03  0.8985E+03
      2.701  0.1371E+03  0.9018E+03
      2.725  0.1310E+03  0.9049E+03
      2.749  0.1301E+03  0.9081E+03
      2.773  0.1240E+03  0.9111E+03
      2.797  0.1202E+03  0.9139E+03
      2.821  0.1123E+03  0.9166E+03
      2.845  0.1224E+03  0.9196E+03
      2.869  0.1407E+03  0.9230E+03
      2.894  0.1422E+03  0.9264E+03
      2.918  0.1434E+03  0.9299E+03
      2.942  0.1477E+03  0.9334E+03
      2.966  0.1452E+03  0.9369E+03
      2.990  0.1379E+03  0.9402E+03
      3.014  0.1181E+03  0.9431E+03
      3.038  0.1072E+03  0.9457E+03
      3.062  0.1195E+03  0.9485E+03
      3.086  0.1199E+03  0.9514E+03
      3.110  0.1250E+03  0.9544E+03
      3.134  0.1351E+03  0.9577E+03
      3.158  0.1380E+03  0.9610E+03
      3.182  0.1515E+03  0.9647E+03
      3.207  0.1629E+03  0.9686E+03
      3.231  0.1555E+03  0.9723E+03
      3.255  0.1460E+03  0.9758E+03
      3.279  0.1404E+03  0.9792E+03
      3.303  0.1306E+03  0.9824E+03
      3.327  0.1015E+03  0.9848E+03
      3.351  0.6841E+02  0.9864E+03
      3.375  0.3959E+02  0.9874E+03
      3.399  0.1840E+02  0.9878E+03
      3.423  0.1158E+02  0.9881E+03
      3.447  0.2925E+02  0.9888E+03
      3.471  0.6600E+02  0.9904E+03
      3.495  0.9454E+02  0.9927E+03
      3.520  0.1065E+03  0.9953E+03
      3.544  0.1104E+03  0.9979E+03
      3.568  0.9671E+02  0.1000E+04
      3.592  0.5565E+02  0.1002E+04
      3.616  0.1554E+02  0.1002E+04
      3.640  0.1678E+01  0.1002E+04
      3.664  0.6134E-01  0.1002E+04
      3.688  0.7063E-03  0.1002E+04
      3.712  0.2453E-05  0.1002E+04
      3.736  0.2501E-08  0.1002E+04
      3.760  0.7378E-12  0.1002E+04
      3.784  0.0000E+00  0.1002E+04
      3.808  0.0000E+00  0.1002E+04
      3.833  0.0000E+00  0.1002E+04
      3.857  0.0000E+00  0.1002E+04
      3.881  0.0000E+00  0.1002E+04
      3.905  0.0000E+00  0.1002E+04
