       N       E                     dE             d eps       ncg     rms          rms(c)
DAV:   1    -0.247735177451E+03   -0.24774E+03   -0.12457E+05  4008   0.665E+02
DAV:   2    -0.873260870510E+03   -0.62553E+03   -0.57301E+03  4588   0.700E+01
DAV:   3    -0.917132207827E+03   -0.43871E+02   -0.39837E+02  5152   0.146E+01
DAV:   4    -0.918592108228E+03   -0.14599E+01   -0.14368E+01  4656   0.289E+00
DAV:   5    -0.918625853570E+03   -0.33745E-01   -0.33678E-01  4824   0.463E-01    0.915E+00
DAV:   6    -0.923837834635E+03   -0.52120E+01   -0.10697E+01  4776   0.556E+00    0.995E+00
DAV:   7    -0.908431962850E+03    0.15406E+02   -0.10921E+01  4896   0.496E+00    0.444E+00
DAV:   8    -0.906844596939E+03    0.15874E+01   -0.50425E+00  4576   0.211E+00    0.260E+00
DAV:   9    -0.906452672872E+03    0.39192E+00   -0.22289E+00  4512   0.133E+00    0.159E+00
DAV:  10    -0.906429644698E+03    0.23028E-01   -0.65649E-01  4744   0.893E-01    0.134E+00
DAV:  11    -0.906249397499E+03    0.18025E+00   -0.24641E-01  4576   0.532E-01    0.597E-01
DAV:  12    -0.906243278729E+03    0.61188E-02   -0.84124E-02  4440   0.245E-01    0.339E-01
DAV:  13    -0.906242285934E+03    0.99280E-03   -0.24570E-02  4744   0.181E-01    0.270E-01
DAV:  14    -0.906236498330E+03    0.57876E-02   -0.73674E-03  4600   0.110E-01    0.128E-01
DAV:  15    -0.906235459119E+03    0.10392E-02   -0.25819E-03  4488   0.548E-02    0.574E-02
DAV:  16    -0.906235580412E+03   -0.12129E-03   -0.10958E-03  4624   0.327E-02    0.435E-02
DAV:  17    -0.906235354209E+03    0.22620E-03   -0.44892E-04  4512   0.229E-02    0.189E-02
DAV:  18    -0.906235312376E+03    0.41833E-04   -0.91027E-05  4312   0.835E-03    0.854E-03
DAV:  19    -0.906235300916E+03    0.11460E-04   -0.19385E-05  2928   0.451E-03    0.504E-03
DAV:  20    -0.906235295183E+03    0.57323E-05   -0.63374E-06  2272   0.310E-03
   1 F= -.90623530E+03 E0= -.90618825E+03  d E =-.940876E-01
