Li                                      
           1
    21.000500    0.000000    0.000000
     0.000000   21.000500    0.000000
     0.000000    0.000000   21.000500
   Li
   500
Direct configuration=     1
   0.01375226  0.98533538  0.99942859
   0.98936219  0.08144597  0.08891331
   0.98857475  0.20646982  0.17754280
   0.99985591  0.29942099  0.30373289
   0.99794586  0.38142096  0.40294328
   0.99989392  0.50594557  0.48061352
   0.01755049  0.59012146  0.58238610
   0.99587062  0.68350419  0.71048144
   0.98786253  0.78342902  0.77859376
   0.01627005  0.89287872  0.91095834
   0.09859908  0.98752848  0.10154390
   0.08289049  0.09647217  0.17776175
   0.11337890  0.19689247  0.28319742
   0.09031488  0.28866189  0.41512587
   0.10025426  0.39034356  0.50166321
   0.09277901  0.51060669  0.59311613
   0.11091148  0.60844222  0.69431824
   0.09135567  0.71033040  0.78744488
   0.09783114  0.80052341  0.89517790
   0.10963877  0.86302557  0.98707525
   0.20224377  0.01300346  0.19248655
   0.17366216  0.08051606  0.29298499
   0.17240147  0.19767259  0.38654041
   0.20072746  0.29373405  0.49589246
   0.17962387  0.40522960  0.60833877
   0.18926056  0.52347658  0.68638625
   0.20481524  0.61624853  0.81240542
   0.19001002  0.72004606  0.90473262
   0.20931642  0.80113920  0.01599685
   0.19671620  0.88799432  0.10827898
   0.30273912  0.00406468  0.29611503
   0.27213118  0.09079676  0.39671902
   0.29231131  0.17168581  0.49421604
   0.29469133  0.31121200  0.58851067
   0.29328442  0.40293122  0.69138183
   0.29995293  0.51525711  0.80875208
   0.31204753  0.61993117  0.90163407
   0.32127287  0.69557870  0.00747927
   0.32818620  0.80016083  0.10944323
   0.31871491  0.90696942  0.19364656
   0.39601174  0.00928305  0.41400125
   0.40408343  0.07685827  0.50067864
   0.40008129  0.18697853  0.59813216
   0.39926934  0.29611278  0.68271629
   0.37768614  0.40943861  0.78742306
   0.40095542  0.50543094  0.89889910
   0.40561328  0.58754326  0.01965133
   0.42849877  0.68528844  0.12187110
   0.40847097  0.79414023  0.21490968
   0.39266772  0.91629903  0.31715036
   0.52310753  0.00569543  0.49552114
   0.51298245  0.07793330  0.60236987
   0.50235294  0.18777553  0.70137017
   0.49949594  0.29602762  0.79452501
   0.49880033  0.41163560  0.89072261
   0.49658546  0.50148271  0.00499292
   0.52332541  0.58463482  0.09953640
   0.51667390  0.68134703  0.21621621
   0.50437591  0.79772345  0.29708664
   0.51100182  0.90724368  0.41600189
   0.60718747  0.99504166  0.60105323
   0.57080858  0.10959239  0.70700351
   0.59353934  0.20321578  0.79453992
   0.58390963  0.30645816  0.88464522
   0.60595024  0.39900677  0.98585768
   0.62196810  0.52072243  0.08640811
   0.60253082  0.58878872  0.22217010
   0.60297209  0.69902723  0.31907317
   0.62261154  0.80206716  0.38723723
   0.64554407  0.91145182  0.49070037
   0.68663241  0.01235539  0.70121037
   0.69507078  0.11026929  0.80067044
   0.68785673  0.20239751  0.88984221
   0.69543117  0.30306180  0.99178819
   0.68800836  0.39055081  0.09421677
   0.69689500  0.49514701  0.20328165
   0.69622937  0.60072015  0.29650197
   0.70807336  0.69666445  0.40462122
   0.72218413  0.79762458  0.48338470
   0.69971537  0.87574535  0.60477699
   0.79730483  0.99114582  0.81342937
   0.79013787  0.10870139  0.91092126
   0.79478961  0.19554765  0.98333871
   0.78862401  0.29475823  0.07747748
   0.79995219  0.37819459  0.18470944
   0.81082546  0.49353963  0.28840903
   0.78358360  0.59625250  0.37148184
   0.80673881  0.69061598  0.49625170
   0.80510101  0.81529529  0.61338075
   0.79436833  0.90455736  0.70848585
   0.89592454  0.00516333  0.91018484
   0.87851347  0.07204595  0.00224783
   0.90202098  0.21195032  0.08310906
   0.90425141  0.32657475  0.19368446
   0.90673973  0.41591509  0.29802758
   0.89567654  0.52489127  0.40029242
   0.88803758  0.59768421  0.50569081
   0.88434479  0.69044238  0.62025566
   0.88725594  0.79532855  0.70773235
   0.88936857  0.89962493  0.83011029
   0.11167630  0.08127222  0.99943590
   0.09573541  0.18883280  0.10270599
   0.10069027  0.28508043  0.20754587
   0.11188116  0.39232983  0.31681173
   0.08352248  0.52030048  0.39593918
   0.10772823  0.63105057  0.47642976
   0.09880848  0.69448367  0.59382365
   0.10140001  0.79269912  0.69764764
   0.09401592  0.87996415  0.79242074
   0.11057600  0.97076528  0.91150705
   0.20689519  0.09197987  0.08027514
   0.20496343  0.18489076  0.19378548
   0.19000088  0.28332731  0.28825103
   0.18704294  0.40780995  0.40847612
   0.18141099  0.49768509  0.49322244
   0.18603057  0.59957277  0.57622836
   0.19388153  0.69890659  0.69860007
   0.20978630  0.78864885  0.80644128
   0.20881316  0.87522568  0.90183229
   0.21473789  0.97911719  0.02007644
   0.29610089  0.09532114  0.18945055
   0.28717399  0.18858459  0.30592291
   0.28352508  0.29820956  0.40310711
   0.31130019  0.42019490  0.49195060
   0.29524642  0.50490033  0.59286946
   0.28344030  0.61121749  0.69879779
   0.30502231  0.71619250  0.80604902
   0.32314568  0.79223267  0.90157375
   0.30685782  0.89902667  0.99257703
   0.29418019  0.99039843  0.09739389
   0.37977139  0.10307481  0.32124996
   0.39887446  0.19672322  0.39744503
   0.39566037  0.29009689  0.49086426
   0.40274792  0.41284019  0.59855362
   0.37534790  0.52672168  0.68086422
   0.38653441  0.62612442  0.79090514
   0.42896915  0.69240697  0.91348168
   0.43196821  0.80160409  0.03417287
   0.41598558  0.90331865  0.11843375
   0.40031276  0.01901127  0.19474460
   0.50578021  0.10701707  0.41489853
   0.50136936  0.19816602  0.52231495
   0.48644693  0.31268057  0.58935444
   0.47989881  0.40034289  0.70860174
   0.47773168  0.52120055  0.79944008
   0.49818465  0.60127873  0.91098676
   0.51188622  0.70550871  0.01312319
   0.51498642  0.78730238  0.12723874
   0.50292128  0.91411461  0.22685137
   0.49082509  0.02152399  0.30227731
   0.61809021  0.11065552  0.50667888
   0.58204248  0.21013790  0.59605189
   0.58412684  0.31986465  0.70455762
   0.57882506  0.40282608  0.80474161
   0.61488760  0.50506037  0.89655400
   0.60163776  0.59632184  0.00257662
   0.60985583  0.66512431  0.10855205
   0.58789597  0.78835934  0.20798654
   0.59927263  0.89996593  0.31381082
   0.60885342  0.00900411  0.40081140
   0.69987805  0.12590454  0.59676399
   0.69555163  0.20107127  0.70631512
   0.70436997  0.31904873  0.78989368
   0.72306503  0.40769284  0.88279603
   0.72152691  0.48128220  0.98537775
   0.72137546  0.59188663  0.10899695
   0.67729428  0.69971662  0.20331458
   0.69208114  0.79132629  0.30376254
   0.71530845  0.92336721  0.38223402
   0.73268779  0.01426716  0.51896158
   0.79356626  0.09670173  0.71054779
   0.79880016  0.19964943  0.79766463
   0.80896486  0.29921610  0.89571227
   0.79090187  0.39334509  0.00418944
   0.79550686  0.50082107  0.11522765
   0.79520018  0.60774808  0.18990683
   0.80403601  0.68538597  0.30679509
   0.78780512  0.81025395  0.39230571
   0.81169813  0.90906932  0.50452760
   0.81633565  0.99878194  0.61593219
   0.88516024  0.08291678  0.80988815
   0.89109088  0.18782062  0.91117323
   0.91965983  0.30173433  0.99992671
   0.91047884  0.41980050  0.08182238
   0.90476270  0.49342298  0.19633936
   0.91098929  0.60547560  0.27306864
   0.88904412  0.69840792  0.40828064
   0.89040948  0.79561759  0.49827413
   0.91532448  0.89597798  0.61677287
   0.90260695  0.98802295  0.71065368
   0.98523630  0.08395691  0.90767674
   0.00086598  0.17943099  0.99665467
   0.00066464  0.29351990  0.10487815
   0.02037035  0.42057231  0.19508737
   0.00183278  0.50900979  0.30735938
   0.01188803  0.61678537  0.39756125
   0.99405815  0.70628373  0.49255710
   0.97559949  0.77589474  0.59840510
   0.99178301  0.89447065  0.71253217
   0.99387911  0.98263842  0.81316682
   0.21822574  0.18649336  0.01273318
   0.21602493  0.27471891  0.09660774
   0.21228615  0.39040721  0.18925019
   0.19904852  0.49709616  0.31180408
   0.19273639  0.60397222  0.39955397
   0.21386452  0.71131547  0.48281668
   0.17452336  0.80656033  0.59772508
   0.18726935  0.89367617  0.69696486
   0.20376817  0.99663171  0.80573896
   0.21330459  0.07542344  0.92348954
   0.32547666  0.19688439  0.09739430
   0.28666125  0.29797910  0.18954440
   0.29676104  0.39706844  0.30150584
   0.30703245  0.50354917  0.40595919
   0.30410263  0.60433342  0.49915738
   0.28230788  0.72154751  0.57844118
   0.28944906  0.81436707  0.69523523
   0.30631781  0.90471292  0.79763369
   0.32081847  0.99721773  0.90858555
   0.32644693  0.09917078  0.98649063
   0.39804397  0.20614775  0.21342502
   0.39748773  0.28038358  0.30324842
   0.39442180  0.39338031  0.38737089
   0.41504697  0.50973696  0.49640181
   0.39727163  0.63180310  0.58836805
   0.38797137  0.73508121  0.67644642
   0.42445664  0.77763813  0.79617328
   0.40851628  0.87224371  0.90991618
   0.41102094  0.98761686  0.01016519
   0.38960558  0.10732732  0.08332284
   0.49784084  0.19715896  0.30496927
   0.50067744  0.29540633  0.41883751
   0.49244847  0.39396444  0.49945154
   0.50952560  0.51561518  0.60826200
   0.48607545  0.60299886  0.69585101
   0.51550114  0.69189973  0.78388379
   0.51583463  0.79625274  0.90879684
   0.52111691  0.88682075  0.00191843
   0.49156081  0.00888552  0.10728279
   0.49783145  0.10992405  0.19468007
   0.61149243  0.19538548  0.41315176
   0.61177297  0.30418856  0.49257463
   0.59119146  0.40268420  0.61397304
   0.58615839  0.48964017  0.70322317
   0.59539823  0.58552338  0.79749155
   0.60966720  0.69070084  0.90316088
   0.59331866  0.78432181  0.02970992
   0.57099331  0.91403689  0.11741380
   0.58956180  0.00061871  0.22186822
   0.61752070  0.12004605  0.31198890
   0.69706731  0.19595624  0.50531621
   0.68599686  0.29223684  0.59752517
   0.68856880  0.38912589  0.70932326
   0.69169594  0.50007035  0.77708683
   0.73262220  0.61038018  0.90222793
   0.69913650  0.71339389  0.00830713
   0.68170422  0.81998378  0.12545853
   0.68798088  0.90953104  0.20188713
   0.68762559  0.00413669  0.30812258
   0.71123884  0.08761984  0.40801817
   0.79428562  0.20931462  0.58628267
   0.78751059  0.30401473  0.70241143
   0.82051416  0.41191334  0.76269647
   0.79587881  0.48953469  0.89428626
   0.81967380  0.60117638  0.00783816
   0.79922599  0.70852572  0.09030103
   0.78758004  0.81055019  0.19793498
   0.78827313  0.91590823  0.29866627
   0.81741274  0.99193951  0.39709787
   0.80343184  0.10178576  0.50689507
   0.88938920  0.20738368  0.72249382
   0.91660241  0.31053934  0.80240618
   0.88836420  0.40616278  0.89857366
   0.87955306  0.49689181  0.99423628
   0.89133352  0.60442712  0.10038605
   0.88252151  0.70847298  0.19215480
   0.89160906  0.82046719  0.29063065
   0.90126704  0.89296429  0.39501805
   0.89109961  0.00780138  0.51790415
   0.88853215  0.11374929  0.61765019
   0.01550755  0.19459674  0.82227987
   0.01197147  0.30758589  0.89842342
   0.01240418  0.38408293  0.00390002
   0.01691122  0.51290142  0.08947163
   0.00107497  0.61441425  0.18708691
   0.98038016  0.70445254  0.29969528
   0.98200502  0.79953765  0.39484618
   0.98225346  0.90012850  0.50068866
   0.98546032  0.01530925  0.61019008
   0.99586806  0.12044047  0.72332933
   0.12027180  0.19635599  0.89741697
   0.12231978  0.27774825  0.00201873
   0.10608323  0.38441463  0.09099409
   0.10810077  0.50137153  0.18411926
   0.09159227  0.62319174  0.28823721
   0.09078156  0.71508011  0.38143839
   0.07846796  0.80784065  0.51758357
   0.05874115  0.89441009  0.60169040
   0.10152164  0.00382975  0.71642774
   0.11466226  0.08244296  0.80969422
   0.31583106  0.30648515  0.01656923
   0.29763418  0.40476330  0.07789357
   0.31177980  0.50153052  0.22703812
   0.29310214  0.60752586  0.30831294
   0.30956197  0.70156480  0.39904851
   0.29272618  0.79746341  0.50331197
   0.29608880  0.87078762  0.60327417
   0.29755996  0.98204933  0.68823302
   0.29804034  0.09602443  0.79131662
   0.30500195  0.19483339  0.90529035
   0.40651543  0.32572897  0.12043543
   0.40152915  0.38470842  0.22699824
   0.41294849  0.49842620  0.29947111
   0.40123077  0.58149350  0.39865245
   0.41988769  0.70717695  0.47583103
   0.39404779  0.78584066  0.58856356
   0.39050854  0.88370230  0.69524390
   0.36968801  0.99035975  0.78774967
   0.40224468  0.11019803  0.89804033
   0.41895919  0.22977956  0.99956597
   0.51092448  0.28909875  0.21296399
   0.51351336  0.38684584  0.32008822
   0.48828525  0.48267307  0.39443470
   0.51026266  0.61606554  0.48759647
   0.51276187  0.69125887  0.57919658
   0.51216095  0.80234076  0.68064206
   0.49632025  0.88559893  0.80830707
   0.48440693  0.00176076  0.90803743
   0.50292966  0.11675251  0.99734069
   0.49615592  0.20132598  0.11644222
   0.59782010  0.29475067  0.28365057
   0.60519798  0.39634397  0.39818437
   0.58844157  0.50296855  0.51865020
   0.60733077  0.60272242  0.61453533
   0.59835445  0.68523044  0.69666964
   0.58256498  0.81074444  0.78719448
   0.58905799  0.90927821  0.91538293
   0.59430977  0.02205522  0.01604890
   0.60955628  0.10867676  0.11366738
   0.61411298  0.20557691  0.19373504
   0.69874584  0.30924393  0.39548221
   0.68676472  0.41128285  0.49607713
   0.68920303  0.49826918  0.61724185
   0.69537924  0.59135172  0.68924983
   0.69018444  0.69032193  0.80029150
   0.68515190  0.79531400  0.91372749
   0.67197646  0.90966868  0.00779979
   0.68946937  0.00589141  0.11288171
   0.71975770  0.11389740  0.21188760
   0.72314906  0.19462567  0.32436068
   0.82988278  0.31276184  0.48612443
   0.79338961  0.41191838  0.62241165
   0.80517327  0.51807880  0.69787356
   0.80080515  0.59662995  0.78844394
   0.78215322  0.71921809  0.89934439
   0.78301333  0.80941289  0.00708302
   0.78728120  0.93259405  0.09967924
   0.79750946  0.99690384  0.20686878
   0.80801418  0.09802874  0.29005063
   0.78903110  0.19256475  0.41441756
   0.90452864  0.30175831  0.61054977
   0.91986581  0.39811582  0.68480773
   0.91277154  0.50914271  0.78290335
   0.90344042  0.61831360  0.88296789
   0.87990291  0.71485064  0.98143585
   0.87823630  0.81215336  0.10662415
   0.88653968  0.89624260  0.20136167
   0.90284687  0.99395770  0.29309822
   0.88861026  0.09061263  0.39512023
   0.89696777  0.18676437  0.50484641
   0.00059826  0.29247928  0.70632810
   0.00978923  0.40121277  0.80186741
   0.98958824  0.50531010  0.91856319
   0.99972086  0.60358875  0.97451481
   0.98588839  0.68833370  0.08898545
   0.99802910  0.78983578  0.18008628
   0.01198017  0.88186289  0.28229625
   0.99496054  0.01808227  0.40618716
   0.99909132  0.09817929  0.51300802
   0.98099378  0.20561286  0.59578197
   0.13116958  0.30923132  0.80631318
   0.11050279  0.40221987  0.90892796
   0.12795841  0.49743991  0.00388840
   0.10563089  0.61160236  0.07408692
   0.10696726  0.68160354  0.19807653
   0.10795478  0.79321555  0.27386346
   0.08955472  0.88223855  0.38943523
   0.07717148  0.00508882  0.48897115
   0.09106720  0.08500642  0.61671056
   0.11970332  0.20266579  0.68875992
   0.24226401  0.29872480  0.90380466
   0.19974314  0.39506991  0.99456081
   0.21652906  0.49248726  0.10942138
   0.19660940  0.60937098  0.19044514
   0.21494585  0.69673592  0.30208610
   0.18814937  0.80732978  0.38539719
   0.17929350  0.89984040  0.48670082
   0.18632855  0.96745178  0.58597902
   0.20115133  0.09132106  0.68570341
   0.19798809  0.18438859  0.79877746
   0.39711692  0.42687500  0.98973909
   0.38577628  0.49159480  0.12479903
   0.42072947  0.57725290  0.20568742
   0.40172817  0.67226969  0.30497852
   0.39320118  0.80449176  0.39683372
   0.38991557  0.89263738  0.48563906
   0.39863412  0.98582450  0.59503472
   0.39633298  0.09444854  0.69493362
   0.39154980  0.22204012  0.79051329
   0.39081202  0.31565554  0.88617960
   0.51967890  0.42054277  0.10194876
   0.50700564  0.49562751  0.20530994
   0.51194131  0.59885152  0.32096671
   0.50870773  0.71015314  0.39569898
   0.51831237  0.80914928  0.49459196
   0.51202074  0.88953458  0.59458960
   0.48995539  0.96557578  0.71773037
   0.47974973  0.10481281  0.79944231
   0.49923431  0.20578338  0.89896971
   0.50199709  0.32376648  0.01265373
   0.60504034  0.39454686  0.20601935
   0.62236193  0.50462347  0.30718665
   0.60952382  0.58305742  0.41684211
   0.62689064  0.71031548  0.50279996
   0.61938004  0.81420715  0.57762145
   0.60635526  0.90997751  0.70250216
   0.59389763  0.99826532  0.80924574
   0.57605152  0.10716603  0.89773815
   0.57451496  0.21662191  0.01412580
   0.60239943  0.30692006  0.11128533
   0.69571123  0.39413518  0.29242212
   0.70447765  0.49990156  0.39424145
   0.70880590  0.60949027  0.50156473
   0.71206965  0.72134116  0.59675687
   0.69560325  0.79034982  0.71213680
   0.69900701  0.89517899  0.80438428
   0.66659353  0.99636768  0.90245551
   0.68764326  0.11110826  0.98311989
   0.70166694  0.20516725  0.08465377
   0.71795996  0.28904511  0.20606622
   0.81066859  0.40617611  0.39449977
   0.79192655  0.49829753  0.49105726
   0.78667052  0.61004458  0.61325819
   0.79953121  0.70164256  0.70689370
   0.78152463  0.81216515  0.80936207
   0.78575281  0.90741151  0.92030645
   0.78037554  0.00165225  0.99796962
   0.79458943  0.09815921  0.09522194
   0.81829722  0.19501889  0.19755163
   0.81531760  0.29638662  0.31116601
   0.92186798  0.42591715  0.50912059
   0.86772052  0.50958066  0.59536900
   0.90884959  0.60068448  0.70152884
   0.88153327  0.70455990  0.80694960
   0.91192115  0.80080325  0.90959246
   0.88812117  0.91545103  0.00377409
   0.89017757  0.99750740  0.08863170
   0.91226096  0.07838280  0.19361172
   0.89786093  0.19399638  0.30865882
   0.90388408  0.27497818  0.40293040
   0.00879783  0.39562034  0.59534911
   0.01049016  0.49720094  0.69633693
   0.00131307  0.60607763  0.79335332
   0.00065454  0.69306847  0.89181574
   0.99371124  0.79678966  0.00731908
   0.00823306  0.89111450  0.08192336
   0.98821838  0.97367342  0.17772197
   0.99624048  0.09772444  0.27775533
   0.00123038  0.20369433  0.39306913
   0.98310082  0.29034980  0.50996467
   0.11088010  0.39230702  0.69731298
   0.08626500  0.49168211  0.80778556
   0.08829769  0.61246909  0.90000500
   0.10448904  0.71539677  0.98643370
   0.10110530  0.78432109  0.11493826
   0.10841364  0.88623643  0.18925125
   0.09451351  0.99605783  0.27956826
   0.07834008  0.10656651  0.41151861
   0.10635433  0.19540827  0.52346031
   0.12291190  0.29987017  0.60484617
   0.20879985  0.42456788  0.79987309
   0.20223707  0.52746124  0.90467474
   0.18985525  0.61773333  0.99769309
   0.19460666  0.71291754  0.09835552
   0.21852660  0.80074299  0.18478306
   0.20654091  0.89655828  0.27632725
   0.18082574  0.98062281  0.39692440
   0.17099170  0.07893635  0.49371863
   0.21749854  0.20552000  0.59111675
   0.20416093  0.29515135  0.70654774
   0.29772757  0.40951189  0.89162386
   0.30143316  0.51188253  0.98838385
   0.29940227  0.61016745  0.09765984
   0.30559157  0.66945614  0.19956566
   0.30790191  0.77965277  0.27614850
   0.29724880  0.88830349  0.38981481
   0.29045777  0.97855159  0.48821355
   0.30039430  0.08588157  0.58179830
   0.30877359  0.20673860  0.69949703
   0.29734907  0.29959075  0.78539757
