 432 432   0   0
  0.1857636E+02  0.2002080E-08  0.2002080E-08  0.2002080E-08  0.5000000E-15
  1.000000000000000E-004
  CAR 
 Li                                      
      3.90246271     -3.32072993  301      0.63918588      1.00000000
     -3.321  0.0000E+00  0.0000E+00
     -3.297  0.0000E+00  0.0000E+00
     -3.273  0.0000E+00  0.0000E+00
     -3.248  0.0000E+00  0.0000E+00
     -3.224  0.0000E+00  0.0000E+00
     -3.200  0.0000E+00  0.0000E+00
     -3.176  0.0000E+00  0.0000E+00
     -3.152  0.1999E-11  0.4813E-13
     -3.128  0.6372E-08  0.1535E-09
     -3.104  0.5756E-05  0.1387E-06
     -3.080  0.1489E-02  0.3598E-04
     -3.056  0.1118E+00  0.2727E-02
     -3.032  0.2487E+01  0.6262E-01
     -3.008  0.1681E+02  0.4673E+00
     -2.984  0.3528E+02  0.1317E+01
     -2.960  0.2328E+02  0.1877E+01
     -2.935  0.4892E+01  0.1995E+01
     -2.911  0.2764E+01  0.2062E+01
     -2.887  0.2036E+02  0.2552E+01
     -2.863  0.6346E+02  0.4080E+01
     -2.839  0.8744E+02  0.6185E+01
     -2.815  0.5728E+02  0.7564E+01
     -2.791  0.1638E+02  0.7959E+01
     -2.767  0.4328E+01  0.8063E+01
     -2.743  0.2293E+02  0.8615E+01
     -2.719  0.7360E+02  0.1039E+02
     -2.695  0.9299E+02  0.1263E+02
     -2.671  0.4732E+02  0.1377E+02
     -2.647  0.1173E+02  0.1405E+02
     -2.622  0.2115E+02  0.1456E+02
     -2.598  0.6615E+02  0.1615E+02
     -2.574  0.1043E+03  0.1866E+02
     -2.550  0.9183E+02  0.2087E+02
     -2.526  0.4004E+02  0.2184E+02
     -2.502  0.1364E+02  0.2216E+02
     -2.478  0.4472E+02  0.2324E+02
     -2.454  0.1196E+03  0.2612E+02
     -2.430  0.1558E+03  0.2987E+02
     -2.406  0.1140E+03  0.3262E+02
     -2.382  0.4760E+02  0.3376E+02
     -2.358  0.1317E+02  0.3408E+02
     -2.334  0.2639E+02  0.3472E+02
     -2.309  0.6791E+02  0.3635E+02
     -2.285  0.8476E+02  0.3839E+02
     -2.261  0.5209E+02  0.3965E+02
     -2.237  0.2033E+02  0.4014E+02
     -2.213  0.4414E+02  0.4120E+02
     -2.189  0.1154E+03  0.4398E+02
     -2.165  0.1535E+03  0.4767E+02
     -2.141  0.1170E+03  0.5049E+02
     -2.117  0.5344E+02  0.5178E+02
     -2.093  0.3388E+02  0.5259E+02
     -2.069  0.8860E+02  0.5473E+02
     -2.045  0.1603E+03  0.5859E+02
     -2.021  0.1883E+03  0.6312E+02
     -1.996  0.1667E+03  0.6713E+02
     -1.972  0.9262E+02  0.6936E+02
     -1.948  0.2649E+02  0.7000E+02
     -1.924  0.2176E+02  0.7052E+02
     -1.900  0.6060E+02  0.7198E+02
     -1.876  0.8706E+02  0.7408E+02
     -1.852  0.6136E+02  0.7556E+02
     -1.828  0.3143E+02  0.7631E+02
     -1.804  0.6601E+02  0.7790E+02
     -1.780  0.1409E+03  0.8130E+02
     -1.756  0.1725E+03  0.8545E+02
     -1.732  0.1252E+03  0.8847E+02
     -1.708  0.5345E+02  0.8975E+02
     -1.683  0.2974E+02  0.9047E+02
     -1.659  0.8559E+02  0.9253E+02
     -1.635  0.1758E+03  0.9676E+02
     -1.611  0.2118E+03  0.1019E+03
     -1.587  0.1641E+03  0.1058E+03
     -1.563  0.7522E+02  0.1076E+03
     -1.539  0.3174E+02  0.1084E+03
     -1.515  0.7157E+02  0.1101E+03
     -1.491  0.1364E+03  0.1134E+03
     -1.467  0.1462E+03  0.1169E+03
     -1.443  0.9507E+02  0.1192E+03
     -1.419  0.5184E+02  0.1205E+03
     -1.395  0.8724E+02  0.1226E+03
     -1.370  0.1611E+03  0.1264E+03
     -1.346  0.1992E+03  0.1312E+03
     -1.322  0.1716E+03  0.1354E+03
     -1.298  0.9303E+02  0.1376E+03
     -1.274  0.5913E+02  0.1390E+03
     -1.250  0.1152E+03  0.1418E+03
     -1.226  0.1838E+03  0.1462E+03
     -1.202  0.1943E+03  0.1509E+03
     -1.178  0.1407E+03  0.1543E+03
     -1.154  0.6140E+02  0.1558E+03
     -1.130  0.3320E+02  0.1566E+03
     -1.106  0.8157E+02  0.1585E+03
     -1.082  0.1353E+03  0.1618E+03
     -1.057  0.1348E+03  0.1650E+03
     -1.033  0.8975E+02  0.1672E+03
     -1.009  0.4479E+02  0.1683E+03
     -0.985  0.6833E+02  0.1699E+03
     -0.961  0.1362E+03  0.1732E+03
     -0.937  0.1544E+03  0.1769E+03
     -0.913  0.1058E+03  0.1795E+03
     -0.889  0.8927E+02  0.1816E+03
     -0.865  0.1517E+03  0.1853E+03
     -0.841  0.2179E+03  0.1905E+03
     -0.817  0.2439E+03  0.1964E+03
     -0.793  0.2452E+03  0.2023E+03
     -0.769  0.1943E+03  0.2070E+03
     -0.744  0.1140E+03  0.2097E+03
     -0.720  0.9958E+02  0.2121E+03
     -0.696  0.1599E+03  0.2160E+03
     -0.672  0.1933E+03  0.2206E+03
     -0.648  0.1620E+03  0.2245E+03
     -0.624  0.1032E+03  0.2270E+03
     -0.600  0.7162E+02  0.2287E+03
     -0.576  0.1116E+03  0.2314E+03
     -0.552  0.1600E+03  0.2353E+03
     -0.528  0.1542E+03  0.2390E+03
     -0.504  0.1032E+03  0.2415E+03
     -0.480  0.7925E+02  0.2434E+03
     -0.456  0.1380E+03  0.2467E+03
     -0.431  0.2005E+03  0.2515E+03
     -0.407  0.2096E+03  0.2566E+03
     -0.383  0.1937E+03  0.2612E+03
     -0.359  0.1738E+03  0.2654E+03
     -0.335  0.1413E+03  0.2688E+03
     -0.311  0.9000E+02  0.2710E+03
     -0.287  0.4431E+02  0.2721E+03
     -0.263  0.5571E+02  0.2734E+03
     -0.239  0.1150E+03  0.2762E+03
     -0.215  0.1629E+03  0.2801E+03
     -0.191  0.1967E+03  0.2848E+03
     -0.167  0.2091E+03  0.2899E+03
     -0.143  0.1969E+03  0.2946E+03
     -0.118  0.1700E+03  0.2987E+03
     -0.094  0.1528E+03  0.3024E+03
     -0.070  0.1504E+03  0.3060E+03
     -0.046  0.1779E+03  0.3103E+03
     -0.022  0.2143E+03  0.3154E+03
      0.002  0.2331E+03  0.3210E+03
      0.026  0.2201E+03  0.3263E+03
      0.050  0.1674E+03  0.3304E+03
      0.074  0.1191E+03  0.3332E+03
      0.098  0.1124E+03  0.3359E+03
      0.122  0.1441E+03  0.3394E+03
      0.146  0.1677E+03  0.3435E+03
      0.170  0.1791E+03  0.3478E+03
      0.195  0.2086E+03  0.3528E+03
      0.219  0.2305E+03  0.3583E+03
      0.243  0.2289E+03  0.3638E+03
      0.267  0.2249E+03  0.3693E+03
      0.291  0.2064E+03  0.3742E+03
      0.315  0.1696E+03  0.3783E+03
      0.339  0.1404E+03  0.3817E+03
      0.363  0.1498E+03  0.3853E+03
      0.387  0.1780E+03  0.3896E+03
      0.411  0.1954E+03  0.3943E+03
      0.435  0.1860E+03  0.3988E+03
      0.459  0.1620E+03  0.4027E+03
      0.483  0.1484E+03  0.4063E+03
      0.508  0.1526E+03  0.4099E+03
      0.532  0.1649E+03  0.4139E+03
      0.556  0.1672E+03  0.4179E+03
      0.580  0.1671E+03  0.4219E+03
      0.604  0.1690E+03  0.4260E+03
      0.628  0.1688E+03  0.4301E+03
      0.652  0.1744E+03  0.4343E+03
      0.676  0.1885E+03  0.4388E+03
      0.700  0.1974E+03  0.4436E+03
      0.724  0.1948E+03  0.4483E+03
      0.748  0.1797E+03  0.4526E+03
      0.772  0.1706E+03  0.4567E+03
      0.796  0.1778E+03  0.4610E+03
      0.821  0.1941E+03  0.4656E+03
      0.845  0.1983E+03  0.4704E+03
      0.869  0.1827E+03  0.4748E+03
      0.893  0.1847E+03  0.4793E+03
      0.917  0.2119E+03  0.4844E+03
      0.941  0.2198E+03  0.4897E+03
      0.965  0.2095E+03  0.4947E+03
      0.989  0.2045E+03  0.4996E+03
      1.013  0.2118E+03  0.5047E+03
      1.037  0.2260E+03  0.5102E+03
      1.061  0.2288E+03  0.5157E+03
      1.085  0.2231E+03  0.5210E+03
      1.109  0.2256E+03  0.5265E+03
      1.134  0.2355E+03  0.5321E+03
      1.158  0.2349E+03  0.5378E+03
      1.182  0.2164E+03  0.5430E+03
      1.206  0.2006E+03  0.5478E+03
      1.230  0.1923E+03  0.5525E+03
      1.254  0.1899E+03  0.5570E+03
      1.278  0.1974E+03  0.5618E+03
      1.302  0.2016E+03  0.5667E+03
      1.326  0.2001E+03  0.5715E+03
      1.350  0.2029E+03  0.5764E+03
      1.374  0.2047E+03  0.5813E+03
      1.398  0.1996E+03  0.5861E+03
      1.422  0.1998E+03  0.5909E+03
      1.447  0.1955E+03  0.5956E+03
      1.471  0.1774E+03  0.5999E+03
      1.495  0.1705E+03  0.6040E+03
      1.519  0.1792E+03  0.6083E+03
      1.543  0.1894E+03  0.6129E+03
      1.567  0.1866E+03  0.6174E+03
      1.591  0.1786E+03  0.6217E+03
      1.615  0.1698E+03  0.6257E+03
      1.639  0.1727E+03  0.6299E+03
      1.663  0.1752E+03  0.6341E+03
      1.687  0.1687E+03  0.6382E+03
      1.711  0.1581E+03  0.6420E+03
      1.736  0.1477E+03  0.6455E+03
      1.760  0.1467E+03  0.6491E+03
      1.784  0.1521E+03  0.6527E+03
      1.808  0.1558E+03  0.6565E+03
      1.832  0.1526E+03  0.6602E+03
      1.856  0.1523E+03  0.6638E+03
      1.880  0.1546E+03  0.6676E+03
      1.904  0.1592E+03  0.6714E+03
      1.928  0.1665E+03  0.6754E+03
      1.952  0.1702E+03  0.6795E+03
      1.976  0.1696E+03  0.6836E+03
      2.000  0.1653E+03  0.6876E+03
      2.024  0.1572E+03  0.6913E+03
      2.049  0.1581E+03  0.6951E+03
      2.073  0.1651E+03  0.6991E+03
      2.097  0.1723E+03  0.7033E+03
      2.121  0.1700E+03  0.7074E+03
      2.145  0.1601E+03  0.7112E+03
      2.169  0.1552E+03  0.7150E+03
      2.193  0.1649E+03  0.7189E+03
      2.217  0.1751E+03  0.7231E+03
      2.241  0.1773E+03  0.7274E+03
      2.265  0.1693E+03  0.7315E+03
      2.289  0.1662E+03  0.7355E+03
      2.313  0.1656E+03  0.7395E+03
      2.337  0.1585E+03  0.7433E+03
      2.362  0.1455E+03  0.7468E+03
      2.386  0.1308E+03  0.7499E+03
      2.410  0.1264E+03  0.7530E+03
      2.434  0.1357E+03  0.7563E+03
      2.458  0.1385E+03  0.7596E+03
      2.482  0.1316E+03  0.7628E+03
      2.506  0.1254E+03  0.7658E+03
      2.530  0.1251E+03  0.7688E+03
      2.554  0.1273E+03  0.7719E+03
      2.578  0.1283E+03  0.7749E+03
      2.602  0.1285E+03  0.7780E+03
      2.626  0.1194E+03  0.7809E+03
      2.650  0.1061E+03  0.7835E+03
      2.675  0.9517E+02  0.7858E+03
      2.699  0.8649E+02  0.7878E+03
      2.723  0.9294E+02  0.7901E+03
      2.747  0.9827E+02  0.7924E+03
      2.771  0.8595E+02  0.7945E+03
      2.795  0.4950E+02  0.7957E+03
      2.819  0.1956E+02  0.7962E+03
      2.843  0.2765E+02  0.7968E+03
      2.867  0.5624E+02  0.7982E+03
      2.891  0.7702E+02  0.8000E+03
      2.915  0.7553E+02  0.8019E+03
      2.939  0.7790E+02  0.8037E+03
      2.963  0.7654E+02  0.8056E+03
      2.988  0.6490E+02  0.8071E+03
      3.012  0.6857E+02  0.8088E+03
      3.036  0.8606E+02  0.8109E+03
      3.060  0.9226E+02  0.8131E+03
      3.084  0.1038E+03  0.8156E+03
      3.108  0.1187E+03  0.8184E+03
      3.132  0.1192E+03  0.8213E+03
      3.156  0.1213E+03  0.8242E+03
      3.180  0.1238E+03  0.8272E+03
      3.204  0.1169E+03  0.8300E+03
      3.228  0.1104E+03  0.8327E+03
      3.252  0.1078E+03  0.8353E+03
      3.276  0.1049E+03  0.8378E+03
      3.301  0.1027E+03  0.8403E+03
      3.325  0.9588E+02  0.8426E+03
      3.349  0.8677E+02  0.8447E+03
      3.373  0.8662E+02  0.8468E+03
      3.397  0.8797E+02  0.8489E+03
      3.421  0.8887E+02  0.8510E+03
      3.445  0.8172E+02  0.8530E+03
      3.469  0.7942E+02  0.8549E+03
      3.493  0.9468E+02  0.8572E+03
      3.517  0.1156E+03  0.8600E+03
      3.541  0.1124E+03  0.8627E+03
      3.565  0.8438E+02  0.8647E+03
      3.589  0.4203E+02  0.8657E+03
      3.614  0.1047E+02  0.8660E+03
      3.638  0.1055E+01  0.8660E+03
      3.662  0.3788E-01  0.8660E+03
      3.686  0.4447E-03  0.8660E+03
      3.710  0.1608E-05  0.8660E+03
      3.734  0.1720E-08  0.8660E+03
      3.758  0.5280E-12  0.8660E+03
      3.782  0.0000E+00  0.8660E+03
      3.806  0.0000E+00  0.8660E+03
      3.830  0.0000E+00  0.8660E+03
      3.854  0.0000E+00  0.8660E+03
      3.878  0.0000E+00  0.8660E+03
      3.902  0.0000E+00  0.8660E+03
