Li                                      
           1
    20.020800    0.000000    0.000000
     0.000000   20.020800    0.000000
     0.000000    0.000000   20.020800
   Li
   432
Direct configuration=     1
   0.98797561  0.94986172  0.97531324
   0.93302830  0.08376976  0.07968304
   0.83363151  0.16074210  0.15901234
   0.77412715  0.25865436  0.27073001
   0.67594440  0.34555124  0.36581648
   0.56489186  0.44481238  0.42900334
   0.46174851  0.52505715  0.48558825
   0.40728541  0.57839574  0.56314204
   0.31576311  0.64789491  0.65149431
   0.26542737  0.74175282  0.76239451
   0.16802488  0.82325137  0.84264931
   0.07270452  0.90471044  0.90329171
   0.08134076  0.91412310  0.08651085
   0.99760610  0.98289920  0.17722691
   0.91666490  0.06794203  0.24965453
   0.84165674  0.16876062  0.34075249
   0.75234974  0.23777541  0.42877780
   0.67959431  0.35831411  0.52594697
   0.56881281  0.44826696  0.60165211
   0.45767957  0.50387237  0.68087297
   0.38852018  0.59255191  0.77027606
   0.32526671  0.66610978  0.86837932
   0.24572706  0.75759532  0.93558439
   0.17607529  0.87192921  0.00963846
   0.15668573  0.86475437  0.16852756
   0.06381017  0.92504367  0.29453048
   0.99260049  0.02278051  0.36406912
   0.89821107  0.06552615  0.43140965
   0.85317517  0.15303181  0.51821166
   0.75527762  0.26146142  0.58329758
   0.67072988  0.34863679  0.69300994
   0.56680949  0.42240291  0.74448162
   0.48135388  0.52043362  0.83515022
   0.42110721  0.57951081  0.91754174
   0.34235255  0.67688826  0.02209752
   0.23458594  0.77001747  0.09773748
   0.22244022  0.76309309  0.21234323
   0.17871103  0.84060018  0.34728774
   0.09407015  0.92625453  0.43698218
   0.98363305  0.01051275  0.48297874
   0.93091723  0.07834329  0.61026371
   0.83011253  0.16359732  0.65437064
   0.76990976  0.26039887  0.76811005
   0.64781184  0.31890946  0.81917746
   0.55885128  0.43834174  0.92638821
   0.50850505  0.50379109  0.99753685
   0.44546888  0.57305639  0.08065569
   0.33620431  0.66349602  0.16701010
   0.31748418  0.64555533  0.27608480
   0.24649038  0.71753474  0.39462460
   0.18097073  0.80505655  0.49769621
   0.09832676  0.90639200  0.58449843
   0.02809442  0.97806206  0.67233934
   0.90332819  0.06638843  0.71971500
   0.82852954  0.15953211  0.85062476
   0.73424561  0.23501630  0.89801857
   0.66418282  0.34220284  0.00088125
   0.60550741  0.40286968  0.08928704
   0.53495540  0.46170981  0.17431425
   0.43859603  0.59068743  0.22062404
   0.42183507  0.59147353  0.38081428
   0.32639035  0.65158029  0.48438866
   0.28250189  0.73985945  0.59057948
   0.16209494  0.83081898  0.67122880
   0.10397202  0.89892038  0.74504385
   0.00761994  0.98001528  0.81418292
   0.91883736  0.08153119  0.90025747
   0.81295215  0.14973523  0.99875760
   0.75287928  0.23127390  0.07830610
   0.69772210  0.34558191  0.18530158
   0.62199957  0.41751851  0.27517231
   0.50708269  0.49254484  0.29525218
   0.05693423  0.06504000  0.90694826
   0.00615977  0.16706488  0.96227340
   0.90356100  0.24526478  0.06681237
   0.85247965  0.35602015  0.15377379
   0.74767368  0.42220154  0.27907739
   0.67514759  0.49540349  0.33016304
   0.57031428  0.57596337  0.40039748
   0.49022638  0.67408939  0.50620714
   0.39982260  0.75622777  0.58906213
   0.33548061  0.83525074  0.67817768
   0.26089720  0.89185055  0.75124685
   0.18464914  0.99816592  0.88117704
   0.17368085  0.00694564  0.97660912
   0.05480311  0.07743486  0.05343580
   0.99665213  0.14775259  0.15774856
   0.92228793  0.25587561  0.23844370
   0.86636127  0.36234222  0.34398521
   0.78016537  0.41755401  0.41535184
   0.65732854  0.52556590  0.49716495
   0.57050056  0.59586283  0.57721687
   0.49068485  0.66007640  0.65379961
   0.39933831  0.71802826  0.73948373
   0.35912141  0.81016564  0.84177091
   0.25472825  0.90526825  0.90633594
   0.25272479  0.93459693  0.06465880
   0.16015192  0.01353319  0.16274752
   0.06200560  0.07086310  0.22924059
   0.98298201  0.14287339  0.33704418
   0.92021650  0.25630626  0.43633616
   0.84978575  0.35562297  0.49288774
   0.73339298  0.43133010  0.56884973
   0.67908297  0.51154481  0.67410536
   0.56743426  0.57698972  0.74606391
   0.51273936  0.66018711  0.85229458
   0.43163667  0.74907384  0.92170636
   0.35991308  0.82304704  0.98974657
   0.35021572  0.86259594  0.13588727
   0.23802614  0.92614212  0.26101303
   0.16446893  0.01516599  0.31591327
   0.10819031  0.07247682  0.41216340
   0.99159609  0.14147557  0.50693075
   0.89538909  0.25051106  0.58560527
   0.82651784  0.34958098  0.65351009
   0.75894518  0.41651641  0.75664726
   0.66027077  0.50263872  0.81437597
   0.61807448  0.57353465  0.89637718
   0.52929959  0.66194672  0.00099710
   0.45434753  0.74971694  0.08304783
   0.41201587  0.75139168  0.23516277
   0.32434412  0.80636674  0.31430771
   0.27229862  0.93259061  0.42125625
   0.17531544  0.99799168  0.52015124
   0.09371864  0.06723239  0.60297009
   0.98790177  0.17981264  0.70145706
   0.88985850  0.26321013  0.74650281
   0.85144770  0.33616332  0.84395751
   0.74586076  0.39427496  0.92257133
   0.66773688  0.51406466  0.01575049
   0.59389033  0.57177882  0.10169640
   0.53077750  0.67898062  0.18454831
   0.49277800  0.65547223  0.32085693
   0.39893463  0.74324650  0.41054024
   0.33255817  0.83081529  0.48230778
   0.28324112  0.89910886  0.58121969
   0.19600721  0.97217120  0.66750297
   0.10929980  0.04090301  0.73669161
   0.00137847  0.12705604  0.79356236
   0.91396692  0.22528684  0.92218732
   0.82925677  0.30862984  0.95934519
   0.75614998  0.37693324  0.07383081
   0.67531456  0.47326826  0.14694936
   0.59438980  0.57057565  0.24619188
   0.17772024  0.13795082  0.84634026
   0.08525474  0.24383506  0.88847290
   0.97994761  0.30507800  0.98151306
   0.91168861  0.41735959  0.05627098
   0.83041134  0.45909779  0.17223286
   0.78748102  0.55058538  0.24175793
   0.68263701  0.64161167  0.34171711
   0.59164018  0.73129127  0.41832340
   0.50805304  0.79779102  0.48310481
   0.40646529  0.90515886  0.56664550
   0.32668121  0.98865464  0.67225530
   0.24974956  0.08684298  0.76720365
   0.27498886  0.08236700  0.92239272
   0.16695073  0.17750661  0.99452958
   0.04665173  0.20893869  0.06501442
   0.98896003  0.33448112  0.14197034
   0.91328968  0.41378258  0.24277680
   0.86760737  0.50213642  0.34767102
   0.76633372  0.54588639  0.41909054
   0.68763983  0.66642102  0.50100233
   0.59944561  0.75683913  0.54925412
   0.50616044  0.82679373  0.64907421
   0.43416819  0.88966851  0.75822800
   0.35217513  0.99645279  0.80928461
   0.35116218  0.98977336  0.98305943
   0.25557090  0.09310211  0.07666856
   0.16210718  0.16759452  0.14899218
   0.06264179  0.22377184  0.22069859
   0.99643827  0.32148056  0.32993084
   0.94031718  0.42004308  0.46545439
   0.84837440  0.50415723  0.49620203
   0.75766192  0.59015338  0.59713244
   0.65983038  0.68273590  0.65842440
   0.60034168  0.73357719  0.75609492
   0.50688479  0.82434871  0.81874181
   0.41973756  0.92971371  0.92138214
   0.42989308  0.92863096  0.08697065
   0.32560420  0.00873573  0.19697641
   0.24799556  0.09324072  0.23844111
   0.15984311  0.16959506  0.32570398
   0.06860663  0.25206894  0.42888547
   0.01453546  0.33015369  0.51987114
   0.91937945  0.41786017  0.56831700
   0.85091984  0.48669345  0.67086120
   0.75531586  0.61131707  0.74268591
   0.66097599  0.65915227  0.80671842
   0.61405943  0.77498045  0.92896787
   0.52014365  0.83886480  0.99888535
   0.50024037  0.84770994  0.18871783
   0.40789525  0.90331480  0.27617375
   0.33859851  0.03222072  0.35580521
   0.23201841  0.10593251  0.42311775
   0.13998880  0.16758518  0.52668640
   0.07266230  0.24628515  0.58967102
   0.99907867  0.33746878  0.68987134
   0.91710061  0.39933510  0.76043906
   0.81474704  0.51301460  0.81006666
   0.74598871  0.59667912  0.90830116
   0.64585299  0.66947282  0.03119333
   0.58288449  0.76838552  0.12819623
   0.60983394  0.74793557  0.24891650
   0.50151963  0.79258727  0.33033202
   0.41666872  0.90423674  0.41503966
   0.34959438  0.02188763  0.47620059
   0.22498570  0.10226863  0.58697805
   0.16977624  0.16595078  0.67745841
   0.09889095  0.27068192  0.75355483
   0.98169443  0.32446189  0.84418362
   0.90695291  0.45615675  0.90781082
   0.81579930  0.50014023  0.99907448
   0.78789807  0.58361388  0.09793562
   0.70864928  0.65339154  0.18039776
   0.21258920  0.25955248  0.76178974
   0.17161548  0.35951249  0.84327047
   0.06613761  0.42665362  0.93024777
   0.99070330  0.51909744  0.99620218
   0.89884561  0.56678689  0.10046490
   0.83093236  0.66974006  0.17656300
   0.76243654  0.71850312  0.26578255
   0.68597140  0.81763702  0.33646550
   0.61002864  0.89500102  0.41597736
   0.48213096  0.01686541  0.50862827
   0.39676519  0.07689319  0.58722229
   0.30504367  0.19915669  0.67904735
   0.35498241  0.17115946  0.81685878
   0.24279947  0.26835938  0.91630727
   0.14166267  0.31305448  0.00409995
   0.07474855  0.42695908  0.05712870
   0.99413928  0.48200941  0.16560444
   0.91524901  0.59977708  0.23208281
   0.83493350  0.64826246  0.31885077
   0.75078140  0.72980231  0.40983535
   0.69537775  0.81501205  0.49860503
   0.58805052  0.90419303  0.57151182
   0.51843152  0.96662188  0.65013271
   0.44122322  0.06752461  0.73325998
   0.42210749  0.09499343  0.92678680
   0.33961657  0.18919712  0.98423378
   0.25372788  0.24179368  0.08545001
   0.13852671  0.31966971  0.14953538
   0.06402554  0.39908376  0.23761384
   0.99028533  0.48115242  0.31356681
   0.94789046  0.58837776  0.41032363
   0.85762066  0.64682588  0.49976111
   0.77556267  0.74655542  0.56441883
   0.64942494  0.79807674  0.67228197
   0.58388009  0.91387369  0.77220652
   0.51176680  0.99377279  0.82567334
   0.54176575  0.99038392  0.99347882
   0.41796968  0.06155935  0.07174966
   0.35792605  0.17083254  0.17870684
   0.23140859  0.24489639  0.22804512
   0.12591252  0.28776556  0.31584565
   0.06279728  0.40300949  0.40447146
   0.01164897  0.52349372  0.50178940
   0.91553622  0.57085628  0.58765631
   0.86897727  0.66019184  0.66285533
   0.78545540  0.74674171  0.72822387
   0.68424568  0.84584121  0.82104713
   0.57925549  0.90724563  0.89479380
   0.57476740  0.90234172  0.11173232
   0.48257118  0.01961722  0.20920352
   0.41141297  0.10207434  0.26381885
   0.32288344  0.19037113  0.34432682
   0.22838695  0.25382658  0.43982990
   0.14633583  0.35354521  0.51157587
   0.08530757  0.44072828  0.60607965
   0.98820554  0.49068879  0.67436087
   0.94358292  0.59361447  0.73416809
   0.85611851  0.68209457  0.83692254
   0.73619122  0.76414013  0.91658696
   0.65678199  0.85113326  0.02990912
   0.67587396  0.83351555  0.18132964
   0.57873018  0.90410485  0.26897060
   0.50482843  0.99027337  0.34378173
   0.44239460  0.13268360  0.41433090
   0.32764069  0.16640175  0.50154669
   0.23369345  0.26512791  0.57054072
   0.15300861  0.35189481  0.67054230
   0.07556805  0.43059315  0.79325227
   0.97068334  0.50816250  0.83553353
   0.92503031  0.57771242  0.91456224
   0.84510720  0.66617286  0.98712716
   0.77009049  0.76781880  0.07677029
   0.30000209  0.33713240  0.67438580
   0.23117546  0.43003551  0.74610119
   0.17659606  0.50815394  0.89009114
   0.08272559  0.61549348  0.91989066
   0.99312643  0.66228443  0.00362656
   0.91766416  0.76919846  0.08555001
   0.85555155  0.82594108  0.20824652
   0.75955849  0.91085364  0.25429001
   0.66627921  0.97482190  0.33818870
   0.59099408  0.09700212  0.40212783
   0.50846959  0.18491216  0.51447868
   0.39299650  0.25997941  0.58488784
   0.41342180  0.27423953  0.73274523
   0.31669442  0.31690276  0.83732177
   0.23313493  0.43903328  0.94398373
   0.16323390  0.52234284  0.99890140
   0.09012313  0.59100460  0.07650962
   0.97655092  0.68155923  0.13584877
   0.93151098  0.75702735  0.24111196
   0.86095705  0.80713278  0.34578879
   0.75056497  0.88133290  0.39914243
   0.66903641  0.96103548  0.47902942
   0.60839822  0.06544055  0.60802802
   0.49609144  0.17331939  0.63498280
   0.49221086  0.17014955  0.84310923
   0.42840071  0.27979825  0.91661321
   0.31504309  0.32997582  0.00876731
   0.25007876  0.41524546  0.05723147
   0.14510208  0.48837148  0.15857746
   0.05151289  0.58442610  0.20916591
   0.00619683  0.67316242  0.33560413
   0.92177265  0.72830847  0.43438109
   0.84904868  0.83168688  0.50958560
   0.75093282  0.87965034  0.57423441
   0.69037728  0.97061862  0.66432532
   0.57130669  0.07261613  0.71594743
   0.60681260  0.10820646  0.91503645
   0.51075911  0.18647385  0.99513195
   0.42647437  0.26403697  0.07991585
   0.32832055  0.34180672  0.15343793
   0.25032623  0.40004479  0.23623109
   0.11791573  0.48268750  0.28099727
   0.05677038  0.58157012  0.39984509
   0.01000400  0.66223597  0.52254355
   0.92908996  0.74569578  0.57649982
   0.84179987  0.82805848  0.63699033
   0.76043525  0.90564940  0.73405146
   0.67740824  0.99210088  0.83112724
   0.64403007  0.98793785  0.02397157
   0.58944997  0.10738027  0.10772272
   0.51272540  0.18484175  0.15635852
   0.42768526  0.25445891  0.24940793
   0.31827981  0.29526429  0.31963190
   0.24572653  0.41013815  0.37259372
   0.14579244  0.49328741  0.47868836
   0.10347049  0.59454980  0.60106701
   0.99148480  0.66396344  0.65941629
   0.91618216  0.75766398  0.73635976
   0.82625101  0.84860099  0.82650590
   0.74055364  0.93479753  0.92523949
   0.76148155  0.92314318  0.08415661
   0.66376607  0.99403753  0.17661819
   0.59892920  0.07909883  0.25807384
   0.51252676  0.19932258  0.33042837
   0.40677313  0.25080915  0.42315936
   0.30629901  0.33342291  0.48935913
   0.22381447  0.43859654  0.57891731
   0.14858633  0.50273151  0.67081105
   0.07195818  0.58316814  0.77226120
   0.99235607  0.66920106  0.83769254
   0.92843398  0.77569377  0.91216203
   0.83531036  0.85029332  0.00116314
   0.37852538  0.42566798  0.57355790
   0.32901270  0.49687287  0.66281032
   0.23062433  0.59611373  0.75878330
   0.18139077  0.66649748  0.85087715
   0.07373058  0.74389763  0.95415399
   0.97765911  0.84734036  0.02060337
   0.89842355  0.93273085  0.09400109
   0.82721990  0.00118756  0.17019508
   0.76190191  0.06840275  0.27976562
   0.67088807  0.16110988  0.32394718
   0.60911927  0.25678399  0.43862460
   0.47578195  0.36220281  0.50823237
   0.47341447  0.36511060  0.65168791
   0.37498065  0.41818632  0.76339588
   0.30586674  0.51944121  0.85746869
   0.24376086  0.62585282  0.95531208
   0.16619495  0.69188500  0.03056004
   0.08387659  0.77216570  0.12077288
   0.99566421  0.86745917  0.16927192
   0.93044671  0.93104510  0.29088443
   0.81393745  0.97699413  0.33566235
   0.76264399  0.07596856  0.40878768
   0.67233112  0.15974032  0.50869861
   0.59872536  0.27054144  0.59270263
   0.54349269  0.26696056  0.73125722
   0.49071963  0.34958805  0.83033206
   0.41059831  0.41024969  0.89264389
   0.31677232  0.51241765  0.00644200
   0.23969960  0.58968871  0.09120341
   0.15598101  0.68147190  0.16172214
   0.05294220  0.79347076  0.22767751
   0.98988616  0.83877765  0.34495667
   0.92025687  0.89656660  0.44187214
   0.81980512  0.99522124  0.50763262
   0.73582067  0.07426939  0.58520638
   0.68761671  0.16930919  0.68300233
   0.67973641  0.16971710  0.80779580
   0.58523893  0.26651420  0.91772024
   0.50129102  0.34397518  0.00466823
   0.42473955  0.42135653  0.08682117
   0.32382080  0.51266621  0.15446580
   0.24340358  0.56872150  0.23938056
   0.14700188  0.66657403  0.28624519
   0.07727637  0.73344330  0.41521962
   0.00937642  0.82777707  0.50674075
   0.92868321  0.91437394  0.58273733
   0.82563308  0.97096582  0.65073250
   0.74192282  0.08687792  0.73958931
   0.71291545  0.08716018  0.94038478
   0.67391706  0.17979381  0.01405762
   0.61311022  0.26897978  0.09887970
   0.52135923  0.35512096  0.19074012
   0.39019775  0.41025666  0.26219799
   0.32772521  0.51461243  0.32603094
   0.20966766  0.58150332  0.36473509
   0.16533130  0.66363050  0.49788477
   0.08460225  0.75224002  0.60543266
   0.99482246  0.82019104  0.69659083
   0.89693175  0.93214265  0.75080329
   0.79818907  0.02688616  0.80665577
   0.83402927  0.00926076  0.00763586
   0.72730191  0.07944763  0.07107491
   0.69794833  0.17708710  0.20193450
   0.60254616  0.28443130  0.25492733
   0.50196974  0.32475654  0.35238163
   0.39293506  0.42631592  0.40313190
   0.29961275  0.52249069  0.47076226
   0.22830005  0.57333789  0.56437557
   0.18823765  0.68661786  0.66169880
   0.10671805  0.74244895  0.73520532
   0.00853009  0.81575852  0.79702111
   0.91594445  0.91991566  0.90980318
