       N       E                     dE             d eps       ncg     rms          rms(c)
DAV:   1    -0.286437977090E+03   -0.28644E+03   -0.11905E+05  4040   0.647E+02
DAV:   2    -0.867944945789E+03   -0.58151E+03   -0.53134E+03  4636   0.650E+01
DAV:   3    -0.911463252626E+03   -0.43518E+02   -0.39927E+02  5296   0.140E+01
DAV:   4    -0.913021787045E+03   -0.15585E+01   -0.15344E+01  4784   0.289E+00
DAV:   5    -0.913060233046E+03   -0.38446E-01   -0.38367E-01  4976   0.475E-01    0.112E+01
DAV:   6    -0.902614845939E+03    0.10445E+02   -0.15520E+01  4752   0.488E+00    0.767E+00
DAV:   7    -0.899487513593E+03    0.31273E+01   -0.13436E+01  4904   0.488E+00    0.621E+00
DAV:   8    -0.894294224612E+03    0.51933E+01   -0.75426E+00  4848   0.307E+00    0.308E+00
DAV:   9    -0.893735012918E+03    0.55921E+00   -0.42011E+00  4656   0.174E+00    0.186E+00
DAV:  10    -0.893691300431E+03    0.43712E-01   -0.15348E+00  4800   0.123E+00    0.152E+00
DAV:  11    -0.893457920645E+03    0.23338E+00   -0.52080E-01  4736   0.708E-01    0.736E-01
DAV:  12    -0.893483903682E+03   -0.25983E-01   -0.13746E-01  4880   0.395E-01    0.647E-01
DAV:  13    -0.893440099018E+03    0.43805E-01   -0.82759E-02  4888   0.310E-01    0.332E-01
DAV:  14    -0.893440510404E+03   -0.41139E-03   -0.23193E-02  4800   0.159E-01    0.236E-01
DAV:  15    -0.893437601922E+03    0.29085E-02   -0.12602E-02  4976   0.127E-01    0.162E-01
DAV:  16    -0.893435149903E+03    0.24520E-02   -0.44682E-03  4752   0.727E-02    0.752E-02
DAV:  17    -0.893434981322E+03    0.16858E-03   -0.16217E-03  4512   0.361E-02    0.379E-02
DAV:  18    -0.893434986679E+03   -0.53562E-05   -0.42851E-04  4928   0.237E-02    0.313E-02
DAV:  19    -0.893434888420E+03    0.98259E-04   -0.17230E-04  4816   0.157E-02    0.166E-02
DAV:  20    -0.893434862179E+03    0.26241E-04   -0.70898E-05  4600   0.844E-03    0.786E-03
DAV:  21    -0.893434857895E+03    0.42841E-05   -0.30098E-05  2816   0.434E-03
   1 F= -.89343486E+03 E0= -.89337221E+03  d E =-.125300E+00
