Li                                      
           1
   -11.070570   19.174790    0.000000
   -18.978120  -10.957023    0.000000
     0.000000    0.000000   23.220300
   Li
   504
Direct configuration=     1
   0.00370706  0.96176184  0.97220051
   0.91277672  0.04338930  0.65192358
   0.86171208  0.05965928  0.32868653
   0.78884748  0.12069905  0.01355783
   0.69747576  0.15860637  0.66295043
   0.66554867  0.21839380  0.33986030
   0.60500936  0.25505196  0.02092528
   0.48135852  0.29995259  0.63592693
   0.42806608  0.34236885  0.33431426
   0.36401252  0.33593612  0.01873871
   0.29129598  0.42626512  0.68507535
   0.19746481  0.47299221  0.34948336
   0.06071807  0.07743221  0.65633377
   0.99420103  0.08986360  0.30836483
   0.92338087  0.10554562  0.99323043
   0.84975443  0.16686561  0.66283023
   0.79168850  0.22038957  0.33851867
   0.72663940  0.25857082  0.02679373
   0.63355676  0.27479206  0.66352305
   0.56203215  0.35443264  0.34736272
   0.50745305  0.36620610  0.01103096
   0.42378882  0.43584730  0.65418017
   0.33893631  0.44191286  0.32455830
   0.31313822  0.47361987  0.00695229
   0.14117161  0.06727318  0.34143659
   0.05074998  0.10111434  0.99010971
   0.99740030  0.17630912  0.65580129
   0.93276852  0.19338886  0.32223218
   0.85815396  0.24357338  0.00718559
   0.77454758  0.27956659  0.67965182
   0.70556130  0.37454959  0.36555289
   0.65702942  0.39705292  0.99371663
   0.56941302  0.39215035  0.66649425
   0.49997673  0.47644567  0.32126119
   0.43314186  0.48558597  0.03197130
   0.35881950  0.55250762  0.68354430
   0.23130779  0.09915064  0.99383114
   0.13764984  0.17392788  0.65394083
   0.08994251  0.22666455  0.31269718
   0.01187981  0.24548779  0.00142586
   0.93645702  0.28737857  0.66690085
   0.85639328  0.32965229  0.31400981
   0.79967686  0.38199269  0.98921239
   0.72424796  0.40774585  0.65099998
   0.62550569  0.48681473  0.31605954
   0.57060125  0.50583109  0.98429466
   0.47457118  0.53993682  0.66489812
   0.43105950  0.56312220  0.33851882
   0.29043621  0.17772715  0.66298214
   0.19868662  0.20445439  0.33313587
   0.14307104  0.23399641  0.97594716
   0.07265731  0.28377998  0.68217507
   0.98695138  0.32032031  0.32421630
   0.93256166  0.36539197  0.99256611
   0.89057473  0.43397948  0.67389832
   0.79507583  0.45098656  0.35955905
   0.71169797  0.50774511  0.99363394
   0.63613252  0.52547080  0.68422854
   0.55011877  0.57637632  0.33818606
   0.49727531  0.63724590  0.03366909
   0.33080807  0.20636425  0.33280501
   0.27607404  0.23080455  0.00292613
   0.20131238  0.27251692  0.64552241
   0.13382984  0.31538173  0.34600769
   0.06872913  0.33707608  0.00835527
   0.02439760  0.41940595  0.67816926
   0.95201203  0.46194788  0.34155299
   0.85103326  0.51675911  0.99684558
   0.79679205  0.54331549  0.67133477
   0.70755219  0.59004472  0.32633720
   0.62779347  0.62163143  0.99884963
   0.58581436  0.66546006  0.68110222
   0.43335184  0.23940337  0.96982628
   0.34481072  0.29429189  0.65729096
   0.26084511  0.32231223  0.32263302
   0.22922748  0.34903086  0.01081756
   0.14621972  0.41526946  0.65936903
   0.07858382  0.40984887  0.34023345
   0.97755581  0.48867155  0.97047619
   0.95322869  0.54392816  0.67160065
   0.84315789  0.58375719  0.32005129
   0.76549824  0.62099057  0.02921610
   0.72203230  0.65192333  0.67659554
   0.66293922  0.71871821  0.34211737
   0.15543695  0.47960856  0.99207955
   0.05113936  0.55218932  0.67691146
   0.01913326  0.56628544  0.32563530
   0.93263866  0.60806266  0.99435771
   0.86292417  0.66728319  0.68374922
   0.78424663  0.71672622  0.32724509
   0.71321154  0.76528544  0.99843590
   0.21736014  0.56714801  0.67879349
   0.13609453  0.55809581  0.32478806
   0.06297011  0.59528264  0.00600552
   0.00280006  0.67810671  0.69324347
   0.92135488  0.69510202  0.32001596
   0.84890166  0.73586186  0.01268005
   0.75968370  0.80313699  0.65530068
   0.27156384  0.58114328  0.33767747
   0.20609959  0.58944618  0.99622083
   0.13869850  0.65891508  0.68548382
   0.07400037  0.69058606  0.32961275
   0.00052032  0.74773189  0.00555257
   0.91626217  0.79512173  0.66565142
   0.86570425  0.82928046  0.35474418
   0.37485758  0.63311670  0.01049128
   0.30552909  0.68217269  0.66999985
   0.21089294  0.69909079  0.33986558
   0.13920880  0.73259196  0.98969841
   0.06942386  0.79827908  0.67881335
   0.00711276  0.79506923  0.37551953
   0.91441750  0.86836171  0.99918296
   0.41984872  0.66711663  0.67559775
   0.35654683  0.70077197  0.35460148
   0.26174506  0.74291030  0.00527427
   0.21782634  0.80946415  0.66345770
   0.11898129  0.82997527  0.30316150
   0.08199038  0.85678100  0.95819434
   0.01847524  0.89380610  0.67590166
   0.94699620  0.94070934  0.34178903
   0.88129338  0.00047261  0.99298068
   0.75981266  0.02945741  0.66438546
   0.76052146  0.07832170  0.30529300
   0.65585341  0.13366730  0.00469385
   0.55437431  0.18358487  0.65921550
   0.51723853  0.21081427  0.34509365
   0.06340179  0.94181927  0.31369650
   0.14339766  0.97877546  0.99429194
   0.23198600  0.06289254  0.66786637
   0.30302905  0.05974183  0.32011306
   0.38388968  0.11505033  0.98998202
   0.40682627  0.19305717  0.63908541
   0.86005510  0.92286619  0.68366265
   0.80384841  0.93432368  0.30985325
   0.72963985  0.99612763  0.00539426
   0.60599300  0.06155440  0.66736317
   0.57720127  0.09499433  0.35094525
   0.53238752  0.13011005  0.00872620
   0.13936771  0.93670350  0.65771227
   0.22189411  0.92840569  0.31444402
   0.29202875  0.01819707  0.98459589
   0.37516446  0.03771331  0.68507358
   0.44849584  0.10863266  0.33063720
   0.79810981  0.87351832  0.01843619
   0.70665375  0.93190167  0.64971973
   0.63013840  0.95955885  0.34236522
   0.59151416  0.02074248  0.02187776
   0.47284671  0.04771539  0.64623922
   0.22116941  0.87859512  0.99762973
   0.27908617  0.93133938  0.67184605
   0.35555573  0.94090875  0.30365415
   0.41873903  0.01236033  0.97373329
   0.68882501  0.85957924  0.33794107
   0.63210939  0.90181710  0.01125600
   0.55829707  0.90074153  0.68909664
   0.48772280  0.96891738  0.32095425
   0.25851651  0.80299381  0.33924387
   0.36513649  0.86495543  0.99544232
   0.42914535  0.90384534  0.67677974
   0.63056554  0.79227802  0.67754291
   0.54757490  0.82135439  0.30627839
   0.47421420  0.89943363  0.01456789
   0.34691977  0.80446628  0.67368259
   0.41039150  0.82738183  0.32400074
   0.56452282  0.78962876  0.02280359
   0.47694302  0.77015662  0.64469642
   0.42163571  0.74884536  0.99072425
   0.50394301  0.69416228  0.33930680
   0.00190740  0.01153856  0.74886272
   0.93623281  0.03706137  0.43606531
   0.86324230  0.09539873  0.10071516
   0.76829450  0.13085133  0.77442398
   0.72294895  0.19009481  0.45967173
   0.66840975  0.21147911  0.13143705
   0.56092806  0.28457836  0.79659446
   0.47975512  0.29476898  0.45033835
   0.43334892  0.33374922  0.11259253
   0.37781407  0.39418606  0.78636733
   0.27611272  0.42133019  0.43664805
   0.23106007  0.48036963  0.11915877
   0.07899814  0.04025259  0.44224149
   0.01432013  0.08381602  0.08762517
   0.94155977  0.12806295  0.76939620
   0.83047398  0.15629138  0.43488033
   0.79346694  0.21770540  0.13049585
   0.71512201  0.26383308  0.78496123
   0.62720710  0.30307438  0.47133671
   0.59023011  0.32817180  0.09525885
   0.51460636  0.40259211  0.75747309
   0.42645363  0.40552051  0.43834158
   0.35311289  0.44455076  0.14492703
   0.30348162  0.49444481  0.78586066
   0.16101697  0.08118090  0.12576194
   0.08768631  0.14325933  0.75975330
   0.98459340  0.19713083  0.43634045
   0.93028103  0.20819423  0.09189709
   0.87393088  0.28160006  0.77846253
   0.78459769  0.30127887  0.42420809
   0.70786433  0.33503410  0.12283233
   0.65778956  0.40024130  0.77070999
   0.54828265  0.41070459  0.45585315
   0.51311256  0.44584439  0.10295124
   0.44377668  0.51292563  0.80357930
   0.37992623  0.55300971  0.42279107
   0.23074366  0.14456322  0.77221119
   0.14236562  0.15699723  0.45773872
   0.07783099  0.21625377  0.11654286
   0.98623145  0.23395460  0.80275911
   0.91485958  0.31285382  0.43948707
   0.85481306  0.37333950  0.11780559
   0.79903302  0.41732286  0.78675514
   0.70364426  0.43372361  0.44560825
   0.62535871  0.47382339  0.13001636
   0.57700343  0.52625958  0.78511502
   0.50709115  0.53589358  0.44693100
   0.43860838  0.57190713  0.12563749
   0.28195504  0.15582825  0.43686239
   0.19911211  0.20953861  0.08225952
   0.16081636  0.23364352  0.76572448
   0.07304712  0.27510216  0.42303692
   0.98017180  0.33846144  0.11974387
   0.93884337  0.37501435  0.78445819
   0.85258000  0.40930201  0.43434683
   0.74650489  0.46386888  0.11123764
   0.75352298  0.53554682  0.75439790
   0.64319380  0.55390871  0.44753083
   0.53984504  0.56851188  0.10445176
   0.50515606  0.65375840  0.76446102
   0.35971967  0.22410803  0.10887267
   0.30462409  0.25127885  0.77420858
   0.21285383  0.26201339  0.45780790
   0.12967368  0.32586295  0.08421290
   0.08980246  0.36086841  0.77954425
   0.00104913  0.40461162  0.45063463
   0.92028611  0.45735312  0.12664953
   0.88282866  0.51800579  0.79094059
   0.78966612  0.54805186  0.45487854
   0.70214597  0.58244767  0.12885787
   0.65171118  0.63519466  0.78973970
   0.57528693  0.66620462  0.44649116
   0.44098565  0.25550264  0.76290975
   0.34180041  0.29159179  0.41495748
   0.27169814  0.31502551  0.12020015
   0.20227137  0.34900561  0.76562838
   0.14993217  0.42984969  0.46825101
   0.07944293  0.46319327  0.10852325
   0.98851205  0.49730564  0.80721865
   0.91943285  0.53958875  0.44639333
   0.83695290  0.61327498  0.13731811
   0.79989524  0.64422354  0.78227131
   0.69620257  0.67114914  0.44466810
   0.63379945  0.69808180  0.10043541
   0.14725215  0.48156933  0.77491974
   0.09843340  0.52967230  0.44952296
   0.98641070  0.58226210  0.11623711
   0.92109825  0.62627243  0.76515622
   0.84475743  0.66544233  0.44677917
   0.74623214  0.74084869  0.13149980
   0.70235799  0.73155550  0.77206120
   0.21487276  0.51163010  0.46286764
   0.14150989  0.56238323  0.10878814
   0.07601710  0.64262397  0.79606151
   0.98520421  0.64673088  0.44478066
   0.93691898  0.70078889  0.13066393
   0.86584097  0.76756373  0.79409284
   0.77024373  0.80037031  0.47031185
   0.27530330  0.57357081  0.12315598
   0.22026028  0.65559023  0.77549321
   0.13799218  0.64842191  0.43697295
   0.07818190  0.69751773  0.09623039
   0.01490280  0.75281084  0.76221365
   0.92775768  0.78422813  0.46055784
   0.86691862  0.84344343  0.11168246
   0.33470169  0.61488269  0.78008696
   0.29161291  0.66525227  0.44491965
   0.20161787  0.69604966  0.11357878
   0.13981677  0.73608110  0.78742501
   0.08430663  0.78456952  0.44438930
   0.99218922  0.85461115  0.09950581
   0.94183362  0.88739646  0.77131751
   0.43783054  0.66192041  0.45446505
   0.36310852  0.67008412  0.10927694
   0.26284109  0.75162964  0.78903380
   0.23059167  0.81220214  0.44581305
   0.13486164  0.82734293  0.10381763
   0.08774175  0.89130827  0.78126626
   0.99809441  0.92032464  0.46487118
   0.92993845  0.97734905  0.10986444
   0.85185843  0.00645147  0.79195747
   0.78327964  0.04166898  0.43138410
   0.72126742  0.07057266  0.12290403
   0.64230017  0.13842994  0.78281517
   0.57215183  0.18181453  0.47312797
   0.50516653  0.20841185  0.09889257
   0.08531611  0.95754138  0.08551960
   0.14339857  0.01649860  0.76669042
   0.23032911  0.03995085  0.42717723
   0.28965897  0.09927260  0.09962359
   0.35470399  0.14467442  0.76532159
   0.42050237  0.14224423  0.43678306
   0.86667961  0.92099821  0.44655807
   0.80236473  0.94958926  0.11555742
   0.68996649  0.00859902  0.76618118
   0.64124806  0.03692956  0.44446890
   0.59475414  0.10009780  0.12692616
   0.52766613  0.14197362  0.76151829
   0.14618590  0.91440562  0.42729264
   0.22439565  0.96005055  0.11189165
   0.26715234  0.98850647  0.76618135
   0.38624714  0.04301310  0.43802680
   0.45059321  0.05459317  0.11418562
   0.76577159  0.87748984  0.76160461
   0.71491436  0.93861151  0.45315332
   0.64674888  0.98954577  0.12035149
   0.55659415  0.97758967  0.76539239
   0.49071066  0.04845912  0.45013292
   0.18398970  0.86442775  0.77193675
   0.27277018  0.92651601  0.44787249
   0.38481670  0.94148545  0.09167671
   0.42617559  0.02575039  0.76905936
   0.69879035  0.83458966  0.10646168
   0.65255079  0.87518427  0.78907065
   0.56103798  0.92477564  0.44286119
   0.50721542  0.96138107  0.11499318
   0.26632052  0.81257093  0.09327039
   0.35138631  0.87654553  0.79465522
   0.43224268  0.91475161  0.44260382
   0.63143870  0.81848044  0.45973814
   0.58150315  0.85354652  0.13899781
   0.51417489  0.87373346  0.79940707
   0.34921848  0.79893524  0.45507988
   0.42200315  0.82806086  0.10245947
   0.55526396  0.78393549  0.77836224
   0.50504849  0.78067009  0.41842711
   0.40862459  0.75080543  0.78548448
   0.48880814  0.71782143  0.12415906
   0.97843496  0.99722386  0.22725631
   0.90716448  0.03097796  0.87130957
   0.84717865  0.08707602  0.52893988
   0.79253472  0.14180862  0.21264461
   0.70586455  0.17136942  0.91774009
   0.62395010  0.18899888  0.56294753
   0.58844508  0.27085214  0.21331469
   0.49810978  0.30263464  0.88895287
   0.41446073  0.33966774  0.54848888
   0.33742290  0.34527715  0.23335495
   0.28494157  0.40199955  0.90127310
   0.22325006  0.44985729  0.57796098
   0.05594551  0.03095500  0.87626568
   0.98677550  0.08903861  0.53536827
   0.93472233  0.11094264  0.21136290
   0.85267723  0.17383704  0.88630364
   0.77126550  0.24679995  0.57136289
   0.72351761  0.27645980  0.23960295
   0.64333504  0.29647285  0.89944484
   0.56979437  0.33670344  0.58555280
   0.49109877  0.39910867  0.19105407
   0.43216794  0.41339119  0.90526449
   0.36531418  0.47177199  0.54356400
   0.28466584  0.48421074  0.24087155
   0.19171861  0.07278336  0.55951663
   0.06284270  0.14051491  0.21575140
   0.99971459  0.15073374  0.89549229
   0.91640037  0.22732841  0.53927750
   0.86040920  0.24911433  0.20952082
   0.78236118  0.29372072  0.89409743
   0.69675672  0.35873439  0.55854567
   0.62330334  0.39068807  0.25299769
   0.59970431  0.42487544  0.88726379
   0.51389952  0.46706586  0.57121450
   0.39910668  0.48325595  0.21915813
   0.34450199  0.53168111  0.91808308
   0.22860532  0.10362644  0.23788804
   0.14709505  0.16053019  0.87620483
   0.09641288  0.21179214  0.57754260
   0.03573734  0.26118419  0.20966012
   0.95421616  0.29517274  0.90703508
   0.82617407  0.36524798  0.56904143
   0.79029081  0.40723196  0.21001183
   0.71819726  0.42352714  0.87828737
   0.61061713  0.46399969  0.54505434
   0.58191364  0.52291835  0.22439881
   0.48475329  0.56633711  0.89981930
   0.43663653  0.59235633  0.55029935
   0.28173852  0.16636005  0.89252405
   0.23622157  0.21826775  0.55354278
   0.17389463  0.22828924  0.20214973
   0.11356218  0.28421461  0.86960549
   0.00954044  0.33301948  0.57604397
   0.92433235  0.37688914  0.24114231
   0.88863362  0.43668613  0.87371198
   0.77476537  0.44740626  0.55575564
   0.73708133  0.51327496  0.24090143
   0.65671102  0.53073100  0.86373392
   0.57193576  0.58517003  0.55965256
   0.49231952  0.59550840  0.23370132
   0.34264878  0.20437945  0.51922815
   0.28835692  0.21533094  0.19428665
   0.21995872  0.29092233  0.88443539
   0.12643649  0.34049394  0.55200295
   0.07746832  0.38024997  0.21835496
   0.03416826  0.40976113  0.91060498
   0.91195579  0.47525759  0.56282800
   0.85854450  0.47559016  0.20440536
   0.80706036  0.53695391  0.90201428
   0.70597546  0.57206324  0.54081887
   0.63701616  0.60984527  0.21502630
   0.56399190  0.67710263  0.89829209
   0.40272377  0.24564608  0.23362600
   0.33713143  0.26399947  0.87840628
   0.29150548  0.32665307  0.55801660
   0.21314493  0.38587254  0.22543755
   0.15371142  0.41183241  0.88248658
   0.07099068  0.46590746  0.56400326
   0.02282606  0.50989253  0.23814286
   0.93051578  0.56002691  0.88644452
   0.85483964  0.59299620  0.57764489
   0.77108861  0.63581389  0.23255659
   0.71691231  0.64296859  0.87978808
   0.64710334  0.70126831  0.55736642
   0.14573773  0.49061248  0.23361621
   0.10076720  0.53016135  0.87493272
   0.99151659  0.59651337  0.57583910
   0.95101174  0.60780760  0.23004366
   0.82882880  0.66162228  0.88808824
   0.77183685  0.67419649  0.56126741
   0.71002909  0.74117258  0.23077464
   0.24243699  0.52398516  0.86623046
   0.14020427  0.57873849  0.57522851
   0.08311002  0.63574366  0.20647722
   0.98374428  0.66658818  0.89505568
   0.93318559  0.69573298  0.55638189
   0.87063134  0.73274846  0.21973659
   0.78146058  0.77390092  0.87653210
   0.30526705  0.56494351  0.55783662
   0.21357377  0.61582445  0.20898593
   0.15339416  0.65910106  0.89631542
   0.08873445  0.72112342  0.55235025
   0.02108037  0.76495146  0.21178151
   0.92113166  0.76565007  0.88258313
   0.83216075  0.82711923  0.56086554
   0.36107743  0.62689219  0.22279493
   0.28544257  0.67757764  0.90769107
   0.23243862  0.71111219  0.54455272
   0.15241248  0.74708158  0.22616958
   0.06392758  0.76195297  0.88249179
   0.00007745  0.84585556  0.55409901
   0.93240108  0.87095444  0.23465107
   0.41933202  0.65607711  0.88753077
   0.37247442  0.68359247  0.57511781
   0.28343833  0.73888823  0.20760229
   0.21319303  0.79165585  0.88749143
   0.14145267  0.83209032  0.54022515
   0.07664425  0.89584173  0.21303674
   0.97850297  0.89213837  0.86749677
   0.91818613  0.95037510  0.56209372
   0.84581023  0.00474687  0.23351192
   0.78076850  0.06133226  0.88094118
   0.70122808  0.07912941  0.53446797
   0.66024726  0.15470259  0.23816235
   0.58090160  0.18352016  0.88693033
   0.46109577  0.21493039  0.55340653
   0.07005161  0.95472378  0.55769016
   0.14168829  0.98522214  0.22145078
   0.20434063  0.00667889  0.87521930
   0.30020692  0.07968461  0.55017779
   0.37479514  0.11244224  0.22717018
   0.42869605  0.13627403  0.87181150
   0.84033982  0.91156983  0.86288282
   0.77509033  0.96181717  0.55871876
   0.73057107  0.99598247  0.22614303
   0.65085327  0.03906258  0.91840901
   0.56051718  0.06721465  0.55144993
   0.52428143  0.12474625  0.21477088
   0.13033702  0.92419171  0.88937450
   0.20222266  0.95180067  0.54986924
   0.30352468  0.99441435  0.20615751
   0.36919057  0.03156041  0.85251913
   0.42759849  0.09324812  0.53367462
   0.79711537  0.83601888  0.22182621
   0.72193660  0.92195440  0.90458481
   0.61697058  0.95417503  0.55723492
   0.55786782  0.01545271  0.23405895
   0.50228449  0.05157154  0.86944506
   0.18305854  0.88349028  0.21424485
   0.28899917  0.90685566  0.88063275
   0.33667420  0.95639291  0.54084578
   0.44818673  0.99806926  0.20294162
   0.70302379  0.84488972  0.53663221
   0.64581106  0.90201202  0.22900830
   0.57728427  0.92062634  0.91692417
   0.47877824  0.97001119  0.55706288
   0.28721141  0.84090638  0.55874967
   0.33653581  0.86487046  0.22552503
   0.43011889  0.91488649  0.85824656
   0.65814023  0.77590759  0.87664221
   0.56288778  0.82632206  0.55042460
   0.47309406  0.87236445  0.22298378
   0.38287401  0.79829845  0.87846511
   0.43008823  0.81556983  0.53684295
   0.59094693  0.74683730  0.22700593
   0.51520164  0.80909117  0.89874860
   0.41003344  0.75098053  0.22230170
   0.51674653  0.69987452  0.55131500
