 432 432   0   0
  0.1915683E+02  0.2022720E-08  0.2022720E-08  0.2022720E-08  0.5000000E-15
  1.000000000000000E-004
  CAR 
 Li                                      
      3.99397185     -3.38007769  301      0.56996671      1.00000000
     -3.380  0.0000E+00  0.0000E+00
     -3.355  0.0000E+00  0.0000E+00
     -3.331  0.0000E+00  0.0000E+00
     -3.306  0.0000E+00  0.0000E+00
     -3.282  0.0000E+00  0.0000E+00
     -3.257  0.0000E+00  0.0000E+00
     -3.233  0.0000E+00  0.0000E+00
     -3.208  0.5906E-12  0.1452E-13
     -3.183  0.2622E-08  0.6447E-10
     -3.159  0.3126E-05  0.7690E-07
     -3.134  0.1011E-02  0.2492E-04
     -3.110  0.8999E-01  0.2237E-02
     -3.085  0.2256E+01  0.5768E-01
     -3.061  0.1635E+02  0.4597E+00
     -3.036  0.3521E+02  0.1325E+01
     -3.011  0.2280E+02  0.1885E+01
     -2.987  0.4486E+01  0.1996E+01
     -2.962  0.2777E+01  0.2064E+01
     -2.938  0.2533E+02  0.2687E+01
     -2.913  0.8264E+02  0.4718E+01
     -2.888  0.9227E+02  0.6986E+01
     -2.864  0.3615E+02  0.7875E+01
     -2.839  0.5493E+01  0.8010E+01
     -2.815  0.1034E+02  0.8264E+01
     -2.790  0.5433E+02  0.9599E+01
     -2.766  0.9922E+02  0.1204E+02
     -2.741  0.6407E+02  0.1361E+02
     -2.716  0.1476E+02  0.1398E+02
     -2.692  0.5527E+01  0.1411E+02
     -2.667  0.3731E+02  0.1503E+02
     -2.643  0.1083E+03  0.1769E+02
     -2.618  0.1173E+03  0.2058E+02
     -2.594  0.4966E+02  0.2180E+02
     -2.569  0.1050E+02  0.2206E+02
     -2.544  0.2666E+02  0.2271E+02
     -2.520  0.1065E+03  0.2533E+02
     -2.495  0.1806E+03  0.2977E+02
     -2.471  0.1291E+03  0.3294E+02
     -2.446  0.3851E+02  0.3389E+02
     -2.421  0.7147E+01  0.3406E+02
     -2.397  0.2699E+02  0.3473E+02
     -2.372  0.8580E+02  0.3684E+02
     -2.348  0.9149E+02  0.3908E+02
     -2.323  0.3314E+02  0.3990E+02
     -2.299  0.6238E+01  0.4005E+02
     -2.274  0.2551E+02  0.4068E+02
     -2.249  0.1054E+03  0.4327E+02
     -2.225  0.1805E+03  0.4771E+02
     -2.200  0.1316E+03  0.5094E+02
     -2.176  0.3993E+02  0.5192E+02
     -2.151  0.2185E+02  0.5246E+02
     -2.126  0.9553E+02  0.5481E+02
     -2.102  0.2196E+03  0.6021E+02
     -2.077  0.2400E+03  0.6610E+02
     -2.053  0.1256E+03  0.6919E+02
     -2.028  0.3045E+02  0.6994E+02
     -2.004  0.1343E+02  0.7027E+02
     -1.979  0.5346E+02  0.7158E+02
     -1.954  0.9552E+02  0.7393E+02
     -1.930  0.6517E+02  0.7553E+02
     -1.905  0.1809E+02  0.7598E+02
     -1.881  0.1571E+02  0.7637E+02
     -1.856  0.8287E+02  0.7840E+02
     -1.832  0.1918E+03  0.8312E+02
     -1.807  0.1887E+03  0.8776E+02
     -1.782  0.7836E+02  0.8968E+02
     -1.758  0.1705E+02  0.9010E+02
     -1.733  0.4401E+02  0.9118E+02
     -1.709  0.1563E+03  0.9503E+02
     -1.684  0.2491E+03  0.1011E+03
     -1.659  0.1947E+03  0.1059E+03
     -1.635  0.7268E+02  0.1077E+03
     -1.610  0.1572E+02  0.1081E+03
     -1.586  0.4273E+02  0.1092E+03
     -1.561  0.1377E+03  0.1125E+03
     -1.537  0.1809E+03  0.1170E+03
     -1.512  0.9965E+02  0.1194E+03
     -1.487  0.2975E+02  0.1202E+03
     -1.463  0.6284E+02  0.1217E+03
     -1.438  0.1816E+03  0.1262E+03
     -1.414  0.2506E+03  0.1323E+03
     -1.389  0.1712E+03  0.1365E+03
     -1.365  0.5484E+02  0.1379E+03
     -1.340  0.3075E+02  0.1386E+03
     -1.315  0.1184E+03  0.1416E+03
     -1.291  0.2428E+03  0.1475E+03
     -1.266  0.2227E+03  0.1530E+03
     -1.242  0.9879E+02  0.1554E+03
     -1.217  0.2481E+02  0.1560E+03
     -1.192  0.3602E+02  0.1569E+03
     -1.168  0.1219E+03  0.1599E+03
     -1.143  0.1780E+03  0.1643E+03
     -1.119  0.1152E+03  0.1671E+03
     -1.094  0.3257E+02  0.1679E+03
     -1.070  0.1298E+02  0.1682E+03
     -1.045  0.5920E+02  0.1697E+03
     -1.020  0.1341E+03  0.1730E+03
     -0.996  0.1521E+03  0.1767E+03
     -0.971  0.1042E+03  0.1793E+03
     -0.947  0.6948E+02  0.1810E+03
     -0.922  0.1596E+03  0.1849E+03
     -0.897  0.2840E+03  0.1919E+03
     -0.873  0.3249E+03  0.1999E+03
     -0.848  0.2606E+03  0.2063E+03
     -0.824  0.1272E+03  0.2094E+03
     -0.799  0.7460E+02  0.2113E+03
     -0.775  0.1646E+03  0.2153E+03
     -0.750  0.2323E+03  0.2210E+03
     -0.725  0.1795E+03  0.2254E+03
     -0.701  0.8401E+02  0.2275E+03
     -0.676  0.2438E+02  0.2281E+03
     -0.652  0.4629E+02  0.2292E+03
     -0.627  0.1475E+03  0.2329E+03
     -0.603  0.2093E+03  0.2380E+03
     -0.578  0.1290E+03  0.2412E+03
     -0.553  0.4329E+02  0.2422E+03
     -0.529  0.8236E+02  0.2443E+03
     -0.504  0.2175E+03  0.2496E+03
     -0.480  0.3023E+03  0.2570E+03
     -0.455  0.2478E+03  0.2631E+03
     -0.430  0.1307E+03  0.2663E+03
     -0.406  0.1031E+03  0.2689E+03
     -0.381  0.9010E+02  0.2711E+03
     -0.357  0.3295E+02  0.2719E+03
     -0.332  0.9114E+01  0.2721E+03
     -0.308  0.4448E+02  0.2732E+03
     -0.283  0.1540E+03  0.2770E+03
     -0.258  0.2536E+03  0.2832E+03
     -0.234  0.2493E+03  0.2894E+03
     -0.209  0.1844E+03  0.2939E+03
     -0.185  0.1292E+03  0.2971E+03
     -0.160  0.1514E+03  0.3008E+03
     -0.135  0.1929E+03  0.3055E+03
     -0.111  0.2144E+03  0.3108E+03
     -0.086  0.2238E+03  0.3163E+03
     -0.062  0.2251E+03  0.3218E+03
     -0.037  0.2207E+03  0.3273E+03
     -0.013  0.1609E+03  0.3312E+03
      0.012  0.1088E+03  0.3339E+03
      0.037  0.1098E+03  0.3366E+03
      0.061  0.1196E+03  0.3395E+03
      0.086  0.1265E+03  0.3426E+03
      0.110  0.1164E+03  0.3455E+03
      0.135  0.1881E+03  0.3501E+03
      0.159  0.2956E+03  0.3574E+03
      0.184  0.3490E+03  0.3660E+03
      0.209  0.3131E+03  0.3737E+03
      0.233  0.1897E+03  0.3783E+03
      0.258  0.7766E+02  0.3802E+03
      0.282  0.1002E+03  0.3827E+03
      0.307  0.2126E+03  0.3879E+03
      0.332  0.2663E+03  0.3945E+03
      0.356  0.2245E+03  0.4000E+03
      0.381  0.1282E+03  0.4031E+03
      0.405  0.6219E+02  0.4047E+03
      0.430  0.9268E+02  0.4069E+03
      0.454  0.1361E+03  0.4103E+03
      0.479  0.1777E+03  0.4147E+03
      0.504  0.2151E+03  0.4199E+03
      0.528  0.1907E+03  0.4246E+03
      0.553  0.1674E+03  0.4287E+03
      0.577  0.1955E+03  0.4336E+03
      0.602  0.2331E+03  0.4393E+03
      0.626  0.2529E+03  0.4455E+03
      0.651  0.2653E+03  0.4520E+03
      0.676  0.2356E+03  0.4578E+03
      0.700  0.1690E+03  0.4620E+03
      0.725  0.1158E+03  0.4648E+03
      0.749  0.1202E+03  0.4678E+03
      0.774  0.1743E+03  0.4721E+03
      0.799  0.2189E+03  0.4774E+03
      0.823  0.2263E+03  0.4830E+03
      0.848  0.2087E+03  0.4881E+03
      0.872  0.2160E+03  0.4934E+03
      0.897  0.2607E+03  0.4998E+03
      0.921  0.2963E+03  0.5071E+03
      0.946  0.3040E+03  0.5146E+03
      0.971  0.2797E+03  0.5215E+03
      0.995  0.2347E+03  0.5272E+03
      1.020  0.2044E+03  0.5323E+03
      1.044  0.2222E+03  0.5377E+03
      1.069  0.2465E+03  0.5438E+03
      1.094  0.2571E+03  0.5501E+03
      1.118  0.2610E+03  0.5565E+03
      1.143  0.2495E+03  0.5627E+03
      1.167  0.2249E+03  0.5682E+03
      1.192  0.1928E+03  0.5729E+03
      1.216  0.1861E+03  0.5775E+03
      1.241  0.2265E+03  0.5831E+03
      1.266  0.2593E+03  0.5894E+03
      1.290  0.2680E+03  0.5960E+03
      1.315  0.2605E+03  0.6024E+03
      1.339  0.2485E+03  0.6085E+03
      1.364  0.2390E+03  0.6144E+03
      1.388  0.2067E+03  0.6195E+03
      1.413  0.1562E+03  0.6233E+03
      1.438  0.1532E+03  0.6271E+03
      1.462  0.1883E+03  0.6317E+03
      1.487  0.2125E+03  0.6369E+03
      1.511  0.2036E+03  0.6420E+03
      1.536  0.1871E+03  0.6465E+03
      1.561  0.1432E+03  0.6501E+03
      1.585  0.6729E+02  0.6517E+03
      1.610  0.4086E+02  0.6527E+03
      1.634  0.1017E+03  0.6552E+03
      1.659  0.1625E+03  0.6592E+03
      1.683  0.1339E+03  0.6625E+03
      1.708  0.8343E+02  0.6646E+03
      1.733  0.1105E+03  0.6673E+03
      1.757  0.1708E+03  0.6715E+03
      1.782  0.2042E+03  0.6765E+03
      1.806  0.2187E+03  0.6819E+03
      1.831  0.2080E+03  0.6870E+03
      1.855  0.1634E+03  0.6910E+03
      1.880  0.9443E+02  0.6933E+03
      1.905  0.5266E+02  0.6946E+03
      1.929  0.9132E+02  0.6969E+03
      1.954  0.1557E+03  0.7007E+03
      1.978  0.1829E+03  0.7052E+03
      2.003  0.1767E+03  0.7095E+03
      2.028  0.1736E+03  0.7138E+03
      2.052  0.1826E+03  0.7183E+03
      2.077  0.1834E+03  0.7228E+03
      2.101  0.1810E+03  0.7272E+03
      2.126  0.2076E+03  0.7323E+03
      2.150  0.2329E+03  0.7381E+03
      2.175  0.2213E+03  0.7435E+03
      2.200  0.1780E+03  0.7479E+03
      2.224  0.1395E+03  0.7513E+03
      2.249  0.1444E+03  0.7549E+03
      2.273  0.1658E+03  0.7589E+03
      2.298  0.1806E+03  0.7634E+03
      2.323  0.1796E+03  0.7678E+03
      2.347  0.1660E+03  0.7719E+03
      2.372  0.1491E+03  0.7755E+03
      2.396  0.1314E+03  0.7788E+03
      2.421  0.1122E+03  0.7815E+03
      2.445  0.7450E+02  0.7834E+03
      2.470  0.4697E+02  0.7845E+03
      2.495  0.7729E+02  0.7864E+03
      2.519  0.1073E+03  0.7890E+03
      2.544  0.1085E+03  0.7917E+03
      2.568  0.9866E+02  0.7941E+03
      2.593  0.5843E+02  0.7956E+03
      2.617  0.1571E+02  0.7960E+03
      2.642  0.3425E+01  0.7960E+03
      2.667  0.2034E+02  0.7965E+03
      2.691  0.7369E+02  0.7984E+03
      2.716  0.9532E+02  0.8007E+03
      2.740  0.4481E+02  0.8018E+03
      2.765  0.7570E+01  0.8020E+03
      2.790  0.4394E+00  0.8020E+03
      2.814  0.8211E-02  0.8020E+03
      2.839  0.1473E-02  0.8020E+03
      2.863  0.1152E+00  0.8020E+03
      2.888  0.2795E+01  0.8021E+03
      2.912  0.2243E+02  0.8026E+03
      2.937  0.7057E+02  0.8044E+03
      2.962  0.1105E+03  0.8071E+03
      2.986  0.1152E+03  0.8099E+03
      3.011  0.1083E+03  0.8126E+03
      3.035  0.1031E+03  0.8151E+03
      3.060  0.7877E+02  0.8170E+03
      3.085  0.4262E+02  0.8181E+03
      3.109  0.5027E+02  0.8193E+03
      3.134  0.9355E+02  0.8216E+03
      3.158  0.1266E+03  0.8247E+03
      3.183  0.1470E+03  0.8283E+03
      3.207  0.1538E+03  0.8321E+03
      3.232  0.1438E+03  0.8357E+03
      3.257  0.1257E+03  0.8387E+03
      3.281  0.1039E+03  0.8413E+03
      3.306  0.9401E+02  0.8436E+03
      3.330  0.9177E+02  0.8459E+03
      3.355  0.6326E+02  0.8474E+03
      3.379  0.2094E+02  0.8479E+03
      3.404  0.5322E+01  0.8481E+03
      3.429  0.2136E+02  0.8486E+03
      3.453  0.6011E+02  0.8501E+03
      3.478  0.8440E+02  0.8521E+03
      3.502  0.1012E+03  0.8546E+03
      3.527  0.1209E+03  0.8576E+03
      3.552  0.1085E+03  0.8603E+03
      3.576  0.5984E+02  0.8617E+03
      3.601  0.3571E+02  0.8626E+03
      3.625  0.5287E+02  0.8639E+03
      3.650  0.5128E+02  0.8652E+03
      3.674  0.2597E+02  0.8658E+03
      3.699  0.6563E+01  0.8660E+03
      3.724  0.6842E+00  0.8660E+03
      3.748  0.2434E-01  0.8660E+03
      3.773  0.2619E-03  0.8660E+03
      3.797  0.7981E-06  0.8660E+03
      3.822  0.6669E-09  0.8660E+03
      3.846  0.1491E-12  0.8660E+03
      3.871  0.0000E+00  0.8660E+03
      3.896  0.0000E+00  0.8660E+03
      3.920  0.0000E+00  0.8660E+03
      3.945  0.0000E+00  0.8660E+03
      3.969  0.0000E+00  0.8660E+03
      3.994  0.0000E+00  0.8660E+03
