       N       E                     dE             d eps       ncg     rms          rms(c)
DAV:   1    -0.246024612463E+03   -0.24602E+03   -0.10639E+05  3464   0.661E+02
DAV:   2    -0.771901465114E+03   -0.52588E+03   -0.48115E+03  3996   0.686E+01
DAV:   3    -0.807526664177E+03   -0.35625E+02   -0.32443E+02  4304   0.142E+01
DAV:   4    -0.808656897362E+03   -0.11302E+01   -0.11155E+01  3896   0.279E+00
DAV:   5    -0.808681436971E+03   -0.24540E-01   -0.24514E-01  4056   0.440E-01    0.681E+00
DAV:   6    -0.805916887922E+03    0.27645E+01   -0.57326E+00  3808   0.338E+00    0.515E+00
DAV:   7    -0.803302174752E+03    0.26147E+01   -0.39375E+00  3864   0.309E+00    0.343E+00
DAV:   8    -0.801987183581E+03    0.13150E+01   -0.19108E+00  3856   0.164E+00    0.182E+00
DAV:   9    -0.801787586042E+03    0.19960E+00   -0.10948E+00  3784   0.876E-01    0.103E+00
DAV:  10    -0.801803025669E+03   -0.15440E-01   -0.21599E-01  3968   0.563E-01    0.858E-01
DAV:  11    -0.801727407691E+03    0.75618E-01   -0.90057E-02  3936   0.390E-01    0.418E-01
DAV:  12    -0.801722431324E+03    0.49764E-02   -0.28747E-02  3768   0.162E-01    0.203E-01
DAV:  13    -0.801722316009E+03    0.11532E-03   -0.81070E-03  3904   0.114E-01    0.143E-01
DAV:  14    -0.801720457898E+03    0.18581E-02   -0.25576E-03  3872   0.728E-02    0.730E-02
DAV:  15    -0.801720077502E+03    0.38040E-03   -0.98298E-04  3784   0.335E-02    0.310E-02
DAV:  16    -0.801720027478E+03    0.50023E-04   -0.38135E-04  3800   0.178E-02    0.158E-02
DAV:  17    -0.801720007542E+03    0.19937E-04   -0.69609E-05  3904   0.104E-02    0.111E-02
DAV:  18    -0.801719984176E+03    0.23365E-04   -0.15688E-05  2560   0.516E-03    0.524E-03
DAV:  19    -0.801719976590E+03    0.75868E-05   -0.83670E-06  1880   0.327E-03
   1 F= -.80171998E+03 E0= -.80167398E+03  d E =-.919951E-01
