Li                                      
           1
    20.227200    0.000000    0.000000
     0.000000   20.227200    0.000000
     0.000000    0.000000   20.227200
   Li
   432
Direct configuration=     1
   0.01148605  0.01683388  0.99965754
   0.90419713  0.08723229  0.07484975
   0.83224485  0.15564848  0.17615539
   0.74363147  0.25874082  0.24643041
   0.67376946  0.33859795  0.34270595
   0.56809281  0.40772077  0.40525404
   0.52014106  0.48739316  0.50065069
   0.43988667  0.58978404  0.57127819
   0.32721386  0.67288595  0.64581799
   0.23995185  0.74412324  0.73833555
   0.17832384  0.84343877  0.83636730
   0.08604281  0.91547546  0.92674337
   0.07647786  0.90037857  0.08091310
   0.99191022  0.99796106  0.15306429
   0.93519454  0.09671224  0.24499435
   0.82842743  0.16288475  0.34782515
   0.76022002  0.25614757  0.41526156
   0.67532158  0.32040354  0.49957725
   0.58298524  0.40114125  0.59125500
   0.50734251  0.48848923  0.67354366
   0.41531424  0.59298623  0.73401337
   0.32762934  0.66951344  0.83457445
   0.24537010  0.74035945  0.91304961
   0.17232044  0.82138313  0.98748595
   0.16000544  0.82892858  0.15412662
   0.07601090  0.91847330  0.25085085
   0.99262798  0.00482532  0.33449350
   0.91730318  0.07694302  0.41355703
   0.84873022  0.15347858  0.49788234
   0.76032413  0.23821940  0.59100676
   0.66789525  0.33514818  0.67363966
   0.58196469  0.42045181  0.75119524
   0.50430612  0.51527236  0.83687517
   0.42190475  0.58390417  0.91360220
   0.31739854  0.66314399  0.00496102
   0.24085537  0.74569041  0.08677279
   0.24620087  0.74478749  0.23727283
   0.16575491  0.83635525  0.32552763
   0.06373645  0.91632842  0.41648915
   0.00936203  0.00322338  0.50580317
   0.92641957  0.08139814  0.58044821
   0.84085227  0.16155404  0.68193554
   0.74304478  0.23482687  0.74601776
   0.66877739  0.33620447  0.83125782
   0.59064766  0.42484153  0.90895473
   0.51007695  0.50693962  0.99613401
   0.41579197  0.60086617  0.07552579
   0.34586180  0.65985202  0.16901683
   0.33340180  0.67334539  0.33473157
   0.23444460  0.74617612  0.41540524
   0.15121567  0.83758545  0.49275903
   0.06906733  0.91038221  0.58322989
   0.00065227  0.01261920  0.67783228
   0.91438646  0.07638547  0.75975700
   0.82690695  0.16803980  0.84237790
   0.72489448  0.25778266  0.93461910
   0.65102364  0.33945130  0.00905963
   0.58870400  0.43485505  0.10289450
   0.50394766  0.51688281  0.16251148
   0.42649561  0.57845253  0.25936059
   0.41418646  0.57325404  0.41479616
   0.33366813  0.66048025  0.47866437
   0.23057862  0.74670805  0.57139871
   0.16292951  0.83418180  0.66609854
   0.08444535  0.90424714  0.75552830
   0.99919661  0.00786074  0.84483237
   0.90714348  0.08092922  0.92312270
   0.81953607  0.16342371  0.00294774
   0.73426434  0.24975861  0.09472174
   0.66164000  0.33488731  0.16517813
   0.58451564  0.40816519  0.25292179
   0.51239344  0.50541329  0.33776510
   0.07974652  0.08630668  0.93391086
   0.00532926  0.17340054  0.00257180
   0.90242738  0.23916039  0.08442258
   0.83808029  0.32670415  0.17675419
   0.74029819  0.41347383  0.25670359
   0.66651942  0.50265505  0.34216841
   0.59465868  0.58676917  0.43459757
   0.51236807  0.66709716  0.49471264
   0.42638996  0.75500403  0.57647947
   0.32617037  0.82797016  0.66109884
   0.24642637  0.92915230  0.74018426
   0.16003180  0.99372124  0.83765456
   0.16113870  0.99918099  0.00505517
   0.07525120  0.08404558  0.09158907
   0.00090009  0.17904781  0.15909381
   0.90466073  0.23474807  0.25005748
   0.83128329  0.33577621  0.33619273
   0.74718830  0.42338827  0.42526419
   0.66630201  0.49223985  0.50652490
   0.57749942  0.57694755  0.58421723
   0.51669523  0.67557385  0.66313843
   0.41842464  0.74936940  0.75265660
   0.33877305  0.82564036  0.82765316
   0.25722209  0.91740032  0.90915766
   0.24084155  0.90751889  0.09009745
   0.14783854  0.01146461  0.15541188
   0.09291302  0.09467781  0.25570687
   0.00314613  0.15855172  0.31860297
   0.93028694  0.26384330  0.40856513
   0.83546954  0.34282654  0.51372455
   0.75056457  0.40587857  0.58466355
   0.66453300  0.50132809  0.65845164
   0.58941956  0.58267612  0.75058016
   0.49779369  0.66797912  0.84556671
   0.40122944  0.74148671  0.92984851
   0.32535246  0.83041725  0.00061930
   0.32734472  0.83068223  0.16456445
   0.23010798  0.92815476  0.23382779
   0.14845762  0.00198320  0.34250989
   0.08463774  0.07979408  0.40074133
   0.00885096  0.16316067  0.49171645
   0.92926263  0.25315834  0.56979548
   0.82768640  0.32744195  0.67116583
   0.75289862  0.42535517  0.74600612
   0.66599890  0.50935535  0.84267324
   0.59008952  0.60028711  0.93261830
   0.52328861  0.67288773  0.01472324
   0.40511853  0.75768487  0.08331236
   0.40844979  0.75165668  0.23887613
   0.32454541  0.84038234  0.32616868
   0.22526943  0.92955618  0.40871433
   0.15630349  0.00262131  0.50156163
   0.07693255  0.09434927  0.58737504
   0.98373747  0.16134864  0.67205378
   0.92345753  0.24253855  0.74248766
   0.82335392  0.31599605  0.83010153
   0.74945535  0.41490556  0.92097554
   0.67054033  0.49855466  0.00578226
   0.59354278  0.57602135  0.09055385
   0.50516355  0.66880255  0.16421367
   0.50094117  0.67237312  0.33593571
   0.41289372  0.75189327  0.41251030
   0.34282704  0.84376718  0.49407889
   0.23783923  0.91514165  0.57292839
   0.15187030  0.00508253  0.65347477
   0.08370020  0.08713736  0.75189040
   0.00489403  0.16714815  0.84971321
   0.92397231  0.24720938  0.91846599
   0.83093065  0.32662374  0.01985961
   0.75829234  0.41918345  0.10430920
   0.66748177  0.50244764  0.18455933
   0.60384800  0.59224494  0.24756908
   0.18028310  0.16312839  0.82569484
   0.09822097  0.24130715  0.91305013
   0.00503109  0.31207454  0.99594355
   0.91684320  0.42327284  0.07206544
   0.83555850  0.50671577  0.17935947
   0.75589665  0.58573168  0.25161876
   0.66293017  0.67474404  0.33377616
   0.59128136  0.76793984  0.40939675
   0.49599326  0.84203018  0.51512976
   0.41683605  0.92242193  0.59304810
   0.33793470  0.01255520  0.65724281
   0.24938462  0.07349020  0.74968383
   0.24479529  0.07378228  0.92533854
   0.16515208  0.15015992  0.99486117
   0.10172312  0.24129197  0.07454247
   0.98294006  0.32146923  0.15746235
   0.92234129  0.42974281  0.24325790
   0.84247600  0.49984485  0.33861435
   0.74696848  0.58307495  0.41422642
   0.67364641  0.66619217  0.49674306
   0.59323643  0.73926537  0.58396284
   0.50092999  0.82913594  0.67149365
   0.41400880  0.91513415  0.74104441
   0.33700237  0.99772273  0.83510656
   0.34390884  0.99935624  0.99706787
   0.24870325  0.09214212  0.07978530
   0.16690979  0.16716549  0.17156573
   0.07679639  0.25783892  0.25221404
   0.98450970  0.33557703  0.32863458
   0.91043608  0.42653170  0.42096982
   0.83929125  0.50391896  0.51381519
   0.74260271  0.59002346  0.58705527
   0.67488110  0.66553451  0.67271959
   0.57599561  0.75066029  0.76176667
   0.48700009  0.82295868  0.83502244
   0.41253814  0.90173025  0.92133065
   0.42091389  0.93181425  0.07367853
   0.33151924  0.99910196  0.15635632
   0.24832940  0.08401094  0.25750874
   0.17979418  0.17173570  0.33664916
   0.06894003  0.24673695  0.42440083
   0.01334299  0.33268532  0.50827553
   0.91612913  0.42427058  0.59290909
   0.82554569  0.51622422  0.65997628
   0.75573056  0.58209304  0.75683879
   0.66612696  0.67799180  0.83115282
   0.59243544  0.75407095  0.92512937
   0.48747831  0.83565154  0.01178672
   0.50852858  0.83670436  0.17137226
   0.41935460  0.93295249  0.24828822
   0.33360457  0.99864585  0.34106697
   0.25997526  0.07951570  0.42691612
   0.16124158  0.15209028  0.49340768
   0.07678757  0.23977847  0.59390554
   0.01970868  0.32694329  0.67238977
   0.91864525  0.41998111  0.73841761
   0.81394360  0.49677257  0.83026175
   0.74189886  0.59078519  0.91097187
   0.65833427  0.68033526  0.00767321
   0.58841986  0.76887890  0.08589595
   0.57120677  0.75225170  0.24738333
   0.49186095  0.83596125  0.33019608
   0.42395389  0.91864353  0.42282815
   0.35407413  0.00180179  0.50846797
   0.23292630  0.09251510  0.58880785
   0.18831358  0.16009069  0.66359631
   0.09170168  0.22868839  0.74526701
   0.00015817  0.34182742  0.82000215
   0.90913792  0.41013263  0.91644489
   0.82670668  0.50101244  0.00742257
   0.74888659  0.57734316  0.07699899
   0.66401142  0.67968596  0.14492976
   0.25554277  0.24855539  0.74041533
   0.16518968  0.32994461  0.82286940
   0.08394830  0.39786944  0.91473006
   0.01612983  0.49605020  0.00071551
   0.91553983  0.59554666  0.08442133
   0.83725122  0.68254496  0.15429507
   0.74577793  0.74875709  0.26345729
   0.66589164  0.83136106  0.31264414
   0.59479961  0.90717341  0.41377351
   0.51991566  0.98992541  0.50741299
   0.43646016  0.08231029  0.58443116
   0.33520643  0.16636075  0.64451176
   0.33121309  0.16301245  0.82742810
   0.24748303  0.25326247  0.89899944
   0.18106653  0.32505098  0.99748656
   0.06994957  0.40059376  0.08747864
   0.01191286  0.49988844  0.16435531
   0.91718488  0.59104321  0.24404675
   0.83901819  0.66033473  0.32735338
   0.75618036  0.74287403  0.40875586
   0.68699596  0.82460941  0.49844308
   0.59349159  0.89627873  0.58953484
   0.50903461  0.00221195  0.67357900
   0.40622397  0.08183403  0.74376742
   0.39394357  0.08446876  0.90143265
   0.32536422  0.17626952  0.99154694
   0.25190301  0.25332825  0.08900290
   0.17333040  0.32911662  0.16265606
   0.07867217  0.41075248  0.24492646
   0.00526965  0.50922500  0.33379259
   0.91845354  0.59051588  0.42333243
   0.82629139  0.67045561  0.50261090
   0.76183368  0.74531564  0.58605516
   0.67381178  0.81506018  0.67641631
   0.59156144  0.91403235  0.75638664
   0.49585206  0.00322952  0.84297812
   0.50028842  0.99725507  0.98919512
   0.43026916  0.09823238  0.06776025
   0.33171230  0.16081990  0.16884808
   0.25293598  0.24798048  0.25180470
   0.16147510  0.33752535  0.33810144
   0.07532393  0.40907192  0.39336458
   0.00403330  0.50198707  0.48757012
   0.91152966  0.59508187  0.58404806
   0.83882562  0.66941872  0.68922227
   0.77311587  0.76242937  0.76658313
   0.65856246  0.82786095  0.82983480
   0.57726468  0.89501906  0.92365201
   0.57297878  0.92172479  0.09162006
   0.49500390  0.00532375  0.16725289
   0.41001472  0.08760224  0.25893861
   0.34164506  0.16776106  0.33993596
   0.25061740  0.26392727  0.40793063
   0.14812907  0.33182391  0.50872316
   0.07988357  0.40888403  0.58193150
   0.01028594  0.50092025  0.65707700
   0.92810406  0.58197903  0.75099406
   0.84451963  0.66727982  0.83824113
   0.74685871  0.74276342  0.92559131
   0.66351366  0.83663734  0.01304976
   0.66896284  0.84072749  0.17605468
   0.58664116  0.93100424  0.25502048
   0.49836893  0.00422255  0.35316070
   0.42188590  0.08753635  0.42290345
   0.33450561  0.17026057  0.50519713
   0.23094499  0.25984393  0.57374592
   0.17312958  0.31891794  0.67347614
   0.08496107  0.42085312  0.74875402
   0.00823392  0.49654676  0.82885901
   0.92588797  0.57530499  0.90451945
   0.83826408  0.66903404  0.99073172
   0.75580504  0.74773824  0.08987014
   0.33689325  0.34872223  0.66317102
   0.24195203  0.41362152  0.75066922
   0.16056592  0.49869681  0.82395997
   0.08961170  0.58450803  0.90663938
   0.99097485  0.65289414  0.99891542
   0.92361436  0.75857700  0.09266186
   0.82894737  0.83892766  0.18164313
   0.75715589  0.93007811  0.25352437
   0.66324804  0.00306014  0.32385811
   0.59464962  0.07166474  0.40725358
   0.52334006  0.17391906  0.49539596
   0.42581507  0.25695628  0.57912108
   0.40837946  0.26182383  0.75259839
   0.33694330  0.33806357  0.82877143
   0.24347406  0.41315819  0.90229850
   0.16596187  0.47747907  0.00152296
   0.09239188  0.58662147  0.07992860
   0.00961217  0.67991038  0.17324638
   0.91229220  0.75742812  0.25817537
   0.84284265  0.83914235  0.35050184
   0.74713933  0.91686707  0.40416253
   0.67289247  0.99490235  0.50024980
   0.58997560  0.08289224  0.58107790
   0.49747449  0.15497284  0.66019422
   0.50384946  0.15191350  0.82640805
   0.41713673  0.24747596  0.89854167
   0.34293892  0.34904475  0.98648751
   0.24944091  0.41157213  0.07660283
   0.17147859  0.48491350  0.17628983
   0.08477533  0.57255115  0.25808645
   0.99546396  0.67007741  0.33473236
   0.91342064  0.75037739  0.42865086
   0.83487888  0.83272450  0.49970300
   0.75652271  0.91465251  0.58927241
   0.66750544  0.99234229  0.67426084
   0.56106178  0.07495415  0.75656502
   0.59467943  0.08412639  0.92322605
   0.49994035  0.18831339  0.96764039
   0.40451960  0.24465077  0.05789186
   0.33480772  0.34071439  0.16075655
   0.24670391  0.40215841  0.24541488
   0.16078181  0.49306073  0.34020555
   0.08673226  0.58994181  0.41518510
   0.98630273  0.67353761  0.49888595
   0.91822464  0.75590838  0.58257957
   0.84186562  0.82032332  0.67944535
   0.75182908  0.90702560  0.75103161
   0.66015176  0.98214157  0.83574353
   0.65982917  0.98021269  0.00574945
   0.57736379  0.09007683  0.07821339
   0.48600141  0.17061627  0.15111187
   0.40470721  0.24274096  0.25332813
   0.33527757  0.34319229  0.32402725
   0.25880488  0.41932660  0.42412166
   0.15123385  0.48704169  0.49184396
   0.07634301  0.59274739  0.57934871
   0.00797968  0.66490421  0.68355821
   0.91580094  0.75204483  0.76577383
   0.82806202  0.84034467  0.84884809
   0.73999766  0.90965263  0.91923263
   0.74351289  0.89887928  0.09006740
   0.67095389  0.00340575  0.15362375
   0.58112036  0.07877463  0.24530918
   0.50840943  0.16101485  0.34389593
   0.40933540  0.24879342  0.40874168
   0.33892999  0.34136121  0.49109428
   0.26421480  0.41000011  0.57800256
   0.15286350  0.49008099  0.66482271
   0.08447994  0.59053666  0.75545873
   0.99484464  0.66497544  0.84870080
   0.92407438  0.74916566  0.92510248
   0.82128380  0.83027136  0.00545704
   0.42128758  0.41664925  0.57122772
   0.34654836  0.50259523  0.66314206
   0.24473872  0.58245736  0.73198936
   0.17950034  0.67050723  0.83532270
   0.08405405  0.74548757  0.91424402
   0.99262523  0.83954985  0.98978813
   0.91576812  0.91166207  0.07846267
   0.83230667  0.99680201  0.17309850
   0.74904013  0.08831217  0.24482837
   0.67926628  0.16342591  0.32973531
   0.58822416  0.24835967  0.40201210
   0.50992085  0.33110119  0.49244715
   0.51270932  0.32951493  0.66999137
   0.41480183  0.41377862  0.76830773
   0.33143560  0.50491291  0.82471759
   0.24581801  0.57278131  0.91626496
   0.16678587  0.65736918  0.98121573
   0.08573076  0.75384470  0.07190679
   0.99954125  0.82841966  0.17236087
   0.91748418  0.90940795  0.24800699
   0.83105328  0.99991281  0.31953304
   0.74366267  0.07425056  0.42330659
   0.67255210  0.15434325  0.49502462
   0.59213385  0.24026197  0.58511075
   0.57668202  0.25193067  0.74989399
   0.51224705  0.32508832  0.83504219
   0.42274827  0.42583438  0.91875551
   0.33456616  0.49067067  0.97593373
   0.24206780  0.57453000  0.07818579
   0.15373490  0.67806530  0.16604740
   0.07212095  0.75167296  0.25239938
   0.98610285  0.81884065  0.34869851
   0.92112854  0.92643190  0.42969843
   0.82772953  0.00431416  0.49624151
   0.75762759  0.09142420  0.59614086
   0.66119114  0.15766241  0.67930942
   0.68038984  0.16101533  0.82936961
   0.59121169  0.25278158  0.90613744
   0.51339894  0.34080741  0.99109542
   0.43177439  0.43164797  0.09250965
   0.32327934  0.50863667  0.16229654
   0.24904716  0.58059709  0.23841933
   0.16234478  0.66272070  0.32975722
   0.09138410  0.74721568  0.41976236
   0.98959976  0.82923327  0.50695821
   0.92369405  0.92477320  0.59877342
   0.82875293  0.00274687  0.67741470
   0.74589650  0.07638163  0.74700921
   0.74523409  0.07105093  0.91686366
   0.67012615  0.17925852  0.01159365
   0.57465911  0.25332946  0.08968594
   0.48958174  0.33559128  0.16754359
   0.42459256  0.42961164  0.26927798
   0.31052542  0.50349195  0.32219893
   0.26046984  0.59089406  0.39885696
   0.16971193  0.66775079  0.48369825
   0.08495481  0.75407450  0.57416623
   0.98933855  0.83302013  0.66854222
   0.91829911  0.92344772  0.75502953
   0.81188228  0.97794706  0.83500148
   0.82240022  0.99352033  0.00519502
   0.74308388  0.08913346  0.09768702
   0.66465007  0.15920724  0.18480201
   0.58186464  0.24809895  0.23830519
   0.48871044  0.32229682  0.32909249
   0.42347957  0.43253355  0.40394830
   0.33642633  0.50094935  0.49676571
   0.24000421  0.58525317  0.57480033
   0.15841433  0.65929744  0.65812795
   0.08702645  0.76290922  0.75866531
   0.00014057  0.83337359  0.83521174
   0.91915512  0.92831426  0.91949658
