 500 500   0   0
  0.2349479E+02  0.2273250E-08  0.2273250E-08  0.2273250E-08  0.5000000E-15
  1.000000000000000E-004
  CAR 
 Li                                      
      2.70502625     -3.58772894  301      0.02020099      1.00000000
     -3.588  0.0000E+00  0.0000E+00
     -3.567  0.0000E+00  0.0000E+00
     -3.546  0.0000E+00  0.0000E+00
     -3.525  0.0000E+00  0.0000E+00
     -3.504  0.0000E+00  0.0000E+00
     -3.483  0.0000E+00  0.0000E+00
     -3.462  0.1059E-13  0.2220E-15
     -3.441  0.2365E-10  0.4963E-12
     -3.420  0.2117E-07  0.4446E-09
     -3.399  0.7282E-05  0.1532E-06
     -3.378  0.9678E-03  0.2045E-04
     -3.357  0.5010E-01  0.1071E-02
     -3.336  0.1020E+01  0.2247E-01
     -3.315  0.8265E+01  0.1958E+00
     -3.294  0.2692E+02  0.7606E+00
     -3.273  0.3554E+02  0.1506E+01
     -3.252  0.1913E+02  0.1907E+01
     -3.231  0.5806E+01  0.2029E+01
     -3.210  0.1555E+02  0.2355E+01
     -3.189  0.5917E+02  0.3597E+01
     -3.168  0.1015E+03  0.5726E+01
     -3.147  0.7777E+02  0.7357E+01
     -3.126  0.2711E+02  0.7926E+01
     -3.105  0.1185E+02  0.8175E+01
     -3.084  0.4125E+02  0.9040E+01
     -3.063  0.9206E+02  0.1097E+02
     -3.042  0.9246E+02  0.1291E+02
     -3.021  0.4310E+02  0.1381E+02
     -3.000  0.1744E+02  0.1418E+02
     -2.979  0.4361E+02  0.1509E+02
     -2.958  0.1005E+03  0.1720E+02
     -2.937  0.1211E+03  0.1974E+02
     -2.917  0.7821E+02  0.2138E+02
     -2.896  0.3211E+02  0.2206E+02
     -2.875  0.4406E+02  0.2298E+02
     -2.854  0.1154E+03  0.2540E+02
     -2.833  0.1699E+03  0.2897E+02
     -2.812  0.1449E+03  0.3201E+02
     -2.791  0.7363E+02  0.3355E+02
     -2.770  0.2586E+02  0.3409E+02
     -2.749  0.3657E+02  0.3486E+02
     -2.728  0.8344E+02  0.3661E+02
     -2.707  0.9591E+02  0.3862E+02
     -2.686  0.5501E+02  0.3978E+02
     -2.665  0.3609E+02  0.4053E+02
     -2.644  0.7985E+02  0.4221E+02
     -2.623  0.1420E+03  0.4519E+02
     -2.602  0.1586E+03  0.4851E+02
     -2.581  0.1141E+03  0.5091E+02
     -2.560  0.6244E+02  0.5222E+02
     -2.539  0.7877E+02  0.5387E+02
     -2.518  0.1497E+03  0.5701E+02
     -2.497  0.2027E+03  0.6126E+02
     -2.476  0.1972E+03  0.6540E+02
     -2.455  0.1375E+03  0.6828E+02
     -2.434  0.6777E+02  0.6970E+02
     -2.413  0.4489E+02  0.7064E+02
     -2.392  0.7715E+02  0.7226E+02
     -2.371  0.9669E+02  0.7429E+02
     -2.350  0.6472E+02  0.7565E+02
     -2.329  0.4432E+02  0.7658E+02
     -2.308  0.8692E+02  0.7840E+02
     -2.287  0.1551E+03  0.8165E+02
     -2.266  0.1775E+03  0.8538E+02
     -2.245  0.1380E+03  0.8827E+02
     -2.224  0.8612E+02  0.9008E+02
     -2.203  0.8799E+02  0.9193E+02
     -2.182  0.1437E+03  0.9494E+02
     -2.161  0.1924E+03  0.9898E+02
     -2.140  0.1912E+03  0.1030E+03
     -2.119  0.1446E+03  0.1060E+03
     -2.098  0.9028E+02  0.1079E+03
     -2.077  0.8905E+02  0.1098E+03
     -2.056  0.1402E+03  0.1127E+03
     -2.036  0.1645E+03  0.1162E+03
     -2.015  0.1260E+03  0.1188E+03
     -1.994  0.8108E+02  0.1205E+03
     -1.973  0.1080E+03  0.1228E+03
     -1.952  0.1751E+03  0.1265E+03
     -1.931  0.2031E+03  0.1307E+03
     -1.910  0.1779E+03  0.1344E+03
     -1.889  0.1256E+03  0.1371E+03
     -1.868  0.9725E+02  0.1391E+03
     -1.847  0.1374E+03  0.1420E+03
     -1.826  0.2000E+03  0.1462E+03
     -1.805  0.2126E+03  0.1507E+03
     -1.784  0.1583E+03  0.1540E+03
     -1.763  0.8968E+02  0.1559E+03
     -1.742  0.7906E+02  0.1575E+03
     -1.721  0.1240E+03  0.1601E+03
     -1.700  0.1485E+03  0.1632E+03
     -1.679  0.1299E+03  0.1660E+03
     -1.658  0.1008E+03  0.1681E+03
     -1.637  0.1028E+03  0.1702E+03
     -1.616  0.1352E+03  0.1731E+03
     -1.595  0.1490E+03  0.1762E+03
     -1.574  0.1287E+03  0.1789E+03
     -1.553  0.1216E+03  0.1814E+03
     -1.532  0.1733E+03  0.1851E+03
     -1.511  0.2378E+03  0.1901E+03
     -1.490  0.2645E+03  0.1956E+03
     -1.469  0.2520E+03  0.2009E+03
     -1.448  0.2147E+03  0.2054E+03
     -1.427  0.1684E+03  0.2089E+03
     -1.406  0.1518E+03  0.2121E+03
     -1.385  0.1843E+03  0.2160E+03
     -1.364  0.2080E+03  0.2203E+03
     -1.343  0.1877E+03  0.2243E+03
     -1.322  0.1393E+03  0.2272E+03
     -1.301  0.1084E+03  0.2295E+03
     -1.280  0.1342E+03  0.2323E+03
     -1.259  0.1706E+03  0.2359E+03
     -1.238  0.1669E+03  0.2394E+03
     -1.217  0.1460E+03  0.2424E+03
     -1.196  0.1621E+03  0.2458E+03
     -1.176  0.2105E+03  0.2503E+03
     -1.155  0.2380E+03  0.2552E+03
     -1.134  0.2238E+03  0.2599E+03
     -1.113  0.1701E+03  0.2635E+03
     -1.092  0.1039E+03  0.2657E+03
     -1.071  0.8047E+02  0.2674E+03
     -1.050  0.9692E+02  0.2694E+03
     -1.029  0.9691E+02  0.2714E+03
     -1.008  0.1030E+03  0.2736E+03
     -0.987  0.1640E+03  0.2770E+03
     -0.966  0.2334E+03  0.2819E+03
     -0.945  0.2640E+03  0.2875E+03
     -0.924  0.2608E+03  0.2929E+03
     -0.903  0.2394E+03  0.2980E+03
     -0.882  0.2199E+03  0.3026E+03
     -0.861  0.2195E+03  0.3072E+03
     -0.840  0.2454E+03  0.3123E+03
     -0.819  0.2745E+03  0.3181E+03
     -0.798  0.2746E+03  0.3239E+03
     -0.777  0.2387E+03  0.3289E+03
     -0.756  0.1910E+03  0.3329E+03
     -0.735  0.1595E+03  0.3362E+03
     -0.714  0.1478E+03  0.3393E+03
     -0.693  0.1467E+03  0.3424E+03
     -0.672  0.1583E+03  0.3457E+03
     -0.651  0.1904E+03  0.3497E+03
     -0.630  0.2168E+03  0.3542E+03
     -0.609  0.2193E+03  0.3588E+03
     -0.588  0.1992E+03  0.3630E+03
     -0.567  0.1717E+03  0.3666E+03
     -0.546  0.1694E+03  0.3702E+03
     -0.525  0.2031E+03  0.3744E+03
     -0.504  0.2401E+03  0.3795E+03
     -0.483  0.2524E+03  0.3848E+03
     -0.462  0.2549E+03  0.3901E+03
     -0.441  0.2438E+03  0.3952E+03
     -0.420  0.2213E+03  0.3999E+03
     -0.399  0.2133E+03  0.4043E+03
     -0.378  0.2073E+03  0.4087E+03
     -0.357  0.1930E+03  0.4127E+03
     -0.336  0.1851E+03  0.4166E+03
     -0.315  0.1970E+03  0.4208E+03
     -0.295  0.2197E+03  0.4254E+03
     -0.274  0.2411E+03  0.4304E+03
     -0.253  0.2456E+03  0.4356E+03
     -0.232  0.2328E+03  0.4405E+03
     -0.211  0.2260E+03  0.4452E+03
     -0.190  0.2246E+03  0.4499E+03
     -0.169  0.2274E+03  0.4547E+03
     -0.148  0.2269E+03  0.4594E+03
     -0.127  0.2127E+03  0.4639E+03
     -0.106  0.2028E+03  0.4682E+03
     -0.085  0.2200E+03  0.4728E+03
     -0.064  0.2433E+03  0.4779E+03
     -0.043  0.2531E+03  0.4832E+03
     -0.022  0.2605E+03  0.4886E+03
     -0.001  0.2693E+03  0.4943E+03
      0.020  0.2709E+03  0.5000E+03
      0.041  0.2657E+03  0.5056E+03
      0.062  0.2561E+03  0.5109E+03
      0.083  0.2509E+03  0.5162E+03
      0.104  0.2519E+03  0.5215E+03
      0.125  0.2651E+03  0.5270E+03
      0.146  0.2897E+03  0.5331E+03
      0.167  0.3022E+03  0.5394E+03
      0.188  0.2984E+03  0.5457E+03
      0.209  0.2963E+03  0.5519E+03
      0.230  0.2927E+03  0.5581E+03
      0.251  0.2912E+03  0.5642E+03
      0.272  0.2923E+03  0.5703E+03
      0.293  0.2880E+03  0.5763E+03
      0.314  0.2733E+03  0.5821E+03
      0.335  0.2548E+03  0.5874E+03
      0.356  0.2358E+03  0.5924E+03
      0.377  0.2162E+03  0.5969E+03
      0.398  0.2075E+03  0.6013E+03
      0.419  0.2102E+03  0.6057E+03
      0.440  0.2160E+03  0.6102E+03
      0.461  0.2211E+03  0.6148E+03
      0.482  0.2267E+03  0.6196E+03
      0.503  0.2269E+03  0.6243E+03
      0.524  0.2171E+03  0.6289E+03
      0.545  0.2064E+03  0.6332E+03
      0.565  0.2040E+03  0.6375E+03
      0.586  0.2037E+03  0.6418E+03
      0.607  0.2104E+03  0.6462E+03
      0.628  0.2288E+03  0.6510E+03
      0.649  0.2467E+03  0.6562E+03
      0.670  0.2529E+03  0.6615E+03
      0.691  0.2491E+03  0.6667E+03
      0.712  0.2507E+03  0.6720E+03
      0.733  0.2611E+03  0.6774E+03
      0.754  0.2553E+03  0.6828E+03
      0.775  0.2409E+03  0.6878E+03
      0.796  0.2387E+03  0.6928E+03
      0.817  0.2402E+03  0.6979E+03
      0.838  0.2405E+03  0.7029E+03
      0.859  0.2434E+03  0.7080E+03
      0.880  0.2420E+03  0.7131E+03
      0.901  0.2370E+03  0.7181E+03
      0.922  0.2357E+03  0.7230E+03
      0.943  0.2347E+03  0.7280E+03
      0.964  0.2374E+03  0.7329E+03
      0.985  0.2367E+03  0.7379E+03
      1.006  0.2283E+03  0.7427E+03
      1.027  0.2198E+03  0.7473E+03
      1.048  0.2086E+03  0.7517E+03
      1.069  0.2029E+03  0.7559E+03
      1.090  0.2108E+03  0.7603E+03
      1.111  0.2153E+03  0.7649E+03
      1.132  0.2062E+03  0.7692E+03
      1.153  0.1894E+03  0.7732E+03
      1.174  0.1736E+03  0.7768E+03
      1.195  0.1635E+03  0.7802E+03
      1.216  0.1605E+03  0.7836E+03
      1.237  0.1645E+03  0.7871E+03
      1.258  0.1773E+03  0.7908E+03
      1.279  0.1872E+03  0.7947E+03
      1.300  0.1886E+03  0.7987E+03
      1.321  0.1933E+03  0.8027E+03
      1.342  0.2042E+03  0.8070E+03
      1.363  0.2178E+03  0.8116E+03
      1.384  0.2207E+03  0.8162E+03
      1.405  0.2132E+03  0.8207E+03
      1.425  0.2137E+03  0.8251E+03
      1.446  0.2196E+03  0.8298E+03
      1.467  0.2197E+03  0.8344E+03
      1.488  0.2096E+03  0.8388E+03
      1.509  0.2061E+03  0.8431E+03
      1.530  0.2149E+03  0.8476E+03
      1.551  0.2187E+03  0.8522E+03
      1.572  0.2020E+03  0.8564E+03
      1.593  0.1785E+03  0.8602E+03
      1.614  0.1688E+03  0.8637E+03
      1.635  0.1653E+03  0.8672E+03
      1.656  0.1628E+03  0.8706E+03
      1.677  0.1608E+03  0.8740E+03
      1.698  0.1615E+03  0.8773E+03
      1.719  0.1702E+03  0.8809E+03
      1.740  0.1791E+03  0.8847E+03
      1.761  0.1786E+03  0.8884E+03
      1.782  0.1759E+03  0.8921E+03
      1.803  0.1763E+03  0.8958E+03
      1.824  0.1719E+03  0.8994E+03
      1.845  0.1678E+03  0.9029E+03
      1.866  0.1698E+03  0.9065E+03
      1.887  0.1685E+03  0.9100E+03
      1.908  0.1651E+03  0.9135E+03
      1.929  0.1695E+03  0.9170E+03
      1.950  0.1826E+03  0.9209E+03
      1.971  0.1802E+03  0.9246E+03
      1.992  0.1684E+03  0.9282E+03
      2.013  0.1674E+03  0.9317E+03
      2.034  0.1733E+03  0.9353E+03
      2.055  0.1751E+03  0.9390E+03
      2.076  0.1727E+03  0.9426E+03
      2.097  0.1743E+03  0.9463E+03
      2.118  0.1793E+03  0.9500E+03
      2.139  0.1802E+03  0.9538E+03
      2.160  0.1812E+03  0.9576E+03
      2.181  0.1810E+03  0.9614E+03
      2.202  0.1817E+03  0.9652E+03
      2.223  0.1933E+03  0.9693E+03
      2.244  0.2031E+03  0.9735E+03
      2.265  0.2016E+03  0.9778E+03
      2.286  0.1921E+03  0.9818E+03
      2.306  0.1793E+03  0.9856E+03
      2.327  0.1771E+03  0.9893E+03
      2.348  0.1829E+03  0.9931E+03
      2.369  0.1739E+03  0.9968E+03
      2.390  0.1368E+03  0.9996E+03
      2.411  0.7880E+02  0.1001E+04
      2.432  0.2839E+02  0.1002E+04
      2.453  0.5460E+01  0.1002E+04
      2.474  0.4995E+00  0.1002E+04
      2.495  0.2016E-01  0.1002E+04
      2.516  0.3419E-03  0.1002E+04
      2.537  0.2357E-05  0.1002E+04
      2.558  0.6460E-08  0.1002E+04
      2.579  0.6934E-11  0.1002E+04
      2.600  0.2646E-14  0.1002E+04
      2.621  0.0000E+00  0.1002E+04
      2.642  0.0000E+00  0.1002E+04
      2.663  0.0000E+00  0.1002E+04
      2.684  0.0000E+00  0.1002E+04
      2.705  0.0000E+00  0.1002E+04
