Li                                      
           1
    22.732500   -0.000000    0.000000
    -0.000000   22.732500    0.000000
     0.000000    0.000000   22.732500
   Li
   500
Direct configuration=     1
   0.00698590  0.00882267  0.98599560
   0.02176714  0.09592357  0.09531458
   0.01043680  0.18855011  0.18659910
   0.99869606  0.29394612  0.30693696
   0.01811389  0.39968872  0.37593997
   0.99809614  0.50323047  0.50525377
   0.00601197  0.60328154  0.63721814
   0.01805851  0.73026570  0.71570683
   0.99186858  0.81997737  0.79323865
   0.00480648  0.90191866  0.89245390
   0.08307165  0.99087066  0.10745444
   0.08090427  0.09310906  0.21316822
   0.09136341  0.22059693  0.29615091
   0.09466704  0.32224705  0.40047221
   0.09778392  0.40789365  0.50332047
   0.09682965  0.51507366  0.60665455
   0.11582454  0.61295725  0.74395201
   0.10364841  0.73119377  0.83303097
   0.12203946  0.82874505  0.89867924
   0.09506824  0.92018380  0.99673529
   0.20646535  0.99708906  0.19658041
   0.19660867  0.08988800  0.28140783
   0.21795151  0.20357660  0.38543899
   0.19891416  0.29642571  0.50056006
   0.20401564  0.39991684  0.62829655
   0.19599110  0.50937243  0.70637397
   0.19371566  0.58971074  0.81248956
   0.20647603  0.69936629  0.89854490
   0.19749527  0.81255919  0.98721824
   0.20318080  0.91725977  0.08695055
   0.30697779  0.98753707  0.27759947
   0.32723481  0.09584454  0.39070354
   0.29132331  0.19935892  0.49301486
   0.30218536  0.30614307  0.60778778
   0.27625101  0.39151872  0.71059043
   0.30608497  0.49867141  0.79544146
   0.29967615  0.60848506  0.89825298
   0.31099280  0.70249077  0.96797595
   0.31815922  0.80716642  0.08025780
   0.30161370  0.89401125  0.21197801
   0.38430282  0.99952465  0.40808754
   0.40018486  0.11044434  0.49502408
   0.38641174  0.18439210  0.60393598
   0.38728635  0.32512265  0.70890412
   0.38145508  0.40412816  0.81021451
   0.40126890  0.49596117  0.90168424
   0.41762854  0.60733873  0.99239455
   0.40422784  0.71580838  0.09496908
   0.40375634  0.79838870  0.21325024
   0.40141998  0.90451544  0.31387697
   0.49865625  0.98790800  0.49400413
   0.46924642  0.09629571  0.62175435
   0.48333997  0.17798365  0.71769269
   0.49517323  0.28541704  0.79980184
   0.50849678  0.39661271  0.90038962
   0.51135998  0.48777582  0.98508134
   0.51267045  0.60953203  0.09082258
   0.51253379  0.68539292  0.22027984
   0.51928060  0.78608451  0.31732714
   0.51146714  0.92603483  0.42023632
   0.59426125  0.99671594  0.59552113
   0.60305047  0.09729683  0.69771497
   0.60138570  0.19528247  0.81133775
   0.58929951  0.29453045  0.87918823
   0.58777968  0.37667791  0.98480203
   0.60394909  0.48521872  0.09452594
   0.60577611  0.61653506  0.18170931
   0.62680632  0.67767886  0.29101088
   0.60939688  0.77578365  0.41595143
   0.61965622  0.89714248  0.50659280
   0.69509303  0.00308665  0.71859943
   0.66176649  0.08724872  0.77892283
   0.69293067  0.22073894  0.87156808
   0.68745442  0.30232416  0.96647783
   0.68181209  0.38444395  0.06652213
   0.70453812  0.46000585  0.20875160
   0.72414860  0.60629194  0.27128566
   0.72403446  0.68856071  0.40905394
   0.71980079  0.80845606  0.49214326
   0.69842915  0.89741064  0.63027881
   0.76790520  0.00535348  0.80716176
   0.78076974  0.09305737  0.89169216
   0.77264124  0.19631040  0.99428251
   0.80082953  0.30053005  0.06801847
   0.80591395  0.38187678  0.17009006
   0.80421683  0.50781256  0.29537200
   0.79625253  0.60161571  0.37516697
   0.82342264  0.68030332  0.53304875
   0.80406808  0.81655076  0.59936833
   0.80355269  0.88750546  0.72911614
   0.88281641  0.01266005  0.90069353
   0.87158178  0.09941013  0.02446472
   0.88931467  0.19059549  0.07161199
   0.89874187  0.26442855  0.18366953
   0.91433249  0.38506559  0.28991320
   0.91577484  0.50207641  0.38095238
   0.89168884  0.61694324  0.50150697
   0.92075294  0.68419944  0.61816950
   0.89429132  0.79400104  0.69723160
   0.88325325  0.90116253  0.79973242
   0.12811605  0.10736711  0.00242012
   0.11598110  0.19580829  0.11604637
   0.10604801  0.29069601  0.22220565
   0.11617422  0.39644026  0.29803875
   0.10376499  0.50301355  0.40888389
   0.10504617  0.61971509  0.50387721
   0.08010863  0.70689218  0.61862328
   0.10676291  0.82026283  0.67607771
   0.09655309  0.92036680  0.78916072
   0.08840043  0.01442460  0.90595688
   0.19057920  0.09870761  0.12592682
   0.22736578  0.21687552  0.20787147
   0.20864495  0.29301164  0.32790764
   0.21611805  0.41331479  0.41769569
   0.22004657  0.51690387  0.52115220
   0.18609231  0.61745108  0.61024952
   0.22374254  0.69495250  0.72024623
   0.22042049  0.85172667  0.80655489
   0.20228316  0.92546705  0.91887088
   0.20701333  0.99777116  0.99878712
   0.32387545  0.10047949  0.21974188
   0.31697071  0.20833065  0.31283643
   0.30938507  0.31226412  0.41804656
   0.31052132  0.38976235  0.48883629
   0.29894902  0.50468132  0.59576024
   0.31003031  0.60797811  0.67303905
   0.29605652  0.70422767  0.77050836
   0.28318056  0.81912584  0.91092103
   0.30007934  0.91056634  0.02751485
   0.31955692  0.01511381  0.12134037
   0.43669031  0.11733949  0.32831185
   0.42449125  0.23627490  0.41646856
   0.38357712  0.30806094  0.51313284
   0.37228522  0.41515663  0.59272242
   0.37463306  0.50654103  0.69827069
   0.41363164  0.60307846  0.77832898
   0.38042127  0.74217577  0.87519498
   0.41536147  0.81066040  0.01602792
   0.41358570  0.91714334  0.13057207
   0.42129390  0.98752763  0.22678619
   0.50574302  0.08608167  0.42497740
   0.51952589  0.20523997  0.53431277
   0.46533819  0.30925261  0.61739271
   0.47642498  0.41467020  0.69382695
   0.48179830  0.49357059  0.78313354
   0.49280113  0.59010671  0.87422724
   0.48924058  0.70278705  0.97529855
   0.48741333  0.79962610  0.11737748
   0.49610454  0.91759635  0.20396064
   0.52153725  0.01671574  0.34240758
   0.61388055  0.06404484  0.50688296
   0.59268150  0.22096351  0.61515118
   0.58342022  0.31049698  0.68590102
   0.55311198  0.41124093  0.77953901
   0.57438304  0.48834539  0.88569754
   0.59699168  0.60417637  0.98157152
   0.58081440  0.71940603  0.11023570
   0.61109122  0.80057851  0.22179664
   0.60226191  0.88553139  0.29823836
   0.62719108  0.01853441  0.41229170
   0.70428003  0.11591333  0.60593405
   0.70434629  0.22605575  0.69161050
   0.71346741  0.32691846  0.79477730
   0.68402540  0.40297253  0.92124561
   0.67549311  0.50474451  0.99469014
   0.68467831  0.60929892  0.09273333
   0.71110414  0.70603265  0.18719988
   0.69309369  0.77722512  0.31424797
   0.69514513  0.90972977  0.38694412
   0.71704801  0.02052650  0.51478987
   0.79780378  0.11862298  0.70526414
   0.78693676  0.18768609  0.79709093
   0.81351613  0.29998943  0.89722390
   0.80263039  0.38486709  0.00457877
   0.76030962  0.51338236  0.09956822
   0.80008544  0.60584573  0.19553263
   0.78386527  0.71111235  0.30311634
   0.78900112  0.78918044  0.41650196
   0.82702566  0.95047129  0.49350831
   0.77757929  0.00884813  0.62408870
   0.92539844  0.08236237  0.80134655
   0.88211075  0.18680876  0.88236696
   0.91503827  0.27397670  0.97860010
   0.90301435  0.39404373  0.08963061
   0.88745904  0.48525416  0.18683887
   0.92216603  0.61045890  0.28281039
   0.87766272  0.70429838  0.38027169
   0.88320322  0.78069273  0.53482174
   0.88922214  0.92525024  0.62077780
   0.88750592  0.98441509  0.69948715
   0.98354632  0.10771610  0.93755219
   0.99998064  0.16739298  0.01540863
   0.01710690  0.27783306  0.09437138
   0.01239319  0.40677742  0.21551136
   0.02806030  0.50397604  0.29706988
   0.98835154  0.61881935  0.40533280
   0.98310390  0.70945018  0.50619697
   0.98337591  0.82767263  0.62307182
   0.00000765  0.91882800  0.68729778
   0.00983372  0.99886919  0.80875707
   0.20242253  0.19045094  0.99291971
   0.21069018  0.27751700  0.10922873
   0.22292129  0.39207738  0.19953299
   0.19526710  0.50848635  0.29799099
   0.19199718  0.58357639  0.38582211
   0.18919791  0.68400185  0.51565721
   0.19608315  0.79694740  0.57328875
   0.22852650  0.90399501  0.69727631
   0.21500962  0.02248003  0.83560677
   0.20260364  0.11039498  0.91590041
   0.30352569  0.19319662  0.09133974
   0.33903403  0.30605558  0.18847707
   0.29721465  0.38724760  0.31382475
   0.31540905  0.48106823  0.39708667
   0.29535187  0.59229804  0.51401793
   0.31616180  0.69352383  0.60463423
   0.27680712  0.80600402  0.70882111
   0.31579655  0.92130680  0.82074830
   0.30676549  0.98863993  0.91915484
   0.31036588  0.09167903  0.00854334
   0.43196319  0.18860554  0.20958280
   0.40392665  0.28416074  0.31529062
   0.42407856  0.37598225  0.38495367
   0.42488003  0.47330775  0.46789519
   0.43726205  0.59266313  0.59462554
   0.41615699  0.71438599  0.67042487
   0.36145940  0.82478166  0.78054876
   0.38717876  0.88913190  0.92392635
   0.39666118  0.98018953  0.01092945
   0.40162406  0.08536385  0.09305314
   0.48440091  0.20197685  0.30655582
   0.50701560  0.30733407  0.40139587
   0.50337031  0.38921977  0.49653323
   0.51582518  0.51012983  0.60007905
   0.51315843  0.61299285  0.70973085
   0.51173887  0.73416900  0.80001577
   0.47967118  0.78355293  0.88993216
   0.49670369  0.88641414  0.00667248
   0.52875764  0.01741958  0.12093852
   0.53160954  0.09848540  0.22714825
   0.58982211  0.17915852  0.39883414
   0.60246566  0.33119463  0.49769390
   0.59270100  0.39239654  0.59988005
   0.59142337  0.51491166  0.69065449
   0.61686116  0.62780779  0.77436456
   0.60662399  0.68603880  0.89584225
   0.58845803  0.79129805  0.98473322
   0.57282780  0.88390199  0.10441295
   0.62040905  0.99690188  0.22759577
   0.60549233  0.11632333  0.31378173
   0.69527986  0.20154266  0.50468231
   0.70918768  0.32935045  0.59921800
   0.70387898  0.40015495  0.68297014
   0.69879816  0.49711189  0.77640132
   0.70486869  0.60990052  0.88412526
   0.72433950  0.70173258  0.01025629
   0.69247859  0.80334397  0.08945061
   0.68971899  0.89442685  0.21619044
   0.72011504  0.01046611  0.31905697
   0.69334664  0.11024993  0.40296335
   0.78401298  0.20600218  0.59608222
   0.82942730  0.30024464  0.69824559
   0.81503433  0.39043853  0.83908018
   0.79656367  0.48484788  0.89318161
   0.78903800  0.59750581  0.00656597
   0.80913635  0.69689721  0.09713349
   0.80552897  0.80940534  0.17964448
   0.80927825  0.90456411  0.30660077
   0.81012382  0.03069648  0.40668045
   0.78791847  0.09682109  0.51900975
   0.89042310  0.18854216  0.72601817
   0.90143450  0.30435728  0.81474211
   0.91477573  0.41619207  0.92576999
   0.87975788  0.49049011  0.02099558
   0.89576807  0.61628159  0.12261528
   0.90533167  0.72192512  0.19680325
   0.92062589  0.81188299  0.28856619
   0.89204743  0.91168729  0.40005251
   0.89132924  0.02021169  0.49529967
   0.88796424  0.09486109  0.61247873
   0.99936717  0.20657949  0.80063702
   0.97164986  0.28552390  0.92900038
   0.01056343  0.40186985  0.01539767
   0.01077747  0.48883634  0.10275052
   0.99831645  0.59701826  0.19060842
   0.99247797  0.69462517  0.27667700
   0.99367781  0.77798482  0.39234507
   0.97729275  0.88230672  0.51530090
   0.99529956  0.00586458  0.58781512
   0.02574791  0.08846366  0.68883550
   0.09464128  0.19819105  0.90279220
   0.11876145  0.29653616  0.01118625
   0.10295919  0.40628161  0.09833763
   0.10675286  0.51539982  0.18009361
   0.09609231  0.61130045  0.27950998
   0.11037983  0.69857363  0.38684216
   0.06745828  0.79293587  0.48845052
   0.10962999  0.92163795  0.58865380
   0.11382457  0.00780425  0.71512016
   0.07408579  0.10205354  0.85352655
   0.30226150  0.28282571  0.01384984
   0.32172960  0.37273049  0.08054225
   0.28981874  0.49024442  0.19727983
   0.30445765  0.57343784  0.29723294
   0.29157130  0.68661154  0.38142742
   0.28150150  0.79988233  0.48863900
   0.26953706  0.90042873  0.58873316
   0.26424062  0.99096046  0.71349614
   0.30507833  0.09918417  0.77836542
   0.29846832  0.21037793  0.90786472
   0.38730938  0.28487042  0.10146745
   0.40630406  0.40336445  0.18696652
   0.41827556  0.47483577  0.26494104
   0.40162613  0.59989053  0.38583422
   0.39938957  0.69245722  0.46654746
   0.39898124  0.79884039  0.58275263
   0.37430987  0.92823866  0.67226743
   0.40116907  0.00421237  0.79153085
   0.38456445  0.09877754  0.90740589
   0.38507502  0.18360615  0.99279441
   0.50296451  0.30368245  0.21113718
   0.52719758  0.39124322  0.31321403
   0.51104858  0.50996137  0.38659374
   0.48831633  0.61207465  0.49012609
   0.48984736  0.71383952  0.58621253
   0.47609893  0.83392354  0.70087064
   0.47887545  0.89878121  0.80747948
   0.49452730  0.00002390  0.89887557
   0.51294231  0.07586829  0.01752982
   0.49700158  0.17699780  0.10468542
   0.62983892  0.31819697  0.28531195
   0.62084355  0.39557687  0.41421592
   0.62813126  0.52498519  0.48693600
   0.57188886  0.59622924  0.56586547
   0.59015525  0.72750985  0.68935774
   0.59738936  0.80870552  0.80313045
   0.60001526  0.88093970  0.89563491
   0.58975470  0.99068874  0.99033555
   0.62940807  0.13365369  0.12538331
   0.61482076  0.20740782  0.20777421
   0.71509730  0.26422157  0.40554554
   0.70507890  0.37804033  0.48834286
   0.69429279  0.47069410  0.58617038
   0.69044099  0.58662443  0.70570068
   0.68359729  0.69014528  0.80139367
   0.69636446  0.79995404  0.92187291
   0.66322359  0.89417381  0.01938387
   0.68147434  0.98047343  0.12073915
   0.70781724  0.10573837  0.21296200
   0.72939047  0.20022172  0.29370741
   0.80226208  0.29339572  0.50493318
   0.82038358  0.39003643  0.59161787
   0.80932125  0.46346702  0.69289560
   0.81851323  0.62068238  0.78664797
   0.79332766  0.71244353  0.90081018
   0.77828104  0.80596914  0.01173021
   0.78950296  0.91057427  0.10964947
   0.80851286  0.00845506  0.19028092
   0.82117143  0.12873630  0.26928408
   0.81969103  0.16131515  0.40865787
   0.92368223  0.30609531  0.58568149
   0.93816463  0.39573347  0.71162460
   0.89919314  0.48680319  0.81607915
   0.88625910  0.59242562  0.91349073
   0.88851956  0.68353161  0.98754037
   0.89711600  0.80174683  0.09855419
   0.88067682  0.90418771  0.20071731
   0.87290766  0.00069249  0.31730110
   0.88703632  0.11126433  0.40231189
   0.91567105  0.17320498  0.51349827
   0.99111742  0.28541198  0.71713324
   0.00069367  0.39732007  0.83374600
   0.99344260  0.48245602  0.91700252
   0.98620423  0.60575533  0.00760577
   0.99901978  0.68150593  0.10406693
   0.99183983  0.80173277  0.18492484
   0.99113096  0.90575339  0.27867090
   0.98599481  0.98172674  0.38115531
   0.00238612  0.08654067  0.51630301
   0.02284500  0.18814544  0.59811009
   0.07156496  0.29951322  0.81915779
   0.07045692  0.37429030  0.92035657
   0.12680118  0.46885550  0.00014120
   0.11455883  0.60353516  0.08622707
   0.11208547  0.72748754  0.18358709
   0.10319070  0.80439542  0.28475126
   0.07952747  0.89068476  0.40655774
   0.11263081  0.98255422  0.46411014
   0.12997011  0.09730347  0.56870523
   0.12923867  0.20831383  0.70237381
   0.21701556  0.32137262  0.89396022
   0.17689123  0.38885368  0.01915232
   0.20879713  0.49748415  0.11675452
   0.18597872  0.61743450  0.17983299
   0.20140043  0.70840651  0.28029430
   0.19160209  0.77933622  0.39989455
   0.18888544  0.89578094  0.48932315
   0.19086890  0.00282942  0.60142463
   0.20587415  0.09994386  0.71184082
   0.20285622  0.20393153  0.82093049
   0.40813146  0.40932951  0.99835997
   0.42287526  0.50111017  0.10903462
   0.40825566  0.57650407  0.20167547
   0.39707991  0.67232988  0.29097412
   0.37599107  0.78897893  0.37886279
   0.37867352  0.88194338  0.51742861
   0.36031058  0.00420096  0.58588292
   0.38585367  0.09607005  0.68962043
   0.39259549  0.20086770  0.82951120
   0.43342861  0.29799459  0.90748094
   0.50405804  0.40305110  0.08184428
   0.51425269  0.51480198  0.17932283
   0.51625753  0.56898072  0.31109087
   0.51370971  0.68512469  0.37602991
   0.50465313  0.79688520  0.49580727
   0.47763806  0.93615830  0.60310775
   0.49139849  0.00850708  0.69290281
   0.50326039  0.08869849  0.80858700
   0.49700130  0.17145492  0.90598286
   0.50517238  0.26468456  0.98631440
   0.59501366  0.40152002  0.17873614
   0.61638705  0.48231268  0.28563165
   0.61733552  0.59796909  0.40619223
   0.57889632  0.71852355  0.50096171
   0.59232918  0.83880187  0.59162137
   0.60356522  0.90919800  0.70948557
   0.58901395  0.98537727  0.78690003
   0.59828565  0.12031136  0.89178809
   0.59874601  0.21417570  0.02820245
   0.57617830  0.28581092  0.08807007
   0.69719694  0.39677630  0.30430082
   0.72785958  0.52241560  0.40123362
   0.73074793  0.61207570  0.50935800
   0.69441462  0.71564787  0.60825782
   0.69844287  0.81681727  0.68368972
   0.70241663  0.88378011  0.79075790
   0.69007947  0.01440864  0.88906916
   0.70857378  0.06706721  0.98554840
   0.69478513  0.21688743  0.10117197
   0.70844152  0.29533341  0.18146683
   0.80348792  0.39142474  0.38819492
   0.81780023  0.48853042  0.48045570
   0.82503864  0.59246020  0.63676189
   0.76045352  0.70795314  0.68298538
   0.77329528  0.80193438  0.80971278
   0.76581891  0.88860557  0.90532094
   0.76515786  0.97912466  0.99196385
   0.75195480  0.09663639  0.09456987
   0.80051003  0.19760167  0.17086580
   0.80524839  0.27617456  0.31199214
   0.91462540  0.39587163  0.49444108
   0.88748962  0.48797614  0.61177727
   0.90633424  0.60133245  0.72304967
   0.86818830  0.71019372  0.77837324
   0.89204618  0.80366009  0.89447480
   0.89508615  0.92205645  0.99099240
   0.86580569  0.98420222  0.07603699
   0.89749977  0.08516332  0.18310338
   0.90390676  0.21438770  0.27104620
   0.89434657  0.29125507  0.40349980
   0.00472291  0.39134719  0.60129296
   0.01316090  0.53038982  0.71956923
   0.00295352  0.59408959  0.81593844
   0.97706536  0.69205811  0.86258487
   0.98085652  0.77906411  0.97784875
   0.97955695  0.88392138  0.08440315
   0.95923418  0.01821423  0.21180906
   0.98458749  0.09880632  0.32841239
   0.98889124  0.20241712  0.39679553
   0.02202472  0.28473317  0.48011772
   0.07743708  0.39443632  0.71611054
   0.09856402  0.49058299  0.80952796
   0.10397190  0.57969756  0.90072955
   0.09261777  0.71300575  0.97501201
   0.06927208  0.76710373  0.06448112
   0.09629861  0.87350482  0.19157926
   0.09128764  0.99754992  0.27626929
   0.10055299  0.08741209  0.37580381
   0.09959349  0.18378001  0.48226376
   0.09260446  0.30245914  0.59207951
   0.20224078  0.39752368  0.82907364
   0.20876795  0.48187699  0.91394109
   0.21306930  0.58999109  0.97624407
   0.21060950  0.71290511  0.05733780
   0.19825540  0.81700291  0.13982330
   0.18259984  0.90255148  0.28256841
   0.20691309  0.99866305  0.38333813
   0.20324773  0.10166638  0.50283479
   0.21284508  0.20945510  0.59537736
   0.20712979  0.29371806  0.72089404
   0.31719162  0.38328177  0.92130475
   0.32039318  0.48548848  0.01739046
   0.31656034  0.61884774  0.08424620
   0.30666751  0.68203454  0.20234878
   0.27614062  0.79258503  0.28452991
   0.28960517  0.88793761  0.39878195
   0.29615838  0.00892191  0.48040892
   0.28079691  0.10463689  0.59939644
   0.29075707  0.19450620  0.71350577
   0.30327401  0.29020445  0.81366129
