 432 432   0   0
  0.2159961E+02  0.2105280E-08  0.2105280E-08  0.2105280E-08  0.5000000E-15
  1.000000000000000E-004
  CAR 
 Li                                      
      3.18230511     -3.51172129  301      0.23140911      1.00000000
     -3.512  0.0000E+00  0.0000E+00
     -3.489  0.0000E+00  0.0000E+00
     -3.467  0.0000E+00  0.0000E+00
     -3.445  0.0000E+00  0.0000E+00
     -3.422  0.0000E+00  0.0000E+00
     -3.400  0.0000E+00  0.0000E+00
     -3.378  0.4105E-13  0.9159E-15
     -3.356  0.1280E-09  0.2857E-11
     -3.333  0.1334E-06  0.2979E-08
     -3.311  0.4720E-04  0.1056E-05
     -3.289  0.5718E-02  0.1287E-03
     -3.266  0.2400E+00  0.5484E-02
     -3.244  0.3540E+01  0.8447E-01
     -3.222  0.1865E+02  0.5007E+00
     -3.199  0.3559E+02  0.1295E+01
     -3.177  0.2476E+02  0.1847E+01
     -3.155  0.6325E+01  0.1989E+01
     -3.132  0.2212E+01  0.2038E+01
     -3.110  0.1496E+02  0.2372E+01
     -3.088  0.5606E+02  0.3622E+01
     -3.065  0.9355E+02  0.5710E+01
     -3.043  0.7267E+02  0.7331E+01
     -3.021  0.2589E+02  0.7909E+01
     -2.999  0.5750E+01  0.8037E+01
     -2.976  0.1650E+02  0.8406E+01
     -2.954  0.5982E+02  0.9740E+01
     -2.932  0.9634E+02  0.1189E+02
     -2.909  0.6956E+02  0.1344E+02
     -2.887  0.2283E+02  0.1395E+02
     -2.865  0.1272E+02  0.1424E+02
     -2.842  0.4676E+02  0.1528E+02
     -2.820  0.9965E+02  0.1750E+02
     -2.798  0.1103E+03  0.1996E+02
     -2.775  0.6761E+02  0.2147E+02
     -2.753  0.2342E+02  0.2200E+02
     -2.731  0.2412E+02  0.2253E+02
     -2.708  0.7621E+02  0.2423E+02
     -2.686  0.1378E+03  0.2731E+02
     -2.664  0.1522E+03  0.3071E+02
     -2.641  0.1045E+03  0.3304E+02
     -2.619  0.3752E+02  0.3387E+02
     -2.597  0.1173E+02  0.3414E+02
     -2.575  0.3622E+02  0.3494E+02
     -2.552  0.8812E+02  0.3691E+02
     -2.530  0.9116E+02  0.3894E+02
     -2.508  0.4230E+02  0.3989E+02
     -2.485  0.2624E+02  0.4047E+02
     -2.463  0.6526E+02  0.4193E+02
     -2.441  0.1211E+03  0.4463E+02
     -2.418  0.1473E+03  0.4792E+02
     -2.396  0.1175E+03  0.5054E+02
     -2.374  0.5697E+02  0.5181E+02
     -2.351  0.4110E+02  0.5273E+02
     -2.329  0.9771E+02  0.5491E+02
     -2.307  0.1695E+03  0.5869E+02
     -2.284  0.1979E+03  0.6310E+02
     -2.262  0.1714E+03  0.6693E+02
     -2.240  0.9981E+02  0.6916E+02
     -2.218  0.3605E+02  0.6996E+02
     -2.195  0.2872E+02  0.7060E+02
     -2.173  0.6860E+02  0.7213E+02
     -2.151  0.9302E+02  0.7421E+02
     -2.128  0.6193E+02  0.7559E+02
     -2.106  0.3111E+02  0.7628E+02
     -2.084  0.5709E+02  0.7756E+02
     -2.061  0.1186E+03  0.8020E+02
     -2.039  0.1603E+03  0.8378E+02
     -2.017  0.1513E+03  0.8716E+02
     -1.994  0.9470E+02  0.8927E+02
     -1.972  0.5058E+02  0.9040E+02
     -1.950  0.8488E+02  0.9229E+02
     -1.927  0.1561E+03  0.9578E+02
     -1.905  0.1874E+03  0.9996E+02
     -1.883  0.1743E+03  0.1038E+03
     -1.861  0.1243E+03  0.1066E+03
     -1.838  0.6833E+02  0.1081E+03
     -1.816  0.7014E+02  0.1097E+03
     -1.794  0.1165E+03  0.1123E+03
     -1.771  0.1427E+03  0.1155E+03
     -1.749  0.1219E+03  0.1182E+03
     -1.727  0.7275E+02  0.1198E+03
     -1.704  0.6814E+02  0.1214E+03
     -1.682  0.1329E+03  0.1243E+03
     -1.660  0.1878E+03  0.1285E+03
     -1.637  0.1829E+03  0.1326E+03
     -1.615  0.1409E+03  0.1357E+03
     -1.593  0.8688E+02  0.1377E+03
     -1.570  0.7506E+02  0.1394E+03
     -1.548  0.1314E+03  0.1423E+03
     -1.526  0.1969E+03  0.1467E+03
     -1.504  0.2064E+03  0.1513E+03
     -1.481  0.1430E+03  0.1545E+03
     -1.459  0.6383E+02  0.1559E+03
     -1.437  0.4758E+02  0.1570E+03
     -1.414  0.9346E+02  0.1590E+03
     -1.392  0.1364E+03  0.1621E+03
     -1.370  0.1337E+03  0.1651E+03
     -1.347  0.9451E+02  0.1672E+03
     -1.325  0.6493E+02  0.1686E+03
     -1.303  0.9189E+02  0.1707E+03
     -1.280  0.1444E+03  0.1739E+03
     -1.258  0.1495E+03  0.1772E+03
     -1.236  0.1054E+03  0.1796E+03
     -1.213  0.9914E+02  0.1818E+03
     -1.191  0.1622E+03  0.1854E+03
     -1.169  0.2139E+03  0.1902E+03
     -1.146  0.2353E+03  0.1954E+03
     -1.124  0.2432E+03  0.2009E+03
     -1.102  0.2117E+03  0.2056E+03
     -1.080  0.1508E+03  0.2090E+03
     -1.057  0.1208E+03  0.2117E+03
     -1.035  0.1535E+03  0.2151E+03
     -1.013  0.1900E+03  0.2193E+03
     -0.990  0.1813E+03  0.2234E+03
     -0.968  0.1361E+03  0.2264E+03
     -0.946  0.8711E+02  0.2284E+03
     -0.923  0.1008E+03  0.2306E+03
     -0.901  0.1487E+03  0.2339E+03
     -0.879  0.1587E+03  0.2375E+03
     -0.856  0.1234E+03  0.2402E+03
     -0.834  0.8758E+02  0.2422E+03
     -0.812  0.1093E+03  0.2446E+03
     -0.789  0.1721E+03  0.2484E+03
     -0.767  0.2215E+03  0.2534E+03
     -0.745  0.2316E+03  0.2586E+03
     -0.723  0.1948E+03  0.2629E+03
     -0.700  0.1464E+03  0.2662E+03
     -0.678  0.1196E+03  0.2688E+03
     -0.656  0.9237E+02  0.2709E+03
     -0.633  0.5153E+02  0.2720E+03
     -0.611  0.6046E+02  0.2734E+03
     -0.589  0.1304E+03  0.2763E+03
     -0.566  0.1975E+03  0.2807E+03
     -0.544  0.2281E+03  0.2858E+03
     -0.522  0.2277E+03  0.2909E+03
     -0.499  0.2139E+03  0.2957E+03
     -0.477  0.1861E+03  0.2998E+03
     -0.455  0.1531E+03  0.3032E+03
     -0.432  0.1662E+03  0.3069E+03
     -0.410  0.2067E+03  0.3116E+03
     -0.388  0.2415E+03  0.3169E+03
     -0.366  0.2509E+03  0.3225E+03
     -0.343  0.2227E+03  0.3275E+03
     -0.321  0.1629E+03  0.3311E+03
     -0.299  0.1210E+03  0.3338E+03
     -0.276  0.1276E+03  0.3367E+03
     -0.254  0.1430E+03  0.3399E+03
     -0.232  0.1485E+03  0.3432E+03
     -0.209  0.1685E+03  0.3470E+03
     -0.187  0.1999E+03  0.3514E+03
     -0.165  0.2207E+03  0.3563E+03
     -0.142  0.2330E+03  0.3615E+03
     -0.120  0.2414E+03  0.3669E+03
     -0.098  0.2349E+03  0.3722E+03
     -0.075  0.2028E+03  0.3767E+03
     -0.053  0.1670E+03  0.3804E+03
     -0.031  0.1647E+03  0.3841E+03
     -0.009  0.1834E+03  0.3882E+03
      0.014  0.1926E+03  0.3925E+03
      0.036  0.1879E+03  0.3967E+03
      0.058  0.1756E+03  0.4006E+03
      0.081  0.1530E+03  0.4040E+03
      0.103  0.1489E+03  0.4073E+03
      0.125  0.1673E+03  0.4111E+03
      0.148  0.1837E+03  0.4152E+03
      0.170  0.2048E+03  0.4197E+03
      0.192  0.2103E+03  0.4244E+03
      0.215  0.1970E+03  0.4288E+03
      0.237  0.1899E+03  0.4331E+03
      0.259  0.1975E+03  0.4375E+03
      0.282  0.2082E+03  0.4421E+03
      0.304  0.2070E+03  0.4467E+03
      0.326  0.1890E+03  0.4509E+03
      0.349  0.1850E+03  0.4551E+03
      0.371  0.1939E+03  0.4594E+03
      0.393  0.2049E+03  0.4640E+03
      0.415  0.2147E+03  0.4688E+03
      0.438  0.2081E+03  0.4734E+03
      0.460  0.2038E+03  0.4780E+03
      0.482  0.2158E+03  0.4828E+03
      0.505  0.2241E+03  0.4878E+03
      0.527  0.2233E+03  0.4928E+03
      0.549  0.2271E+03  0.4978E+03
      0.572  0.2420E+03  0.5032E+03
      0.594  0.2486E+03  0.5088E+03
      0.616  0.2363E+03  0.5140E+03
      0.639  0.2348E+03  0.5193E+03
      0.661  0.2405E+03  0.5246E+03
      0.683  0.2439E+03  0.5301E+03
      0.706  0.2411E+03  0.5355E+03
      0.728  0.2333E+03  0.5407E+03
      0.750  0.2289E+03  0.5458E+03
      0.772  0.2260E+03  0.5508E+03
      0.795  0.2210E+03  0.5558E+03
      0.817  0.2185E+03  0.5606E+03
      0.839  0.2260E+03  0.5657E+03
      0.862  0.2299E+03  0.5708E+03
      0.884  0.2298E+03  0.5759E+03
      0.906  0.2240E+03  0.5809E+03
      0.929  0.2195E+03  0.5858E+03
      0.951  0.2230E+03  0.5908E+03
      0.973  0.2173E+03  0.5957E+03
      0.996  0.2104E+03  0.6003E+03
      1.018  0.2071E+03  0.6050E+03
      1.040  0.1991E+03  0.6094E+03
      1.063  0.1916E+03  0.6137E+03
      1.085  0.1895E+03  0.6179E+03
      1.107  0.1852E+03  0.6220E+03
      1.129  0.1774E+03  0.6260E+03
      1.152  0.1759E+03  0.6299E+03
      1.174  0.1803E+03  0.6340E+03
      1.196  0.1820E+03  0.6380E+03
      1.219  0.1832E+03  0.6421E+03
      1.241  0.1735E+03  0.6460E+03
      1.263  0.1595E+03  0.6495E+03
      1.286  0.1590E+03  0.6531E+03
      1.308  0.1642E+03  0.6567E+03
      1.330  0.1701E+03  0.6605E+03
      1.353  0.1713E+03  0.6644E+03
      1.375  0.1639E+03  0.6680E+03
      1.397  0.1702E+03  0.6718E+03
      1.420  0.1818E+03  0.6759E+03
      1.442  0.1801E+03  0.6799E+03
      1.464  0.1770E+03  0.6838E+03
      1.486  0.1753E+03  0.6878E+03
      1.509  0.1748E+03  0.6917E+03
      1.531  0.1791E+03  0.6957E+03
      1.553  0.1858E+03  0.6998E+03
      1.576  0.1939E+03  0.7041E+03
      1.598  0.1890E+03  0.7083E+03
      1.620  0.1710E+03  0.7122E+03
      1.643  0.1644E+03  0.7158E+03
      1.665  0.1707E+03  0.7196E+03
      1.687  0.1721E+03  0.7235E+03
      1.710  0.1714E+03  0.7273E+03
      1.732  0.1855E+03  0.7314E+03
      1.754  0.1992E+03  0.7359E+03
      1.777  0.1933E+03  0.7402E+03
      1.799  0.1757E+03  0.7441E+03
      1.821  0.1646E+03  0.7478E+03
      1.843  0.1549E+03  0.7512E+03
      1.866  0.1453E+03  0.7545E+03
      1.888  0.1355E+03  0.7575E+03
      1.910  0.1299E+03  0.7604E+03
      1.933  0.1329E+03  0.7634E+03
      1.955  0.1422E+03  0.7665E+03
      1.977  0.1388E+03  0.7696E+03
      2.000  0.1281E+03  0.7725E+03
      2.022  0.1216E+03  0.7752E+03
      2.044  0.1166E+03  0.7778E+03
      2.067  0.1140E+03  0.7804E+03
      2.089  0.1134E+03  0.7829E+03
      2.111  0.1203E+03  0.7856E+03
      2.134  0.1271E+03  0.7884E+03
      2.156  0.1120E+03  0.7909E+03
      2.178  0.9615E+02  0.7931E+03
      2.201  0.7879E+02  0.7948E+03
      2.223  0.4354E+02  0.7958E+03
      2.245  0.2559E+02  0.7964E+03
      2.267  0.4464E+02  0.7973E+03
      2.290  0.7056E+02  0.7989E+03
      2.312  0.7201E+02  0.8005E+03
      2.334  0.6283E+02  0.8019E+03
      2.357  0.6593E+02  0.8034E+03
      2.379  0.8048E+02  0.8052E+03
      2.401  0.9406E+02  0.8073E+03
      2.424  0.1025E+03  0.8096E+03
      2.446  0.1134E+03  0.8121E+03
      2.468  0.1212E+03  0.8148E+03
      2.491  0.1206E+03  0.8175E+03
      2.513  0.1160E+03  0.8201E+03
      2.535  0.1179E+03  0.8227E+03
      2.558  0.1254E+03  0.8255E+03
      2.580  0.1324E+03  0.8285E+03
      2.602  0.1340E+03  0.8315E+03
      2.624  0.1291E+03  0.8344E+03
      2.647  0.1308E+03  0.8373E+03
      2.669  0.1358E+03  0.8403E+03
      2.691  0.1336E+03  0.8433E+03
      2.714  0.1222E+03  0.8460E+03
      2.736  0.1145E+03  0.8486E+03
      2.758  0.1199E+03  0.8512E+03
      2.781  0.1243E+03  0.8540E+03
      2.803  0.1262E+03  0.8568E+03
      2.825  0.1337E+03  0.8598E+03
      2.848  0.1255E+03  0.8626E+03
      2.870  0.8952E+02  0.8646E+03
      2.892  0.4611E+02  0.8656E+03
      2.915  0.1401E+02  0.8660E+03
      2.937  0.1954E+01  0.8660E+03
      2.959  0.1086E+00  0.8660E+03
      2.981  0.2249E-02  0.8660E+03
      3.004  0.1676E-04  0.8660E+03
      3.026  0.4389E-07  0.8660E+03
      3.048  0.3981E-10  0.8660E+03
      3.071  0.9951E-14  0.8660E+03
      3.093  0.0000E+00  0.8660E+03
      3.115  0.0000E+00  0.8660E+03
      3.138  0.0000E+00  0.8660E+03
      3.160  0.0000E+00  0.8660E+03
      3.182  0.0000E+00  0.8660E+03
