       N       E                     dE             d eps       ncg     rms          rms(c)
DAV:   1    -0.241449106655E+03   -0.24145E+03   -0.10294E+05  3464   0.649E+02
DAV:   2    -0.747788708486E+03   -0.50634E+03   -0.46180E+03  4004   0.656E+01
DAV:   3    -0.785246439362E+03   -0.37458E+02   -0.34349E+02  4488   0.141E+01
DAV:   4    -0.786543978797E+03   -0.12975E+01   -0.12797E+01  4056   0.289E+00
DAV:   5    -0.786575066171E+03   -0.31087E-01   -0.31042E-01  4176   0.470E-01    0.104E+01
DAV:   6    -0.789620195584E+03   -0.30451E+01   -0.13967E+01  4264   0.690E+00    0.104E+01
DAV:   7    -0.771203157018E+03    0.18417E+02   -0.14245E+01  4344   0.561E+00    0.433E+00
DAV:   8    -0.769702926331E+03    0.15002E+01   -0.87976E+00  3928   0.254E+00    0.223E+00
DAV:   9    -0.769498306023E+03    0.20462E+00   -0.30513E+00  3864   0.148E+00    0.126E+00
DAV:  10    -0.769545727052E+03   -0.47421E-01   -0.45815E-01  4096   0.795E-01    0.108E+00
DAV:  11    -0.769410553130E+03    0.13517E+00   -0.19287E-01  4064   0.538E-01    0.518E-01
DAV:  12    -0.769406234792E+03    0.43183E-02   -0.86020E-02  3760   0.232E-01    0.234E-01
DAV:  13    -0.769407484554E+03   -0.12498E-02   -0.14269E-02  4216   0.139E-01    0.176E-01
DAV:  14    -0.769404606356E+03    0.28782E-02   -0.45971E-03  4048   0.909E-02    0.933E-02
DAV:  15    -0.769404128007E+03    0.47835E-03   -0.16481E-03  3912   0.442E-02    0.470E-02
DAV:  16    -0.769404084763E+03    0.43244E-04   -0.79135E-04  3808   0.254E-02    0.212E-02
DAV:  17    -0.769404070626E+03    0.14137E-04   -0.14372E-04  4144   0.143E-02    0.162E-02
DAV:  18    -0.769404041847E+03    0.28779E-04   -0.43023E-05  3912   0.763E-03    0.704E-03
DAV:  19    -0.769404037514E+03    0.43325E-05   -0.16518E-05  2328   0.406E-03
   1 F= -.76940404E+03 E0= -.76936123E+03  d E =-.856236E-01
