Li                                      
           1
    21.052800    0.000000    0.000000
     0.000000   21.052800    0.000000
     0.000000    0.000000   21.052800
   Li
   432
Direct configuration=     1
   0.01339811  0.97541462  0.02136772
   0.91109393  0.08223147  0.05010682
   0.83802496  0.14839124  0.16705385
   0.73916664  0.25855238  0.25669891
   0.63690394  0.31255174  0.33801689
   0.59192860  0.43217582  0.41054948
   0.49173645  0.49856354  0.51022845
   0.42862798  0.57323310  0.59736517
   0.32545928  0.66866700  0.66877834
   0.25839223  0.75057168  0.76544431
   0.18066363  0.83916137  0.82834315
   0.10676157  0.90310069  0.91983976
   0.08541293  0.89811481  0.08487554
   0.99707726  0.00494421  0.15379189
   0.93491631  0.07232502  0.24490139
   0.85221102  0.14063676  0.33227369
   0.75741585  0.24990724  0.44167914
   0.67015022  0.33962763  0.50070203
   0.57639764  0.42809518  0.59248600
   0.51493478  0.50173424  0.64674026
   0.41456568  0.58497817  0.74169986
   0.33250824  0.67051372  0.82260851
   0.24626658  0.73912698  0.94337595
   0.17455342  0.82969581  0.00880363
   0.15324168  0.80478109  0.20934841
   0.07996064  0.92069301  0.21297668
   0.01215179  0.98770118  0.32057809
   0.95445361  0.08330295  0.41471633
   0.84728913  0.13426629  0.49726135
   0.76024692  0.25914914  0.56263661
   0.68122677  0.32727771  0.64334023
   0.60381782  0.43836563  0.73313733
   0.49941275  0.48945673  0.82355800
   0.42070116  0.61160098  0.91782738
   0.33064132  0.68439575  0.01866101
   0.25183557  0.76798528  0.09993754
   0.24987644  0.73643367  0.24403401
   0.18673224  0.84709244  0.32691624
   0.09348011  0.93610386  0.42911546
   0.01339731  0.97165901  0.51515626
   0.90754009  0.07342995  0.59615991
   0.83245035  0.17096883  0.64834249
   0.76607126  0.25225224  0.75098704
   0.67975824  0.35881316  0.80828395
   0.60793702  0.44520660  0.90536642
   0.49965188  0.49844024  0.99620109
   0.40208267  0.57098038  0.08659843
   0.33689678  0.66608288  0.14440731
   0.31249097  0.67634816  0.32159472
   0.25488703  0.73791724  0.42656853
   0.17590838  0.82631541  0.49724439
   0.13667683  0.89208360  0.60579916
   0.00275571  0.97174365  0.67642806
   0.90424906  0.08865092  0.73854466
   0.83961253  0.16508841  0.82487886
   0.76614515  0.30180420  0.91927414
   0.65383832  0.33762797  0.02379641
   0.61203234  0.46826733  0.05873198
   0.50568666  0.48825125  0.18156549
   0.40881844  0.59891763  0.25983433
   0.40869551  0.55505171  0.40101415
   0.30719842  0.63512009  0.49944118
   0.26551447  0.72440728  0.58333371
   0.18805399  0.79667550  0.66832086
   0.10042398  0.90284559  0.74212161
   0.01332075  0.99980181  0.81147658
   0.92794930  0.06664133  0.91968930
   0.82121601  0.16693489  0.99099317
   0.75661919  0.24312504  0.10223877
   0.65340758  0.31718693  0.15600469
   0.57617780  0.41133175  0.24004807
   0.50871906  0.50729999  0.32023129
   0.10352234  0.05469967  0.91920137
   0.98632512  0.13615888  0.98348201
   0.91428569  0.23662484  0.06352034
   0.86089185  0.31249490  0.15856317
   0.76786148  0.39971476  0.22470097
   0.67362399  0.50956619  0.29308845
   0.57759452  0.57512217  0.42065782
   0.47463523  0.63660681  0.49407124
   0.39378248  0.75339615  0.57237933
   0.32156403  0.82952983  0.65242272
   0.23790438  0.89671589  0.74993237
   0.18818342  0.99282962  0.81170829
   0.17790975  0.99750221  0.99881363
   0.07509286  0.06691004  0.08892695
   0.00354846  0.16259186  0.16513755
   0.89993939  0.23992374  0.25344530
   0.81845623  0.30834457  0.35447129
   0.75970123  0.42878430  0.41160687
   0.67702135  0.50772663  0.53010995
   0.58219848  0.60481596  0.57272272
   0.51476932  0.68372628  0.65626874
   0.41065868  0.74704373  0.75631748
   0.33741989  0.82424345  0.84542928
   0.26949197  0.91212036  0.92704259
   0.24972736  0.90572218  0.10405050
   0.17447635  0.99572051  0.15843252
   0.09103358  0.08688686  0.23862524
   0.98966364  0.16848534  0.31583512
   0.91027312  0.21395743  0.43014658
   0.83011266  0.36096491  0.51528355
   0.78830255  0.42076272  0.62820586
   0.66242136  0.53160320  0.66286988
   0.57670181  0.59385456  0.74943979
   0.49682126  0.66206386  0.82525962
   0.43264439  0.76380243  0.91369150
   0.31310949  0.80650474  0.99486884
   0.32792968  0.83156884  0.15009457
   0.25309223  0.92292082  0.26225474
   0.17691046  0.00642180  0.34303365
   0.07517400  0.06826312  0.40250801
   0.01184021  0.14893593  0.51157561
   0.91768555  0.26540594  0.57400564
   0.85870652  0.32780048  0.69571215
   0.76562004  0.40976030  0.75467586
   0.67358227  0.51728432  0.82004169
   0.57663344  0.60506464  0.91530702
   0.49378077  0.68128859  0.01831968
   0.41230260  0.75116418  0.06260733
   0.40504174  0.74390803  0.23061632
   0.31994438  0.81112549  0.34883454
   0.25312281  0.93328540  0.40895416
   0.19320879  0.02724375  0.52908119
   0.07805164  0.08622911  0.60355340
   0.97078227  0.16644352  0.65070115
   0.92098420  0.23766012  0.75743340
   0.85188475  0.36969266  0.83746333
   0.75097470  0.43514373  0.91667535
   0.70338912  0.52305412  0.96813173
   0.57032042  0.57518528  0.06651036
   0.49285254  0.67556780  0.14746957
   0.46617085  0.67565022  0.36036636
   0.39406154  0.76235848  0.42721939
   0.32776871  0.84452675  0.50382513
   0.23854648  0.90438167  0.59741363
   0.18573989  0.99988649  0.67681868
   0.08591634  0.09121494  0.71878356
   0.01061521  0.13038447  0.84220727
   0.89554395  0.24167042  0.91894686
   0.84531650  0.33622081  0.00342947
   0.74146151  0.42830238  0.09998458
   0.67383851  0.52210535  0.19040224
   0.56348579  0.60789971  0.23523102
   0.15883505  0.14983562  0.84759497
   0.05072208  0.24134758  0.92302005
   0.99534080  0.35358317  0.00867750
   0.91341150  0.43125122  0.09990788
   0.87414022  0.49451883  0.17642790
   0.76401280  0.60698643  0.23413887
   0.64493455  0.65978472  0.33870495
   0.54165330  0.74983600  0.43056291
   0.49155449  0.85334608  0.46965202
   0.42179285  0.93024499  0.57058436
   0.31546580  0.97526030  0.68749177
   0.25890280  0.09782492  0.76651562
   0.26763022  0.07581041  0.92654723
   0.16819746  0.14837487  0.99452374
   0.05269360  0.22112403  0.07016073
   0.96643102  0.31419242  0.16539746
   0.91618026  0.42914500  0.28201804
   0.83851411  0.53166854  0.31657564
   0.75613244  0.58863697  0.41644637
   0.66278579  0.67356121  0.47970003
   0.55374029  0.74920991  0.52172679
   0.49707947  0.81070286  0.66519342
   0.41704779  0.91589377  0.72548588
   0.34251044  0.99092455  0.81554157
   0.33633438  0.00891528  0.01122994
   0.25566017  0.08930389  0.08396908
   0.17474069  0.14737568  0.16062226
   0.08363083  0.25662010  0.23696947
   0.00554509  0.32697603  0.34349194
   0.89155103  0.44701279  0.40011386
   0.84213054  0.53407623  0.50239767
   0.76502050  0.59877548  0.57219574
   0.64865971  0.65534754  0.65822224
   0.57907073  0.74735226  0.75523094
   0.49486937  0.84380942  0.83363945
   0.39742567  0.89773563  0.92823796
   0.39758528  0.90356444  0.08293934
   0.34664721  0.01861730  0.17140795
   0.25566310  0.10136870  0.25765696
   0.18710536  0.15595720  0.34666733
   0.07051453  0.24195757  0.42737478
   0.99391518  0.32829261  0.52053032
   0.92592799  0.41056405  0.58309039
   0.84843345  0.50464411  0.67898525
   0.76358547  0.59782432  0.73787559
   0.66735146  0.67042392  0.81758964
   0.56976723  0.74206934  0.91534644
   0.50159259  0.84279580  0.01758833
   0.47247848  0.83867259  0.13845586
   0.40916320  0.90573235  0.27259636
   0.33483554  0.02647277  0.35781534
   0.25309234  0.06312000  0.41286309
   0.16650864  0.16040193  0.49306807
   0.08508785  0.21156270  0.59106956
   0.01156497  0.33424126  0.68920530
   0.93679450  0.40930046  0.77107410
   0.85725179  0.50180029  0.80365586
   0.76897245  0.60109085  0.90006492
   0.68530771  0.66301175  0.98226650
   0.59450766  0.75268095  0.07842722
   0.55836547  0.73326198  0.24126973
   0.49396286  0.82338121  0.31833421
   0.37857836  0.90083403  0.40745398
   0.32258548  0.00848985  0.50806755
   0.25162935  0.10957194  0.58737767
   0.17010431  0.17877751  0.67655582
   0.06956088  0.23582598  0.77157224
   0.99237188  0.32642367  0.85235317
   0.94250556  0.44805161  0.93064140
   0.82018931  0.50499389  0.01200931
   0.77770010  0.60209848  0.08030483
   0.65459059  0.65296565  0.16364261
   0.25707357  0.23581384  0.76976714
   0.13487132  0.32036682  0.84023725
   0.09488911  0.42205450  0.91473546
   0.02480650  0.49692888  0.01430595
   0.89548700  0.60973070  0.03810902
   0.85446414  0.68521278  0.14376741
   0.73527961  0.72589778  0.24966708
   0.65310968  0.83053704  0.32741678
   0.58083426  0.91647359  0.41346639
   0.49531046  0.00625200  0.50598352
   0.40803645  0.09302985  0.61048345
   0.32449756  0.19692407  0.68610912
   0.34049614  0.20073974  0.85451366
   0.22282952  0.24479597  0.93042165
   0.15439965  0.32486899  0.01684730
   0.05955245  0.41652052  0.11004567
   0.97527848  0.50425753  0.17015018
   0.91502721  0.61216280  0.25774166
   0.82899430  0.68160976  0.35541349
   0.72587332  0.76841886  0.41019850
   0.67489017  0.84686994  0.46450345
   0.58276176  0.89940930  0.57489594
   0.50341504  0.97429849  0.67065512
   0.43694551  0.09632152  0.75077227
   0.40362909  0.06398618  0.94896796
   0.34067327  0.18085110  0.99616331
   0.24621147  0.23119861  0.07891714
   0.16828852  0.32509900  0.14798408
   0.04242453  0.40330928  0.24813222
   0.01052616  0.49482295  0.36296653
   0.92895438  0.58343279  0.43457538
   0.80705581  0.65404854  0.49407805
   0.73397412  0.71809248  0.55052104
   0.65041737  0.84839859  0.62788350
   0.57889214  0.91430461  0.76070015
   0.47280338  0.00092013  0.86038763
   0.49611167  0.99985162  0.99846007
   0.42656051  0.09527893  0.08748681
   0.36685337  0.16876806  0.16531303
   0.23600753  0.23636770  0.24149507
   0.15989227  0.32755765  0.32974546
   0.08054967  0.39176028  0.44987713
   0.98496661  0.50319283  0.52764939
   0.93600544  0.59405129  0.58137977
   0.85421473  0.66311647  0.66040040
   0.74949212  0.74786173  0.71993129
   0.68044631  0.82469104  0.80008850
   0.58566839  0.93511030  0.92075421
   0.57446415  0.90869954  0.06479351
   0.47249430  0.99745708  0.15853442
   0.40904349  0.08685967  0.27885734
   0.32719990  0.17680726  0.34310867
   0.23550277  0.29280668  0.44806280
   0.13618449  0.31397334  0.50769216
   0.07519437  0.42962540  0.59276832
   0.98268630  0.50511963  0.67747245
   0.94205257  0.63033366  0.76271520
   0.82381401  0.68672996  0.82018232
   0.73665824  0.76836713  0.90702022
   0.66832443  0.81818843  0.99355576
   0.65668817  0.82704445  0.15686087
   0.56921253  0.92834295  0.25532030
   0.49929184  0.99361136  0.36433352
   0.41124900  0.09206937  0.44718086
   0.31921426  0.17537773  0.49264514
   0.24065016  0.24745546  0.58689182
   0.15403067  0.29647883  0.68903863
   0.07408410  0.41424185  0.78055195
   0.02292781  0.52638150  0.86079136
   0.91843789  0.61348381  0.95473592
   0.81050457  0.68510731  0.00468068
   0.75130114  0.76145448  0.08410949
   0.32547742  0.31937373  0.66607377
   0.24403595  0.41199866  0.76656543
   0.17867196  0.48574086  0.86526659
   0.09056373  0.62139568  0.92230188
   0.01451970  0.68421914  0.01892462
   0.89837564  0.75755018  0.05939278
   0.80884081  0.82684985  0.16947677
   0.74298748  0.91255700  0.22681244
   0.65917528  0.00181309  0.32221419
   0.57940451  0.09055224  0.42834715
   0.50053812  0.17336403  0.48558783
   0.40335559  0.23383146  0.58567997
   0.44528674  0.24707147  0.76351688
   0.36414052  0.34555384  0.85749628
   0.24343341  0.41032648  0.94068343
   0.15100874  0.51616714  0.00902335
   0.09268356  0.60435978  0.09630934
   0.96937251  0.68101133  0.14424755
   0.90489875  0.76522169  0.24403188
   0.82735039  0.85822541  0.31672647
   0.78059729  0.91159994  0.40778329
   0.66543058  0.98274865  0.51143765
   0.56918214  0.08991822  0.57358623
   0.51296834  0.19496511  0.67300461
   0.49438146  0.14971847  0.84048277
   0.43253323  0.25950541  0.93645602
   0.34212907  0.33543770  0.00080507
   0.24070506  0.43121389  0.07804523
   0.16180065  0.49113150  0.17712859
   0.05213703  0.59208679  0.24398942
   0.99136185  0.70322859  0.32677513
   0.92685304  0.76028608  0.41680812
   0.82809977  0.81361973  0.50734122
   0.77360113  0.93987390  0.55603155
   0.67142230  0.97901149  0.67110072
   0.57528038  0.09542899  0.75093839
   0.59042205  0.08546654  0.92046976
   0.51589364  0.16183332  0.99275580
   0.41964101  0.25491842  0.07885063
   0.33122118  0.33960182  0.16385385
   0.23771718  0.41856454  0.23378736
   0.14315508  0.50535021  0.32257954
   0.08732145  0.59899023  0.42324278
   0.02026011  0.66202991  0.50753061
   0.92741395  0.73871801  0.56431421
   0.84223220  0.81211171  0.63995592
   0.74318950  0.88624847  0.72620860
   0.65764711  0.00165844  0.81897653
   0.64529894  0.99153669  0.98944248
   0.56273757  0.11513759  0.09813698
   0.49329532  0.14663990  0.18388439
   0.43017094  0.25998112  0.23197850
   0.32251581  0.32284260  0.31643124
   0.22918515  0.40028028  0.39807217
   0.14562489  0.46888352  0.49237040
   0.09221068  0.58624149  0.61795738
   0.02614190  0.69619774  0.65775177
   0.92902311  0.74691353  0.72647115
   0.84910555  0.80474180  0.82055592
   0.73447789  0.90050832  0.89315364
   0.72039055  0.91403621  0.09727733
   0.65295396  0.01242323  0.16223853
   0.59210070  0.07779360  0.27032804
   0.49140780  0.17970300  0.36907244
   0.41731140  0.26767498  0.42970558
   0.33068324  0.34186751  0.49558896
   0.22095162  0.40042976  0.57113061
   0.17043379  0.46017329  0.66597292
   0.10708308  0.57462246  0.75791330
   0.01177327  0.67117292  0.83075035
   0.93929601  0.73669722  0.92708103
   0.84007218  0.86036115  0.99756782
   0.42210273  0.41440906  0.56745528
   0.33862109  0.47391821  0.66886235
   0.24828105  0.56147322  0.76496347
   0.18962836  0.65764730  0.84872671
   0.10376015  0.75455649  0.90987190
   0.00628622  0.84329570  0.00328948
   0.89778805  0.91522734  0.11000034
   0.82227451  0.00604464  0.16521082
   0.76844155  0.09510614  0.25320671
   0.69364123  0.18597442  0.32084535
   0.58013553  0.24266519  0.40455655
   0.50573813  0.33544039  0.48282774
   0.49438390  0.32854387  0.66762628
   0.42863055  0.39577199  0.74498291
   0.35002786  0.50206494  0.86186283
   0.23937953  0.57396613  0.93722123
   0.17626820  0.68234142  0.00626406
   0.11858460  0.75799251  0.07543217
   0.99092665  0.81601382  0.14721506
   0.90752748  0.90539722  0.22221961
   0.86068817  0.98702787  0.31487612
   0.76259453  0.07753647  0.41280437
   0.67199168  0.15333103  0.48685538
   0.57491497  0.21662579  0.57825520
   0.58350367  0.26752922  0.77220375
   0.49312162  0.37184822  0.85703935
   0.41874069  0.42667890  0.94128314
   0.32204332  0.51648965  0.01912521
   0.24418258  0.60195162  0.08375696
   0.17352808  0.68231613  0.18047750
   0.06928198  0.73236032  0.22906371
   0.03365770  0.84392149  0.30342982
   0.92942083  0.91619574  0.41156709
   0.83505060  0.00566965  0.47590806
   0.72469932  0.09215115  0.57890824
   0.64267772  0.16289358  0.68191466
   0.69555718  0.17029208  0.85587259
   0.59011230  0.25919695  0.87969228
   0.52980780  0.34722656  0.98873663
   0.42677730  0.42850206  0.05841144
   0.31217563  0.48483932  0.16784432
   0.23248194  0.59525138  0.24455937
   0.17881714  0.67917618  0.30953657
   0.10051133  0.74698477  0.41763368
   0.02773409  0.82289272  0.49607198
   0.92965669  0.89579897  0.56004718
   0.83111662  0.98829574  0.64776642
   0.75047831  0.09246838  0.73455641
   0.75089448  0.09696149  0.92977833
   0.67719814  0.20185846  0.99158945
   0.56838718  0.23737053  0.08486180
   0.49709795  0.35595331  0.13861566
   0.39948830  0.40629899  0.26926569
   0.31324919  0.50678543  0.33147326
   0.23331253  0.56509548  0.40924039
   0.17778110  0.63360318  0.51795941
   0.11400183  0.74337905  0.57835261
   0.04628857  0.82219856  0.65691797
   0.91408002  0.88699975  0.72335800
   0.80909908  0.95137617  0.81789564
   0.81785743  0.97174684  0.00005465
   0.74614763  0.07485195  0.05804684
   0.67880116  0.18602410  0.18785730
   0.54601951  0.25926722  0.21901267
   0.50516424  0.35658261  0.33210461
   0.39875725  0.42740890  0.41348957
   0.30139672  0.49301674  0.50681546
   0.22881413  0.54727205  0.60937049
   0.16710839  0.65974158  0.68266677
   0.10441644  0.72118536  0.75549650
   0.01228529  0.81087682  0.83161813
   0.94677073  0.93201000  0.91411627
