 432 432   0   0
  0.2356206E+02  0.2167200E-08  0.2167200E-08  0.2167200E-08  0.5000000E-15
  1.000000000000000E-004
  CAR 
 Li                                      
      2.97964439     -3.59104511  301      0.04617860      1.00000000
     -3.591  0.0000E+00  0.0000E+00
     -3.569  0.0000E+00  0.0000E+00
     -3.547  0.0000E+00  0.0000E+00
     -3.525  0.0000E+00  0.0000E+00
     -3.503  0.0000E+00  0.0000E+00
     -3.482  0.0000E+00  0.0000E+00
     -3.460  0.8364E-13  0.1832E-14
     -3.438  0.2058E-09  0.4509E-11
     -3.416  0.1785E-06  0.3915E-08
     -3.394  0.5471E-04  0.1202E-05
     -3.372  0.5969E-02  0.1319E-03
     -3.350  0.2344E+00  0.5266E-02
     -3.328  0.3356E+01  0.7877E-01
     -3.306  0.1778E+02  0.4682E+00
     -3.284  0.3529E+02  0.1241E+01
     -3.263  0.2641E+02  0.1820E+01
     -3.241  0.7551E+01  0.1985E+01
     -3.219  0.3423E+01  0.2060E+01
     -3.197  0.2210E+02  0.2544E+01
     -3.175  0.7387E+02  0.4162E+01
     -3.153  0.1018E+03  0.6391E+01
     -3.131  0.5832E+02  0.7668E+01
     -3.109  0.1415E+02  0.7978E+01
     -3.087  0.6863E+01  0.8128E+01
     -3.065  0.3474E+02  0.8889E+01
     -3.043  0.8858E+02  0.1083E+02
     -3.022  0.9434E+02  0.1290E+02
     -3.000  0.4216E+02  0.1382E+02
     -2.978  0.9482E+01  0.1403E+02
     -2.956  0.1781E+02  0.1442E+02
     -2.934  0.7158E+02  0.1598E+02
     -2.912  0.1288E+03  0.1881E+02
     -2.890  0.1032E+03  0.2107E+02
     -2.868  0.3720E+02  0.2188E+02
     -2.846  0.1308E+02  0.2217E+02
     -2.824  0.4676E+02  0.2319E+02
     -2.803  0.1330E+03  0.2610E+02
     -2.781  0.1847E+03  0.3015E+02
     -2.759  0.1266E+03  0.3292E+02
     -2.737  0.4249E+02  0.3385E+02
     -2.715  0.1244E+02  0.3412E+02
     -2.693  0.3443E+02  0.3488E+02
     -2.671  0.8477E+02  0.3674E+02
     -2.649  0.9315E+02  0.3878E+02
     -2.627  0.4565E+02  0.3978E+02
     -2.605  0.1373E+02  0.4008E+02
     -2.584  0.3197E+02  0.4078E+02
     -2.562  0.1048E+03  0.4307E+02
     -2.540  0.1748E+03  0.4690E+02
     -2.518  0.1523E+03  0.5024E+02
     -2.496  0.6757E+02  0.5172E+02
     -2.474  0.2866E+02  0.5234E+02
     -2.452  0.7689E+02  0.5403E+02
     -2.430  0.1826E+03  0.5803E+02
     -2.408  0.2440E+03  0.6337E+02
     -2.386  0.1927E+03  0.6759E+02
     -2.365  0.8730E+02  0.6950E+02
     -2.343  0.2488E+02  0.7005E+02
     -2.321  0.3144E+02  0.7074E+02
     -2.299  0.8039E+02  0.7250E+02
     -2.277  0.9561E+02  0.7459E+02
     -2.255  0.5147E+02  0.7572E+02
     -2.233  0.1915E+02  0.7614E+02
     -2.211  0.4457E+02  0.7712E+02
     -2.189  0.1286E+03  0.7993E+02
     -2.167  0.1988E+03  0.8429E+02
     -2.145  0.1678E+03  0.8796E+02
     -2.124  0.7622E+02  0.8963E+02
     -2.102  0.3027E+02  0.9029E+02
     -2.080  0.7373E+02  0.9191E+02
     -2.058  0.1811E+03  0.9587E+02
     -2.036  0.2459E+03  0.1013E+03
     -2.014  0.1945E+03  0.1055E+03
     -1.992  0.8914E+02  0.1075E+03
     -1.970  0.3192E+02  0.1082E+03
     -1.948  0.5751E+02  0.1094E+03
     -1.926  0.1385E+03  0.1125E+03
     -1.905  0.1777E+03  0.1164E+03
     -1.883  0.1207E+03  0.1190E+03
     -1.861  0.5072E+02  0.1201E+03
     -1.839  0.6089E+02  0.1214E+03
     -1.817  0.1481E+03  0.1247E+03
     -1.795  0.2366E+03  0.1299E+03
     -1.773  0.2244E+03  0.1348E+03
     -1.751  0.1165E+03  0.1373E+03
     -1.729  0.4747E+02  0.1384E+03
     -1.707  0.8635E+02  0.1403E+03
     -1.686  0.1885E+03  0.1444E+03
     -1.664  0.2440E+03  0.1497E+03
     -1.642  0.1868E+03  0.1538E+03
     -1.620  0.8114E+02  0.1556E+03
     -1.598  0.3137E+02  0.1563E+03
     -1.576  0.6837E+02  0.1578E+03
     -1.554  0.1487E+03  0.1611E+03
     -1.532  0.1715E+03  0.1648E+03
     -1.510  0.1068E+03  0.1671E+03
     -1.488  0.3709E+02  0.1680E+03
     -1.467  0.3063E+02  0.1686E+03
     -1.445  0.8994E+02  0.1706E+03
     -1.423  0.1573E+03  0.1740E+03
     -1.401  0.1580E+03  0.1775E+03
     -1.379  0.9988E+02  0.1797E+03
     -1.357  0.8956E+02  0.1817E+03
     -1.335  0.1822E+03  0.1856E+03
     -1.313  0.2945E+03  0.1921E+03
     -1.291  0.3334E+03  0.1994E+03
     -1.269  0.2721E+03  0.2054E+03
     -1.247  0.1571E+03  0.2088E+03
     -1.226  0.9517E+02  0.2109E+03
     -1.204  0.1463E+03  0.2141E+03
     -1.182  0.2215E+03  0.2189E+03
     -1.160  0.2148E+03  0.2236E+03
     -1.138  0.1358E+03  0.2266E+03
     -1.116  0.5778E+02  0.2279E+03
     -1.094  0.4914E+02  0.2290E+03
     -1.072  0.1231E+03  0.2317E+03
     -1.050  0.2006E+03  0.2360E+03
     -1.028  0.1749E+03  0.2399E+03
     -1.007  0.8498E+02  0.2417E+03
     -0.985  0.6550E+02  0.2432E+03
     -0.963  0.1592E+03  0.2467E+03
     -0.941  0.2735E+03  0.2527E+03
     -0.919  0.2935E+03  0.2591E+03
     -0.897  0.2110E+03  0.2637E+03
     -0.875  0.1130E+03  0.2662E+03
     -0.853  0.9061E+02  0.2682E+03
     -0.831  0.9667E+02  0.2703E+03
     -0.809  0.6009E+02  0.2716E+03
     -0.788  0.2664E+02  0.2722E+03
     -0.766  0.5812E+02  0.2735E+03
     -0.744  0.1612E+03  0.2770E+03
     -0.722  0.2617E+03  0.2827E+03
     -0.700  0.2807E+03  0.2889E+03
     -0.678  0.2360E+03  0.2940E+03
     -0.656  0.1835E+03  0.2980E+03
     -0.634  0.1520E+03  0.3014E+03
     -0.612  0.1629E+03  0.3049E+03
     -0.590  0.2180E+03  0.3097E+03
     -0.569  0.2659E+03  0.3155E+03
     -0.547  0.2926E+03  0.3220E+03
     -0.525  0.2622E+03  0.3277E+03
     -0.503  0.1662E+03  0.3313E+03
     -0.481  0.1043E+03  0.3336E+03
     -0.459  0.1154E+03  0.3361E+03
     -0.437  0.1341E+03  0.3391E+03
     -0.415  0.1317E+03  0.3420E+03
     -0.393  0.1145E+03  0.3445E+03
     -0.371  0.1566E+03  0.3479E+03
     -0.350  0.2517E+03  0.3534E+03
     -0.328  0.2991E+03  0.3600E+03
     -0.306  0.2953E+03  0.3664E+03
     -0.284  0.2767E+03  0.3725E+03
     -0.262  0.2209E+03  0.3773E+03
     -0.240  0.1470E+03  0.3806E+03
     -0.218  0.1494E+03  0.3838E+03
     -0.196  0.2022E+03  0.3883E+03
     -0.174  0.2294E+03  0.3933E+03
     -0.152  0.2253E+03  0.3982E+03
     -0.130  0.1764E+03  0.4021E+03
     -0.109  0.1145E+03  0.4046E+03
     -0.087  0.1137E+03  0.4071E+03
     -0.065  0.1346E+03  0.4100E+03
     -0.043  0.1684E+03  0.4137E+03
     -0.021  0.2209E+03  0.4186E+03
      0.001  0.2257E+03  0.4235E+03
      0.023  0.1927E+03  0.4277E+03
      0.045  0.1828E+03  0.4317E+03
      0.067  0.2135E+03  0.4364E+03
      0.089  0.2481E+03  0.4418E+03
      0.110  0.2647E+03  0.4476E+03
      0.132  0.2689E+03  0.4535E+03
      0.154  0.2437E+03  0.4589E+03
      0.176  0.1716E+03  0.4626E+03
      0.198  0.1204E+03  0.4652E+03
      0.220  0.1542E+03  0.4686E+03
      0.242  0.1956E+03  0.4729E+03
      0.264  0.2121E+03  0.4776E+03
      0.286  0.2416E+03  0.4828E+03
      0.308  0.2713E+03  0.4888E+03
      0.329  0.2925E+03  0.4952E+03
      0.351  0.3092E+03  0.5020E+03
      0.373  0.3000E+03  0.5085E+03
      0.395  0.2823E+03  0.5147E+03
      0.417  0.2893E+03  0.5211E+03
      0.439  0.3007E+03  0.5276E+03
      0.461  0.2906E+03  0.5340E+03
      0.483  0.2723E+03  0.5400E+03
      0.505  0.2650E+03  0.5458E+03
      0.527  0.2655E+03  0.5516E+03
      0.548  0.2590E+03  0.5573E+03
      0.570  0.2385E+03  0.5625E+03
      0.592  0.2252E+03  0.5674E+03
      0.614  0.2262E+03  0.5724E+03
      0.636  0.2300E+03  0.5774E+03
      0.658  0.2510E+03  0.5829E+03
      0.680  0.2734E+03  0.5889E+03
      0.702  0.2761E+03  0.5949E+03
      0.724  0.2633E+03  0.6007E+03
      0.746  0.2544E+03  0.6063E+03
      0.768  0.2544E+03  0.6119E+03
      0.789  0.2281E+03  0.6168E+03
      0.811  0.1765E+03  0.6207E+03
      0.833  0.1543E+03  0.6241E+03
      0.855  0.1840E+03  0.6281E+03
      0.877  0.2278E+03  0.6331E+03
      0.899  0.2516E+03  0.6386E+03
      0.921  0.2438E+03  0.6440E+03
      0.943  0.1997E+03  0.6483E+03
      0.965  0.1245E+03  0.6511E+03
      0.987  0.8064E+02  0.6528E+03
      1.008  0.1161E+03  0.6554E+03
      1.030  0.1637E+03  0.6590E+03
      1.052  0.1510E+03  0.6623E+03
      1.074  0.1124E+03  0.6647E+03
      1.096  0.1240E+03  0.6674E+03
      1.118  0.1693E+03  0.6711E+03
      1.140  0.1964E+03  0.6755E+03
      1.162  0.2078E+03  0.6800E+03
      1.184  0.2162E+03  0.6847E+03
      1.206  0.2021E+03  0.6892E+03
      1.227  0.1622E+03  0.6927E+03
      1.249  0.1348E+03  0.6957E+03
      1.271  0.1361E+03  0.6986E+03
      1.293  0.1493E+03  0.7019E+03
      1.315  0.1875E+03  0.7060E+03
      1.337  0.2316E+03  0.7111E+03
      1.359  0.2412E+03  0.7164E+03
      1.381  0.2101E+03  0.7210E+03
      1.403  0.1822E+03  0.7250E+03
      1.425  0.1929E+03  0.7292E+03
      1.446  0.2179E+03  0.7340E+03
      1.468  0.2252E+03  0.7389E+03
      1.490  0.2187E+03  0.7437E+03
      1.512  0.2116E+03  0.7483E+03
      1.534  0.1875E+03  0.7524E+03
      1.556  0.1626E+03  0.7560E+03
      1.578  0.1641E+03  0.7596E+03
      1.600  0.1709E+03  0.7633E+03
      1.622  0.1645E+03  0.7669E+03
      1.644  0.1475E+03  0.7702E+03
      1.666  0.1413E+03  0.7733E+03
      1.687  0.1542E+03  0.7766E+03
      1.709  0.1504E+03  0.7799E+03
      1.731  0.1120E+03  0.7824E+03
      1.753  0.6984E+02  0.7839E+03
      1.775  0.7435E+02  0.7855E+03
      1.797  0.1234E+03  0.7882E+03
      1.819  0.1445E+03  0.7914E+03
      1.841  0.1164E+03  0.7940E+03
      1.863  0.6602E+02  0.7954E+03
      1.885  0.2281E+02  0.7959E+03
      1.906  0.4279E+01  0.7960E+03
      1.928  0.5135E+01  0.7961E+03
      1.950  0.2945E+02  0.7968E+03
      1.972  0.7869E+02  0.7985E+03
      1.994  0.9506E+02  0.8006E+03
      2.016  0.5184E+02  0.8017E+03
      2.038  0.1243E+02  0.8020E+03
      2.060  0.1267E+01  0.8020E+03
      2.082  0.3213E+00  0.8020E+03
      2.104  0.3626E+01  0.8021E+03
      2.125  0.2105E+02  0.8025E+03
      2.147  0.6091E+02  0.8039E+03
      2.169  0.1060E+03  0.8062E+03
      2.191  0.1308E+03  0.8091E+03
      2.213  0.1280E+03  0.8119E+03
      2.235  0.1094E+03  0.8143E+03
      2.257  0.9478E+02  0.8163E+03
      2.279  0.9303E+02  0.8184E+03
      2.301  0.1162E+03  0.8209E+03
      2.323  0.1551E+03  0.8243E+03
      2.344  0.1723E+03  0.8281E+03
      2.366  0.1724E+03  0.8319E+03
      2.388  0.1757E+03  0.8357E+03
      2.410  0.1626E+03  0.8393E+03
      2.432  0.1217E+03  0.8419E+03
      2.454  0.8747E+02  0.8439E+03
      2.476  0.8247E+02  0.8457E+03
      2.498  0.6893E+02  0.8472E+03
      2.520  0.4350E+02  0.8481E+03
      2.542  0.5318E+02  0.8493E+03
      2.564  0.8262E+02  0.8511E+03
      2.585  0.1026E+03  0.8534E+03
      2.607  0.1259E+03  0.8561E+03
      2.629  0.1430E+03  0.8592E+03
      2.651  0.1379E+03  0.8623E+03
      2.673  0.1036E+03  0.8645E+03
      2.695  0.5134E+02  0.8657E+03
      2.717  0.1384E+02  0.8660E+03
      2.739  0.1747E+01  0.8660E+03
      2.761  0.9390E-01  0.8660E+03
      2.783  0.2022E-02  0.8660E+03
      2.804  0.1669E-04  0.8660E+03
      2.826  0.5112E-07  0.8660E+03
      2.848  0.5683E-10  0.8660E+03
      2.870  0.2028E-13  0.8660E+03
      2.892  0.0000E+00  0.8660E+03
      2.914  0.0000E+00  0.8660E+03
      2.936  0.0000E+00  0.8660E+03
      2.958  0.0000E+00  0.8660E+03
      2.980  0.0000E+00  0.8660E+03
