Li                                      
           1
    21.672000    0.000000    0.000000
     0.000000   21.672000    0.000000
     0.000000    0.000000   21.672000
   Li
   432
Direct configuration=     1
   0.99121235  0.99730707  0.00248109
   0.91694933  0.09389733  0.07266013
   0.82881585  0.16953948  0.16073545
   0.75617046  0.24306724  0.25379708
   0.67665457  0.34031018  0.33359283
   0.59311684  0.41161689  0.41850002
   0.50937453  0.51201151  0.49659297
   0.40199836  0.57191550  0.56882770
   0.32899076  0.65530982  0.65724530
   0.24923453  0.75072934  0.74895172
   0.17625596  0.82423682  0.85050707
   0.08132642  0.93148623  0.92930348
   0.09419545  0.93386624  0.08403992
   0.00052766  0.99833350  0.17843407
   0.92567138  0.07844044  0.25057019
   0.85210243  0.15859899  0.34227901
   0.76694504  0.25145656  0.41093719
   0.68155261  0.33281344  0.50248660
   0.59162103  0.42375388  0.56803257
   0.49398734  0.50863820  0.68442219
   0.39021868  0.57782958  0.74727468
   0.33330272  0.66891277  0.82077460
   0.26179104  0.74937717  0.91507657
   0.17150629  0.84019469  0.00845174
   0.17535638  0.81754963  0.16864764
   0.06563469  0.91174210  0.25518586
   0.99688660  0.99127138  0.32978553
   0.92217048  0.08034884  0.41340942
   0.83324003  0.16457478  0.48028139
   0.75010112  0.25128457  0.58555593
   0.66222689  0.34879888  0.66023949
   0.57179798  0.41963353  0.74658946
   0.49550525  0.49467246  0.84485023
   0.39654891  0.57329524  0.90976596
   0.31858957  0.66547409  0.00734203
   0.25219971  0.74302021  0.09023202
   0.24236632  0.76141421  0.25557676
   0.16365802  0.85744781  0.34052238
   0.07620346  0.91535563  0.43245767
   0.00888925  0.98605945  0.50860657
   0.90083862  0.07899670  0.56503089
   0.84633853  0.17342120  0.66247833
   0.74744944  0.26200126  0.74202396
   0.66054243  0.34689110  0.82554668
   0.58881423  0.41371905  0.92626891
   0.48720203  0.49555288  0.98792537
   0.40601342  0.57731780  0.07458012
   0.32074004  0.68304841  0.17881664
   0.33368189  0.67598408  0.32683314
   0.24234181  0.77132695  0.41006168
   0.15179160  0.83007912  0.51407721
   0.09124338  0.91098807  0.59118127
   0.00174849  0.00554495  0.65891645
   0.90987065  0.08337381  0.74672066
   0.82434525  0.17270104  0.83748131
   0.74521602  0.27874850  0.92128665
   0.68017342  0.34026104  0.99008916
   0.59107202  0.39202732  0.07103195
   0.49045692  0.49770608  0.16760132
   0.40571664  0.58256100  0.24460188
   0.40483592  0.59962688  0.42162516
   0.31403390  0.69097377  0.50679811
   0.22916077  0.74732906  0.59535755
   0.15997850  0.81653733  0.67220986
   0.08020723  0.91383664  0.74260421
   0.99951946  0.99988542  0.83443644
   0.91319443  0.08075227  0.91748329
   0.83869930  0.16685467  0.99654685
   0.75758460  0.25563094  0.07790791
   0.67574704  0.34113513  0.18277434
   0.57384703  0.42169279  0.25880594
   0.49910090  0.49410219  0.33435687
   0.08243921  0.09509981  0.93405127
   0.99907937  0.17948981  0.98475599
   0.92423013  0.24158109  0.08862550
   0.83706227  0.33489485  0.18787830
   0.76799442  0.42789174  0.24977288
   0.64728760  0.51238904  0.33114604
   0.57162635  0.57828815  0.41009681
   0.48835652  0.64822535  0.49670480
   0.41716886  0.74195783  0.56240141
   0.33012618  0.83434244  0.65954181
   0.24518357  0.92120686  0.76144920
   0.16878675  0.00484187  0.83136392
   0.18521431  0.00604421  0.99977206
   0.08001341  0.08865216  0.07954260
   0.98789579  0.17172939  0.18358678
   0.93590045  0.24524699  0.25860824
   0.83769975  0.33246153  0.32671904
   0.76765883  0.43304544  0.42243712
   0.66207124  0.51691556  0.50101678
   0.57526328  0.58761139  0.58329354
   0.47496294  0.65363158  0.65962472
   0.41045574  0.73576214  0.75089922
   0.34097748  0.83488534  0.83277825
   0.25979758  0.90908765  0.91817654
   0.25964484  0.91823489  0.08219354
   0.18559831  0.99792306  0.17840266
   0.09311668  0.08585185  0.24618983
   0.00797703  0.17653370  0.34717023
   0.91883982  0.25658380  0.42616077
   0.83522909  0.34180754  0.49125276
   0.74068840  0.43603368  0.58638461
   0.66644909  0.51183614  0.68032226
   0.58187440  0.59976866  0.74565982
   0.50575173  0.66604514  0.82876951
   0.41507504  0.73313533  0.91516629
   0.34570613  0.83754567  0.01371904
   0.33407251  0.82999795  0.17178685
   0.26050641  0.91537910  0.24027359
   0.17184043  0.99298479  0.33575085
   0.09328237  0.05585165  0.41341175
   0.00960999  0.14952813  0.49911378
   0.92154647  0.26565694  0.59355050
   0.81790000  0.35029594  0.66024156
   0.72773490  0.41430559  0.76155991
   0.66545876  0.49939123  0.82723523
   0.56892583  0.57312124  0.90929171
   0.48777539  0.64883838  0.98971988
   0.41683960  0.74111905  0.08368995
   0.42088708  0.74146569  0.25119607
   0.34668148  0.83033950  0.32632250
   0.25380037  0.91608601  0.41453853
   0.16200273  0.00092556  0.50648386
   0.08241537  0.08424275  0.57403238
   0.99154519  0.15062603  0.65236448
   0.90585767  0.25922766  0.74438885
   0.83083933  0.34000555  0.83317227
   0.74636163  0.42363153  0.92064507
   0.67361702  0.49393989  0.99834682
   0.57160647  0.59197209  0.07812277
   0.50186222  0.65482175  0.15362614
   0.48348891  0.66146943  0.32527187
   0.42743433  0.74923052  0.42648058
   0.31228596  0.82472709  0.49722530
   0.23791285  0.92146045  0.59055280
   0.15432784  0.00543175  0.67461639
   0.08028666  0.09571969  0.76145504
   0.99218547  0.17982984  0.84408367
   0.91377022  0.26553660  0.90682024
   0.84814201  0.34280217  0.00399702
   0.75321332  0.41790200  0.10999031
   0.66992230  0.51169685  0.16639846
   0.57661043  0.57384692  0.24964618
   0.17471978  0.16172590  0.84027469
   0.09638318  0.25295641  0.91540501
   0.00539423  0.33073589  0.00045589
   0.92684459  0.41152715  0.09067749
   0.83742568  0.49679279  0.17830970
   0.75803245  0.59661996  0.24209983
   0.66242815  0.65421828  0.32237007
   0.56821677  0.73810978  0.40825802
   0.50769740  0.83161620  0.49169069
   0.40943989  0.90834456  0.57868319
   0.32615655  0.00016522  0.67480666
   0.26077386  0.08068178  0.75609622
   0.24510580  0.08671069  0.89144888
   0.16903023  0.15431026  0.00221455
   0.08791960  0.24699159  0.09388214
   0.99479815  0.32592008  0.18271873
   0.93217619  0.43412025  0.25702666
   0.85266178  0.51640891  0.32894991
   0.75042952  0.58582598  0.41118871
   0.65616881  0.66178492  0.49415850
   0.57398905  0.74300965  0.58076127
   0.49628421  0.82947233  0.65820738
   0.40535667  0.92349466  0.74612003
   0.33192267  0.00103831  0.83167549
   0.35256734  0.02846250  0.98912788
   0.25615071  0.08378421  0.09579935
   0.18256098  0.16555593  0.19124225
   0.08704986  0.25117295  0.25888177
   0.99753033  0.33091170  0.35466895
   0.92838590  0.42124671  0.38884098
   0.85502554  0.50239858  0.49113338
   0.74375819  0.57831366  0.57902300
   0.67353738  0.65080818  0.67151974
   0.56976484  0.74386590  0.74120574
   0.49308412  0.83090219  0.83528100
   0.42415291  0.92791359  0.92982957
   0.41091930  0.93008171  0.07687960
   0.35556111  0.01566433  0.16514185
   0.25662442  0.07757829  0.26235872
   0.16751872  0.14731850  0.34900811
   0.09020196  0.26470045  0.41653420
   0.99880909  0.33116363  0.51451507
   0.91386762  0.41737588  0.59666383
   0.82603849  0.50682507  0.68778934
   0.74968152  0.58281790  0.77468016
   0.66408469  0.66613340  0.83957226
   0.57114716  0.75922629  0.91250688
   0.49359379  0.82535611  0.00865913
   0.51455787  0.84082629  0.15433118
   0.42805870  0.90897131  0.23006268
   0.34376708  0.99904359  0.34267643
   0.26260793  0.07347604  0.43372022
   0.16790864  0.17326338  0.51234374
   0.09764379  0.23304331  0.59788016
   0.99934910  0.33937026  0.67189087
   0.91674642  0.40680078  0.74649881
   0.82183088  0.49193738  0.82915339
   0.74771880  0.59056185  0.92475571
   0.67071268  0.64614897  0.99444847
   0.57704813  0.74629681  0.06545400
   0.57451442  0.74126034  0.25696725
   0.49456200  0.81812013  0.32626234
   0.42104286  0.89685618  0.41336209
   0.34317309  0.99398478  0.50316629
   0.26651186  0.06501176  0.59345908
   0.18328824  0.15384172  0.67843060
   0.06375163  0.24475763  0.73676282
   0.99681742  0.31957358  0.83726342
   0.91983990  0.42115527  0.91619387
   0.81905294  0.47989433  0.00924186
   0.74826218  0.57878559  0.07184442
   0.66253271  0.65514931  0.16780926
   0.24490631  0.23969213  0.73441798
   0.17930001  0.33270658  0.82684720
   0.08248537  0.42134812  0.91449745
   0.01048035  0.48264113  0.00288198
   0.90951430  0.56104273  0.07431176
   0.82354338  0.67031512  0.15051584
   0.74272029  0.75022423  0.24358622
   0.66195214  0.82169481  0.33759654
   0.59623812  0.91104358  0.40492840
   0.51665176  0.99010913  0.48239928
   0.42681338  0.09099905  0.57296380
   0.35193460  0.16819992  0.66959913
   0.34071794  0.17672765  0.82399705
   0.24398983  0.24156685  0.92382563
   0.16732600  0.33924444  0.98947814
   0.07528037  0.39959726  0.09124315
   0.01089588  0.49248904  0.17068034
   0.93075390  0.60279573  0.25302540
   0.83217600  0.67376940  0.33021346
   0.75128745  0.74730329  0.41769239
   0.65356456  0.82008149  0.50481395
   0.59385737  0.91149977  0.56837439
   0.49548205  0.99442270  0.67027524
   0.42969338  0.08623242  0.73811783
   0.43951936  0.08034735  0.90188716
   0.33762375  0.15422057  0.98544375
   0.24465606  0.24111082  0.09018315
   0.18697245  0.32698717  0.18021117
   0.08856047  0.39441392  0.25548202
   0.01246216  0.50287933  0.32398006
   0.91201464  0.59661110  0.40602365
   0.83639464  0.66323952  0.50227432
   0.75401116  0.75276649  0.57494365
   0.68531329  0.84899359  0.66247316
   0.57721033  0.90594064  0.72591484
   0.50544987  0.99249621  0.82988456
   0.51447096  0.01880293  0.01316940
   0.42328023  0.09358031  0.08531217
   0.33000244  0.16203375  0.19457331
   0.25806742  0.23826375  0.26744500
   0.17492754  0.32558307  0.33047843
   0.08487941  0.41300714  0.41886534
   0.99082266  0.51119636  0.48307102
   0.90371179  0.57240771  0.58852641
   0.82299719  0.67547274  0.66750095
   0.74045668  0.74885363  0.74623418
   0.67141637  0.84483391  0.82613599
   0.57891610  0.91415061  0.92217108
   0.58136524  0.92704917  0.07260562
   0.50238625  0.00778725  0.16838592
   0.42028610  0.09620515  0.25871231
   0.33453977  0.17360627  0.35819500
   0.25110083  0.24415899  0.41146259
   0.16225960  0.31904185  0.50719993
   0.08409057  0.42334536  0.56743755
   0.99935750  0.50603504  0.67673022
   0.92973198  0.58747866  0.76707368
   0.83358249  0.67921683  0.84265770
   0.74493526  0.74918917  0.91731082
   0.66598186  0.83442524  0.00115842
   0.65120135  0.82164730  0.16676418
   0.57545829  0.91468485  0.26021231
   0.48602999  0.99762955  0.33821060
   0.40743908  0.07607908  0.43246779
   0.33719964  0.16504443  0.50217516
   0.23592427  0.25764506  0.58921333
   0.16428090  0.35180376  0.67366130
   0.09936540  0.42700918  0.76023876
   0.00069813  0.47783624  0.83741634
   0.91876536  0.56755076  0.93741309
   0.83491866  0.66628587  0.99440188
   0.73240616  0.74479029  0.07153828
   0.34607729  0.33625879  0.67840916
   0.25616114  0.41250275  0.74093226
   0.17874633  0.49930150  0.82268524
   0.07978488  0.55623565  0.91236316
   0.00951917  0.64175132  0.99482258
   0.93868537  0.74648223  0.06233892
   0.81758946  0.82336801  0.14731971
   0.74202178  0.91832819  0.25010507
   0.68419187  0.00566329  0.33730470
   0.57709993  0.06835584  0.40683902
   0.50843844  0.16668689  0.50251947
   0.43087665  0.25777470  0.58471333
   0.43646253  0.24687583  0.75511395
   0.32567108  0.32243566  0.83179866
   0.26429631  0.41743622  0.91184688
   0.17869703  0.49304222  0.01040181
   0.08521558  0.57372125  0.08549628
   0.99929095  0.68905842  0.15075184
   0.90793823  0.75237360  0.22938113
   0.81343726  0.82520845  0.31610090
   0.75606797  0.91153130  0.40654242
   0.66141296  0.00054588  0.48030859
   0.59177814  0.06722216  0.56753945
   0.51127564  0.16732038  0.65870305
   0.50440251  0.17583351  0.81574082
   0.40636438  0.23070418  0.90938514
   0.32399638  0.32059888  0.99944318
   0.25533790  0.42871654  0.10871993
   0.16550100  0.48754505  0.18703248
   0.07541502  0.59540316  0.23787735
   0.99942709  0.67242548  0.33137763
   0.92183458  0.76146568  0.41513117
   0.83173788  0.83703177  0.50328548
   0.74920539  0.91175180  0.55063443
   0.66987701  0.99366928  0.66030844
   0.57954053  0.08517730  0.73908290
   0.58095641  0.09477007  0.92166638
   0.50027387  0.17666026  0.00121968
   0.39914283  0.24969260  0.08299614
   0.32916969  0.32836633  0.17283694
   0.26540530  0.43252719  0.26313140
   0.16445430  0.51258966  0.32910652
   0.09611575  0.57079613  0.42818129
   0.99777414  0.67003091  0.48793643
   0.90868336  0.73811516  0.58387392
   0.83581291  0.82776103  0.65220075
   0.76795958  0.92550424  0.74935086
   0.67179948  0.99462450  0.82826315
   0.65456751  0.01841406  0.99380764
   0.58952636  0.08524029  0.08436685
   0.51520675  0.16604155  0.17447713
   0.40217817  0.25356035  0.26134253
   0.33325097  0.33145272  0.34611769
   0.25795219  0.41300595  0.41744737
   0.17240820  0.49834306  0.49207594
   0.08115812  0.59239152  0.56766604
   0.99394156  0.66400451  0.65775875
   0.92716056  0.74650449  0.75275802
   0.83099608  0.82364844  0.85265578
   0.73052147  0.92110138  0.91401770
   0.72877468  0.93203563  0.08904641
   0.66574304  0.00315341  0.16765700
   0.57780938  0.07854996  0.26012677
   0.49683676  0.17340046  0.35879284
   0.42589177  0.24984572  0.42819538
   0.32743954  0.32997365  0.50421006
   0.23923262  0.41645442  0.58237250
   0.16665510  0.50896531  0.64941809
   0.06934986  0.57400587  0.75618110
   0.98844418  0.66101889  0.84889668
   0.94328390  0.74296270  0.93558882
   0.82522391  0.83357775  0.98722936
   0.41838992  0.43284841  0.57959727
   0.32501140  0.49731674  0.66258799
   0.24516172  0.57589339  0.75029978
   0.17116321  0.67272416  0.82351898
   0.08856219  0.73321622  0.92090948
   0.01972915  0.82581024  0.00304123
   0.90655867  0.92389882  0.08479499
   0.82150515  0.01855261  0.17380020
   0.74778516  0.09945397  0.25140869
   0.67872565  0.17135857  0.34557541
   0.58618830  0.25795640  0.43203279
   0.50902146  0.34065200  0.50192638
   0.50884211  0.34628242  0.65611079
   0.41686653  0.40658313  0.74609477
   0.33046570  0.48078165  0.82352490
   0.24984540  0.58807311  0.92501128
   0.18055591  0.65131685  0.99469683
   0.08684289  0.74436845  0.08261688
   0.99195067  0.83450141  0.15034941
   0.91581326  0.91203491  0.22403749
   0.84133071  0.01754927  0.31700531
   0.75348827  0.07042247  0.41197588
   0.66488756  0.15999225  0.49925616
   0.59386148  0.26351810  0.58954395
   0.59099681  0.25534490  0.74705767
   0.49554610  0.32497359  0.83852721
   0.41448807  0.40350863  0.92690915
   0.33817604  0.49844307  0.00235645
   0.23853617  0.57612412  0.09198392
   0.16011115  0.66378860  0.16629462
   0.07049505  0.75650549  0.24809794
   0.98981627  0.82926334  0.32015056
   0.91781594  0.92207061  0.40532867
   0.83953166  0.98280014  0.47666403
   0.75016043  0.08169697  0.57546995
   0.66623666  0.16394950  0.66513827
   0.67545671  0.17845131  0.82601137
   0.58812584  0.24664893  0.91845350
   0.48631662  0.32657614  0.99797518
   0.40182782  0.40931616  0.08340086
   0.34232283  0.50640852  0.17368288
   0.25652238  0.57817447  0.26064448
   0.18158630  0.67025039  0.31480089
   0.09134996  0.76286764  0.40050269
   0.99687899  0.83797061  0.49770650
   0.91091000  0.91799519  0.58139470
   0.83073731  0.00709219  0.65446615
   0.74890640  0.08104430  0.74158160
   0.73040372  0.09319984  0.92030643
   0.66865597  0.17810141  0.00536501
   0.58621520  0.26716254  0.08527213
   0.48612873  0.33174250  0.16762993
   0.42037161  0.41875159  0.26341186
   0.33834353  0.49816894  0.34561628
   0.24159247  0.59303826  0.42581906
   0.16204192  0.68402287  0.48702089
   0.05795737  0.75380944  0.58256491
   0.99172847  0.84060191  0.65171238
   0.89976532  0.92724037  0.75203882
   0.82810994  0.00654985  0.83131395
   0.81060907  0.01934879  0.01051620
   0.72697070  0.09377943  0.08321081
   0.67407897  0.17076024  0.18153631
   0.57330067  0.26361615  0.25987058
   0.49642891  0.33610164  0.33897775
   0.42035004  0.42741964  0.43178946
   0.33580044  0.48717632  0.49593483
   0.25796135  0.56640826  0.56649501
   0.16348728  0.66151948  0.67388414
   0.07606280  0.74829673  0.75036662
   0.99683445  0.83381229  0.83746768
   0.90349009  0.92815133  0.91928507
