 432 432   0   0
  0.2035379E+02  0.2064000E-08  0.2064000E-08  0.2064000E-08  0.5000000E-15
  1.000000000000000E-004
  CAR 
 Li                                      
      3.47470315     -3.43548711  301      0.38706074      1.00000000
     -3.435  0.0000E+00  0.0000E+00
     -3.412  0.0000E+00  0.0000E+00
     -3.389  0.0000E+00  0.0000E+00
     -3.366  0.0000E+00  0.0000E+00
     -3.343  0.0000E+00  0.0000E+00
     -3.320  0.0000E+00  0.0000E+00
     -3.297  0.4820E-14  0.1110E-15
     -3.274  0.2355E-10  0.5426E-12
     -3.251  0.3852E-07  0.8879E-09
     -3.228  0.1990E-04  0.4594E-06
     -3.205  0.3279E-02  0.7598E-04
     -3.182  0.1744E+00  0.4093E-02
     -3.159  0.3046E+01  0.7425E-01
     -3.136  0.1781E+02  0.4844E+00
     -3.113  0.3545E+02  0.1301E+01
     -3.090  0.2424E+02  0.1859E+01
     -3.067  0.5848E+01  0.1994E+01
     -3.044  0.4036E+01  0.2087E+01
     -3.021  0.2543E+02  0.2673E+01
     -2.998  0.7199E+02  0.4331E+01
     -2.975  0.9015E+02  0.6407E+01
     -2.952  0.5324E+02  0.7634E+01
     -2.929  0.1493E+02  0.7978E+01
     -2.906  0.9526E+01  0.8197E+01
     -2.883  0.3866E+02  0.9088E+01
     -2.860  0.8179E+02  0.1097E+02
     -2.837  0.8275E+02  0.1288E+02
     -2.814  0.3990E+02  0.1380E+02
     -2.791  0.1081E+02  0.1405E+02
     -2.768  0.2201E+02  0.1455E+02
     -2.744  0.7224E+02  0.1622E+02
     -2.721  0.1134E+03  0.1883E+02
     -2.698  0.9301E+02  0.2097E+02
     -2.675  0.3842E+02  0.2186E+02
     -2.652  0.1522E+02  0.2221E+02
     -2.629  0.4842E+02  0.2332E+02
     -2.606  0.1211E+03  0.2611E+02
     -2.583  0.1595E+03  0.2979E+02
     -2.560  0.1207E+03  0.3257E+02
     -2.537  0.5119E+02  0.3375E+02
     -2.514  0.1521E+02  0.3410E+02
     -2.491  0.3022E+02  0.3479E+02
     -2.468  0.7653E+02  0.3655E+02
     -2.445  0.9024E+02  0.3863E+02
     -2.422  0.4826E+02  0.3974E+02
     -2.399  0.1794E+02  0.4016E+02
     -2.376  0.4080E+02  0.4110E+02
     -2.353  0.9948E+02  0.4339E+02
     -2.330  0.1389E+03  0.4659E+02
     -2.307  0.1287E+03  0.4955E+02
     -2.284  0.7986E+02  0.5139E+02
     -2.261  0.4449E+02  0.5242E+02
     -2.238  0.8327E+02  0.5434E+02
     -2.215  0.1582E+03  0.5798E+02
     -2.192  0.1894E+03  0.6234E+02
     -2.169  0.1700E+03  0.6626E+02
     -2.146  0.1118E+03  0.6883E+02
     -2.123  0.4626E+02  0.6990E+02
     -2.100  0.3048E+02  0.7060E+02
     -2.076  0.6572E+02  0.7211E+02
     -2.053  0.8945E+02  0.7417E+02
     -2.030  0.6008E+02  0.7556E+02
     -2.007  0.2599E+02  0.7616E+02
     -1.984  0.4667E+02  0.7723E+02
     -1.961  0.1123E+03  0.7982E+02
     -1.938  0.1619E+03  0.8355E+02
     -1.915  0.1520E+03  0.8705E+02
     -1.892  0.9288E+02  0.8919E+02
     -1.869  0.4564E+02  0.9024E+02
     -1.846  0.7240E+02  0.9190E+02
     -1.823  0.1482E+03  0.9532E+02
     -1.800  0.1929E+03  0.9976E+02
     -1.777  0.1827E+03  0.1040E+03
     -1.754  0.1219E+03  0.1068E+03
     -1.731  0.5643E+02  0.1081E+03
     -1.708  0.5946E+02  0.1094E+03
     -1.685  0.1163E+03  0.1121E+03
     -1.662  0.1481E+03  0.1155E+03
     -1.639  0.1217E+03  0.1183E+03
     -1.616  0.7123E+02  0.1200E+03
     -1.593  0.7462E+02  0.1217E+03
     -1.570  0.1349E+03  0.1248E+03
     -1.547  0.1811E+03  0.1290E+03
     -1.524  0.1835E+03  0.1332E+03
     -1.501  0.1353E+03  0.1363E+03
     -1.478  0.7336E+02  0.1380E+03
     -1.455  0.7556E+02  0.1397E+03
     -1.432  0.1425E+03  0.1430E+03
     -1.408  0.2021E+03  0.1477E+03
     -1.385  0.1969E+03  0.1522E+03
     -1.362  0.1200E+03  0.1550E+03
     -1.339  0.4928E+02  0.1561E+03
     -1.316  0.5434E+02  0.1574E+03
     -1.293  0.1103E+03  0.1599E+03
     -1.270  0.1457E+03  0.1633E+03
     -1.247  0.1230E+03  0.1661E+03
     -1.224  0.6818E+02  0.1677E+03
     -1.201  0.5048E+02  0.1688E+03
     -1.178  0.9228E+02  0.1710E+03
     -1.155  0.1373E+03  0.1741E+03
     -1.132  0.1393E+03  0.1773E+03
     -1.109  0.1062E+03  0.1798E+03
     -1.086  0.1055E+03  0.1822E+03
     -1.063  0.1657E+03  0.1860E+03
     -1.040  0.2299E+03  0.1913E+03
     -1.017  0.2557E+03  0.1972E+03
     -0.994  0.2399E+03  0.2027E+03
     -0.971  0.1957E+03  0.2072E+03
     -0.948  0.1423E+03  0.2105E+03
     -0.925  0.1360E+03  0.2137E+03
     -0.902  0.1671E+03  0.2175E+03
     -0.879  0.1773E+03  0.2216E+03
     -0.856  0.1501E+03  0.2250E+03
     -0.833  0.9961E+02  0.2273E+03
     -0.810  0.7267E+02  0.2290E+03
     -0.787  0.1076E+03  0.2315E+03
     -0.764  0.1521E+03  0.2350E+03
     -0.741  0.1589E+03  0.2387E+03
     -0.717  0.1190E+03  0.2414E+03
     -0.694  0.9982E+02  0.2437E+03
     -0.671  0.1501E+03  0.2472E+03
     -0.648  0.2002E+03  0.2518E+03
     -0.625  0.2134E+03  0.2567E+03
     -0.602  0.1960E+03  0.2612E+03
     -0.579  0.1534E+03  0.2647E+03
     -0.556  0.1172E+03  0.2674E+03
     -0.533  0.1021E+03  0.2698E+03
     -0.510  0.7449E+02  0.2715E+03
     -0.487  0.5892E+02  0.2729E+03
     -0.464  0.1053E+03  0.2753E+03
     -0.441  0.1686E+03  0.2792E+03
     -0.418  0.2045E+03  0.2839E+03
     -0.395  0.2187E+03  0.2889E+03
     -0.372  0.2130E+03  0.2938E+03
     -0.349  0.1836E+03  0.2980E+03
     -0.326  0.1618E+03  0.3018E+03
     -0.303  0.1706E+03  0.3057E+03
     -0.280  0.1873E+03  0.3100E+03
     -0.257  0.2056E+03  0.3147E+03
     -0.234  0.2264E+03  0.3200E+03
     -0.211  0.2290E+03  0.3252E+03
     -0.188  0.1911E+03  0.3296E+03
     -0.165  0.1397E+03  0.3329E+03
     -0.142  0.1330E+03  0.3359E+03
     -0.119  0.1478E+03  0.3393E+03
     -0.096  0.1531E+03  0.3429E+03
     -0.073  0.1544E+03  0.3464E+03
     -0.049  0.1795E+03  0.3505E+03
     -0.026  0.2165E+03  0.3555E+03
     -0.003  0.2288E+03  0.3608E+03
      0.020  0.2286E+03  0.3661E+03
      0.043  0.2294E+03  0.3713E+03
      0.066  0.2056E+03  0.3761E+03
      0.089  0.1763E+03  0.3801E+03
      0.112  0.1714E+03  0.3841E+03
      0.135  0.1743E+03  0.3881E+03
      0.158  0.1696E+03  0.3920E+03
      0.181  0.1783E+03  0.3961E+03
      0.204  0.1822E+03  0.4003E+03
      0.227  0.1614E+03  0.4040E+03
      0.250  0.1466E+03  0.4074E+03
      0.273  0.1576E+03  0.4110E+03
      0.296  0.1765E+03  0.4151E+03
      0.319  0.1867E+03  0.4194E+03
      0.342  0.1827E+03  0.4236E+03
      0.365  0.1843E+03  0.4279E+03
      0.388  0.1887E+03  0.4322E+03
      0.411  0.1936E+03  0.4367E+03
      0.434  0.2021E+03  0.4413E+03
      0.457  0.2049E+03  0.4460E+03
      0.480  0.2019E+03  0.4507E+03
      0.503  0.1964E+03  0.4552E+03
      0.526  0.1926E+03  0.4597E+03
      0.549  0.1966E+03  0.4642E+03
      0.572  0.2042E+03  0.4689E+03
      0.595  0.2096E+03  0.4737E+03
      0.618  0.2127E+03  0.4786E+03
      0.642  0.2142E+03  0.4835E+03
      0.665  0.2202E+03  0.4886E+03
      0.688  0.2199E+03  0.4937E+03
      0.711  0.2090E+03  0.4985E+03
      0.734  0.2148E+03  0.5034E+03
      0.757  0.2422E+03  0.5090E+03
      0.780  0.2533E+03  0.5149E+03
      0.803  0.2414E+03  0.5204E+03
      0.826  0.2378E+03  0.5259E+03
      0.849  0.2372E+03  0.5314E+03
      0.872  0.2269E+03  0.5366E+03
      0.895  0.2292E+03  0.5419E+03
      0.918  0.2288E+03  0.5471E+03
      0.941  0.2182E+03  0.5522E+03
      0.964  0.2097E+03  0.5570E+03
      0.987  0.2092E+03  0.5618E+03
      1.010  0.2122E+03  0.5667E+03
      1.033  0.2174E+03  0.5717E+03
      1.056  0.2111E+03  0.5766E+03
      1.079  0.2036E+03  0.5813E+03
      1.102  0.2047E+03  0.5860E+03
      1.125  0.2094E+03  0.5908E+03
      1.148  0.2145E+03  0.5957E+03
      1.171  0.2032E+03  0.6004E+03
      1.194  0.1927E+03  0.6049E+03
      1.217  0.1941E+03  0.6093E+03
      1.240  0.1864E+03  0.6136E+03
      1.263  0.1788E+03  0.6177E+03
      1.286  0.1798E+03  0.6219E+03
      1.310  0.1785E+03  0.6260E+03
      1.333  0.1729E+03  0.6300E+03
      1.356  0.1661E+03  0.6338E+03
      1.379  0.1613E+03  0.6375E+03
      1.402  0.1628E+03  0.6413E+03
      1.425  0.1614E+03  0.6450E+03
      1.448  0.1569E+03  0.6486E+03
      1.471  0.1512E+03  0.6521E+03
      1.494  0.1513E+03  0.6556E+03
      1.517  0.1489E+03  0.6590E+03
      1.540  0.1487E+03  0.6624E+03
      1.563  0.1670E+03  0.6663E+03
      1.586  0.1782E+03  0.6704E+03
      1.609  0.1726E+03  0.6743E+03
      1.632  0.1652E+03  0.6782E+03
      1.655  0.1603E+03  0.6818E+03
      1.678  0.1707E+03  0.6858E+03
      1.701  0.1848E+03  0.6900E+03
      1.724  0.1828E+03  0.6942E+03
      1.747  0.1823E+03  0.6984E+03
      1.770  0.1844E+03  0.7027E+03
      1.793  0.1806E+03  0.7068E+03
      1.816  0.1738E+03  0.7109E+03
      1.839  0.1680E+03  0.7147E+03
      1.862  0.1720E+03  0.7187E+03
      1.885  0.1834E+03  0.7229E+03
      1.908  0.1902E+03  0.7273E+03
      1.931  0.1746E+03  0.7313E+03
      1.954  0.1625E+03  0.7351E+03
      1.977  0.1719E+03  0.7390E+03
      2.001  0.1695E+03  0.7429E+03
      2.024  0.1541E+03  0.7465E+03
      2.047  0.1496E+03  0.7499E+03
      2.070  0.1484E+03  0.7533E+03
      2.093  0.1443E+03  0.7567E+03
      2.116  0.1367E+03  0.7598E+03
      2.139  0.1275E+03  0.7627E+03
      2.162  0.1301E+03  0.7657E+03
      2.185  0.1339E+03  0.7688E+03
      2.208  0.1304E+03  0.7718E+03
      2.231  0.1252E+03  0.7747E+03
      2.254  0.1193E+03  0.7775E+03
      2.277  0.1168E+03  0.7802E+03
      2.300  0.1143E+03  0.7828E+03
      2.323  0.1056E+03  0.7852E+03
      2.346  0.9753E+02  0.7875E+03
      2.369  0.9799E+02  0.7897E+03
      2.392  0.1007E+03  0.7920E+03
      2.415  0.8694E+02  0.7940E+03
      2.438  0.5647E+02  0.7953E+03
      2.461  0.2880E+02  0.7960E+03
      2.484  0.3255E+02  0.7968E+03
      2.507  0.6312E+02  0.7982E+03
      2.530  0.8137E+02  0.8001E+03
      2.553  0.7120E+02  0.8017E+03
      2.576  0.6209E+02  0.8032E+03
      2.599  0.6737E+02  0.8047E+03
      2.622  0.6574E+02  0.8062E+03
      2.645  0.6857E+02  0.8078E+03
      2.669  0.8789E+02  0.8098E+03
      2.692  0.1044E+03  0.8122E+03
      2.715  0.1128E+03  0.8148E+03
      2.738  0.1143E+03  0.8175E+03
      2.761  0.1177E+03  0.8202E+03
      2.784  0.1191E+03  0.8229E+03
      2.807  0.1290E+03  0.8259E+03
      2.830  0.1366E+03  0.8290E+03
      2.853  0.1335E+03  0.8321E+03
      2.876  0.1249E+03  0.8350E+03
      2.899  0.1226E+03  0.8378E+03
      2.922  0.1193E+03  0.8406E+03
      2.945  0.1031E+03  0.8429E+03
      2.968  0.9636E+02  0.8452E+03
      2.991  0.1016E+03  0.8475E+03
      3.014  0.1008E+03  0.8498E+03
      3.037  0.9934E+02  0.8521E+03
      3.060  0.1041E+03  0.8545E+03
      3.083  0.1043E+03  0.8569E+03
      3.106  0.1124E+03  0.8595E+03
      3.129  0.1204E+03  0.8623E+03
      3.152  0.9461E+02  0.8644E+03
      3.175  0.5031E+02  0.8656E+03
      3.198  0.1513E+02  0.8660E+03
      3.221  0.1952E+01  0.8660E+03
      3.244  0.9256E-01  0.8660E+03
      3.267  0.1510E-02  0.8660E+03
      3.290  0.8207E-05  0.8660E+03
      3.313  0.1457E-07  0.8660E+03
      3.336  0.8338E-11  0.8660E+03
      3.360  0.0000E+00  0.8660E+03
      3.383  0.0000E+00  0.8660E+03
      3.406  0.0000E+00  0.8660E+03
      3.429  0.0000E+00  0.8660E+03
      3.452  0.0000E+00  0.8660E+03
      3.475  0.0000E+00  0.8660E+03
