       N       E                     dE             d eps       ncg     rms          rms(c)
DAV:   1    -0.220876603325E+03   -0.22088E+03   -0.10485E+05  3464   0.656E+02
DAV:   2    -0.746120692818E+03   -0.52524E+03   -0.47911E+03  3996   0.675E+01
DAV:   3    -0.784477266658E+03   -0.38357E+02   -0.35068E+02  4448   0.144E+01
DAV:   4    -0.785783486406E+03   -0.13062E+01   -0.12880E+01  4032   0.292E+00
DAV:   5    -0.785814631146E+03   -0.31145E-01   -0.31098E-01  4184   0.473E-01    0.106E+01
DAV:   6    -0.778023430786E+03    0.77912E+01   -0.14121E+01  4080   0.532E+00    0.766E+00
DAV:   7    -0.772101427854E+03    0.59220E+01   -0.11450E+01  4128   0.491E+00    0.505E+00
DAV:   8    -0.769101935260E+03    0.29995E+01   -0.60193E+00  4016   0.270E+00    0.253E+00
DAV:   9    -0.768703627936E+03    0.39831E+00   -0.31146E+00  3808   0.145E+00    0.129E+00
DAV:  10    -0.768752885203E+03   -0.49257E-01   -0.61340E-01  4048   0.833E-01    0.107E+00
DAV:  11    -0.768638496726E+03    0.11439E+00   -0.22683E-01  3976   0.563E-01    0.573E-01
DAV:  12    -0.768626492119E+03    0.12005E-01   -0.68673E-02  3784   0.230E-01    0.275E-01
DAV:  13    -0.768627858647E+03   -0.13665E-02   -0.16537E-02  4144   0.153E-01    0.205E-01
DAV:  14    -0.768624383777E+03    0.34749E-02   -0.67386E-03  4040   0.108E-01    0.109E-01
DAV:  15    -0.768623711270E+03    0.67251E-03   -0.22769E-03  3960   0.517E-02    0.522E-02
DAV:  16    -0.768623656788E+03    0.54481E-04   -0.87486E-04  3824   0.276E-02    0.258E-02
DAV:  17    -0.768623630173E+03    0.26616E-04   -0.17524E-04  4064   0.163E-02    0.189E-02
DAV:  18    -0.768623592089E+03    0.38084E-04   -0.53644E-05  3936   0.872E-03    0.804E-03
DAV:  19    -0.768623586600E+03    0.54892E-05   -0.20742E-05  2520   0.474E-03
   1 F= -.76862359E+03 E0= -.76858077E+03  d E =-.856428E-01
