Li                                      
           1
    20.640000    0.000000    0.000000
     0.000000   20.640000    0.000000
     0.000000    0.000000   20.640000
   Li
   432
Direct configuration=     1
   0.03121598  0.99128796  0.99612672
   0.93724900  0.11458733  0.07208197
   0.82824800  0.16214604  0.15335948
   0.75762167  0.24318409  0.23652619
   0.70003165  0.34567445  0.34792171
   0.57992137  0.40544842  0.41034760
   0.47124765  0.46877653  0.51322206
   0.40870065  0.58775394  0.58121056
   0.32270102  0.69253176  0.67380241
   0.23640332  0.78394208  0.77774813
   0.14942327  0.83873151  0.86928856
   0.09789986  0.90681138  0.91779921
   0.09173751  0.89274503  0.08384145
   0.03026606  0.02466739  0.16748121
   0.93782416  0.07630145  0.21921969
   0.84703344  0.16188068  0.34738841
   0.75425339  0.22354709  0.42767898
   0.66188920  0.32779757  0.51540490
   0.58426877  0.42892913  0.59919146
   0.47583721  0.51000735  0.69024798
   0.37649479  0.61472137  0.75953489
   0.28085622  0.68249216  0.86389392
   0.27190771  0.78087900  0.93614491
   0.17953706  0.84146839  0.98745130
   0.18420136  0.82517756  0.18415426
   0.07466371  0.91991956  0.23154802
   0.01865167  0.01988145  0.29645166
   0.93686111  0.09526668  0.42542613
   0.82176213  0.16731917  0.51184939
   0.72419224  0.25137982  0.62308627
   0.66106590  0.30830788  0.67819240
   0.58075256  0.39575305  0.70682006
   0.48368121  0.49300739  0.81645060
   0.40168257  0.59009428  0.87455060
   0.33941864  0.64651289  0.99937225
   0.28051053  0.75865732  0.07929889
   0.26810470  0.74158210  0.25990620
   0.15551546  0.82937971  0.31437663
   0.09367295  0.91428628  0.38066937
   0.01661859  0.02061764  0.47987891
   0.91803824  0.09369701  0.57619276
   0.80888846  0.14335142  0.68688035
   0.71656570  0.24278489  0.76501614
   0.62233099  0.34040849  0.82012413
   0.58555495  0.40902205  0.91592441
   0.48618287  0.50057966  0.99037033
   0.41510239  0.58910605  0.10735491
   0.33887567  0.64649656  0.16995588
   0.34142378  0.64072591  0.34186887
   0.25822563  0.73389054  0.41250551
   0.16996823  0.83830777  0.48759019
   0.08259785  0.90093105  0.57784428
   0.98318044  0.98272172  0.66168825
   0.91895424  0.09608417  0.76384575
   0.83298880  0.19881266  0.85579012
   0.72555267  0.27932823  0.89657039
   0.66525393  0.32916178  0.98661193
   0.58697287  0.40022984  0.08831484
   0.52305351  0.49561112  0.18560287
   0.41329104  0.53530843  0.24736621
   0.42434122  0.53858861  0.39726804
   0.31762338  0.66051236  0.48439277
   0.26414173  0.76376395  0.56899039
   0.17232841  0.80863656  0.67437153
   0.08055674  0.88608448  0.76054645
   0.01542534  0.98472416  0.82312615
   0.92026287  0.08385922  0.93659379
   0.83478991  0.19529250  0.97470989
   0.71870894  0.25853759  0.08742168
   0.64347964  0.35816060  0.17481935
   0.60836263  0.40422334  0.27820027
   0.52852253  0.48218793  0.35247020
   0.08396529  0.06331297  0.91980138
   0.02637426  0.17289686  0.99749219
   0.92896465  0.23838021  0.06849012
   0.84466973  0.32802783  0.15990101
   0.75748717  0.44342918  0.25246090
   0.65562721  0.49963137  0.33571723
   0.59847950  0.58091067  0.46058933
   0.49237150  0.65078078  0.50399530
   0.41548933  0.74757872  0.56812027
   0.32612177  0.81897883  0.68946358
   0.22935696  0.91478967  0.77892605
   0.16115575  0.97465750  0.82834807
   0.15657634  0.99950536  0.03114740
   0.10031145  0.08728915  0.10128892
   0.00407817  0.17926856  0.17894094
   0.89865882  0.24487972  0.28562390
   0.83286376  0.33875927  0.34917929
   0.77980698  0.42094837  0.40354925
   0.67933382  0.47464120  0.47471516
   0.55361481  0.56340031  0.58666401
   0.52114357  0.68128922  0.66296261
   0.42672324  0.72745403  0.78405509
   0.36029222  0.86380847  0.83609043
   0.27396184  0.92159431  0.93254692
   0.26352584  0.89353429  0.08707944
   0.17330536  0.00009942  0.14504355
   0.09997835  0.10207979  0.23560833
   0.00401752  0.19089038  0.34290673
   0.91616777  0.27488983  0.41619833
   0.81385712  0.32570732  0.51275321
   0.73803838  0.41338493  0.60078372
   0.67118233  0.50293447  0.68234647
   0.58361621  0.60891438  0.75499091
   0.49729388  0.66342280  0.83282450
   0.41635001  0.72181228  0.91080920
   0.35948772  0.81808349  0.02371217
   0.35284753  0.80260694  0.18780163
   0.25518514  0.91498278  0.23709485
   0.15293914  0.99487515  0.34019705
   0.07995416  0.09588861  0.39778871
   0.00354010  0.18231852  0.51441858
   0.90321009  0.23193137  0.61287957
   0.83392387  0.33004080  0.68255463
   0.72644362  0.42325615  0.76230919
   0.66374787  0.52761836  0.80957215
   0.57292460  0.56256888  0.90907154
   0.50153623  0.63919796  0.99003083
   0.42263722  0.72767488  0.10223188
   0.41433856  0.70923232  0.26584941
   0.36522894  0.81621462  0.35866277
   0.25348319  0.91215144  0.41245257
   0.16136988  0.00142436  0.47406581
   0.08964854  0.08830529  0.56231375
   0.00632684  0.14999888  0.66332806
   0.92838760  0.21817590  0.76912344
   0.82492927  0.35303493  0.81840939
   0.73378266  0.43134229  0.88717873
   0.66021898  0.51526738  0.99115515
   0.57334143  0.56487652  0.08702714
   0.48903899  0.64049421  0.18237847
   0.51950177  0.62867501  0.34819837
   0.43350995  0.72781348  0.41042345
   0.35578800  0.82632797  0.47866781
   0.24683143  0.89341781  0.56068733
   0.15835925  0.99200752  0.65320922
   0.10664904  0.07359777  0.73469355
   0.02436459  0.16725326  0.85202327
   0.94435161  0.28180174  0.89922795
   0.82022137  0.31006500  0.00073438
   0.73047012  0.41287553  0.07773401
   0.64893152  0.49516175  0.17708686
   0.60544378  0.58415387  0.26971720
   0.17511381  0.17324418  0.84879042
   0.09669986  0.29018423  0.91516387
   0.99793945  0.32829782  0.01785760
   0.91168011  0.40165402  0.06001044
   0.83482056  0.53624194  0.15002089
   0.76477242  0.57166926  0.25698707
   0.65187904  0.66885823  0.34537041
   0.57546517  0.75222538  0.41756895
   0.48738367  0.84602128  0.46314599
   0.39718681  0.90724331  0.57940363
   0.32794136  0.00385478  0.66721651
   0.23914481  0.06631944  0.75160479
   0.23835156  0.05821270  0.91561790
   0.16696056  0.17658937  0.98414996
   0.08783388  0.24789958  0.09138782
   0.99179981  0.31971845  0.17291076
   0.89314741  0.40650754  0.24260521
   0.85075644  0.50429172  0.33179640
   0.73244022  0.59397581  0.43565656
   0.64065897  0.65623366  0.54035933
   0.55567550  0.76797382  0.56346012
   0.47126318  0.83856686  0.69331036
   0.39496262  0.92910542  0.75519749
   0.32160404  0.00362104  0.84018110
   0.30395157  0.00381397  0.03100264
   0.24992926  0.10816868  0.09356907
   0.17258419  0.21164295  0.17221278
   0.10555017  0.25728669  0.23865509
   0.00324318  0.34001315  0.31495691
   0.92197825  0.39003749  0.40280780
   0.85618885  0.49836354  0.49163066
   0.77378620  0.55902799  0.58454069
   0.66190906  0.67091850  0.66047523
   0.57717216  0.76439474  0.75583535
   0.48873389  0.85634559  0.83353354
   0.41324647  0.93938556  0.93827726
   0.43349866  0.89965009  0.08945056
   0.32091183  0.00172947  0.14613751
   0.23362713  0.07528649  0.24412830
   0.17437287  0.18371107  0.32897512
   0.06083031  0.23853497  0.41398094
   0.98787071  0.32859654  0.49523266
   0.90428989  0.40845871  0.57515096
   0.84668126  0.49428231  0.67310310
   0.77429057  0.58109483  0.73214361
   0.66072586  0.66213123  0.82930076
   0.58322182  0.72928143  0.92452659
   0.48598396  0.81256219  0.98044979
   0.50652970  0.84029448  0.16424348
   0.42062913  0.91758243  0.24129676
   0.34173115  0.01084407  0.31747369
   0.24924457  0.08903411  0.39707416
   0.17075756  0.15377993  0.46617665
   0.09145872  0.24938004  0.61127368
   0.99556771  0.30013792  0.66516002
   0.92886462  0.41336324  0.73881017
   0.85282423  0.51667680  0.81994258
   0.77171620  0.58679950  0.90213265
   0.66096448  0.64360178  0.00616749
   0.56625551  0.73858311  0.08179458
   0.57513704  0.74780780  0.23305397
   0.49439553  0.84089868  0.31432078
   0.40813064  0.96196008  0.41775499
   0.33008746  0.02337567  0.48984829
   0.23737124  0.04824957  0.57283075
   0.18998012  0.16489168  0.64883099
   0.09682488  0.26326705  0.76513040
   0.99316291  0.33233016  0.84910102
   0.91730942  0.41353635  0.92169570
   0.83316707  0.47483172  0.00226773
   0.73183391  0.56142328  0.06679152
   0.66566458  0.66408932  0.17743376
   0.26235118  0.24698908  0.72408315
   0.18360886  0.36929115  0.83606520
   0.06800094  0.41376399  0.91181115
   0.00247077  0.52681304  0.98527777
   0.92019315  0.58425483  0.05235775
   0.82895896  0.66990996  0.15081724
   0.73531135  0.74709030  0.23378638
   0.65762227  0.81768189  0.33805528
   0.58536869  0.90464340  0.42147225
   0.51846084  0.99145657  0.51246045
   0.42774829  0.06327225  0.58580106
   0.32388264  0.14520816  0.64184369
   0.32264604  0.16205994  0.81699968
   0.26104251  0.26314474  0.90890954
   0.17217692  0.32654538  0.99255627
   0.09460925  0.43446758  0.07163727
   0.97462050  0.49224286  0.15829237
   0.91587556  0.57577031  0.23911780
   0.81520744  0.65864261  0.32233883
   0.74115047  0.75437622  0.43818799
   0.66137002  0.84359635  0.48949564
   0.56685823  0.90204055  0.61036343
   0.50804388  0.99447441  0.69368419
   0.43134035  0.08467742  0.75072402
   0.40869438  0.07797748  0.93543979
   0.34900836  0.18273226  0.00522449
   0.26448043  0.25774932  0.07721049
   0.16145080  0.33913256  0.16349479
   0.05816970  0.42279821  0.23439983
   0.99280838  0.50397122  0.33396502
   0.90701215  0.60978792  0.43474103
   0.82089417  0.67862617  0.49232607
   0.76348507  0.76268074  0.58070275
   0.63796707  0.80945994  0.68444075
   0.57467375  0.90926732  0.78181647
   0.48804436  0.99007633  0.86157538
   0.51304333  0.99007428  0.01542446
   0.39712886  0.12034935  0.09945979
   0.33980892  0.20654663  0.18817169
   0.24204426  0.27676686  0.22861382
   0.16735889  0.32022873  0.32704429
   0.08835554  0.40820722  0.39006410
   0.99614542  0.50349173  0.47786663
   0.92081326  0.59191350  0.57393507
   0.83388454  0.68188711  0.67238316
   0.72219820  0.76408974  0.73829803
   0.65607665  0.82106230  0.84920575
   0.57777256  0.90113708  0.94134846
   0.58716568  0.92044741  0.08569478
   0.52930972  0.01847001  0.17274756
   0.43344770  0.07156072  0.23726068
   0.34045112  0.18251636  0.32602314
   0.24725455  0.26084056  0.41797339
   0.13566436  0.33344747  0.49778594
   0.06567466  0.41722263  0.62691930
   0.00762572  0.51001072  0.69114624
   0.91668628  0.57446040  0.76114522
   0.81607061  0.69395830  0.81427570
   0.74661477  0.76649721  0.93857971
   0.65851694  0.82607468  0.00597669
   0.66530326  0.83717300  0.18165163
   0.58936068  0.93960992  0.23345507
   0.52780804  0.02878326  0.33575656
   0.44366867  0.06892928  0.41453746
   0.33747139  0.15984150  0.49988768
   0.25669590  0.24044731  0.56970452
   0.18538440  0.32968916  0.67903367
   0.09034803  0.41115920  0.74587384
   0.00351064  0.49739696  0.83167293
   0.89688855  0.61273045  0.89926568
   0.84597853  0.67007535  0.99538630
   0.76444000  0.74602953  0.09635124
   0.33968375  0.31643810  0.65059140
   0.26163557  0.43611366  0.73321406
   0.17650919  0.48369310  0.82742746
   0.08963333  0.59648074  0.91511703
   0.99486064  0.67953818  0.96414528
   0.92174892  0.76366680  0.08908706
   0.80892414  0.85068573  0.15548899
   0.75150915  0.92498199  0.25708660
   0.69424025  0.00403232  0.34545823
   0.58175090  0.09115760  0.41789975
   0.51429877  0.15937124  0.49786594
   0.44343550  0.24191620  0.59004394
   0.40840809  0.21051427  0.73992916
   0.32219492  0.34023152  0.79629412
   0.28099966  0.43292858  0.91794062
   0.18825978  0.50089924  0.00202648
   0.07921891  0.59860327  0.07253583
   0.00177468  0.66223671  0.13949873
   0.90253947  0.75189550  0.24515292
   0.82751794  0.82071434  0.33985829
   0.77519442  0.88970175  0.41401408
   0.63798243  0.99078992  0.50682091
   0.59948285  0.05170039  0.60894297
   0.51488686  0.14966982  0.66651146
   0.49877818  0.15615505  0.86989353
   0.41633794  0.26016073  0.91287068
   0.33967150  0.36323512  0.98789998
   0.25645693  0.40946296  0.07980711
   0.16609014  0.51164212  0.13992689
   0.06883233  0.59370808  0.21909463
   0.98473653  0.67151685  0.31409677
   0.90588405  0.74233464  0.41408385
   0.86256333  0.83877864  0.48508737
   0.74553410  0.88970290  0.60665978
   0.67777877  0.96590798  0.70706030
   0.57928688  0.06495566  0.77301927
   0.59892770  0.06537728  0.90734332
   0.49359272  0.18175427  0.97910046
   0.41784904  0.26348872  0.09420821
   0.35172791  0.36555048  0.19103215
   0.24135588  0.43108012  0.27626938
   0.14781910  0.50705514  0.33060070
   0.08407103  0.62844324  0.39269879
   0.00131498  0.67818219  0.51531239
   0.88498159  0.74938224  0.59042122
   0.83036095  0.83022534  0.66568523
   0.75799008  0.90678641  0.74153157
   0.68579172  0.96378022  0.84041849
   0.64971812  0.99923001  0.99005652
   0.61493642  0.08756262  0.07247127
   0.52300146  0.18074371  0.17498732
   0.42391963  0.25137276  0.24383064
   0.31521893  0.31899671  0.29774921
   0.22535087  0.39812627  0.43191142
   0.14035701  0.49668295  0.47836931
   0.08840519  0.60424155  0.56920674
   0.99262174  0.65633825  0.67495634
   0.91957902  0.76250626  0.75712664
   0.82650542  0.84326641  0.81775387
   0.73350197  0.90690130  0.93376397
   0.75029376  0.92131965  0.06977888
   0.69684811  0.01381171  0.16841463
   0.60240982  0.08508090  0.25493863
   0.52541651  0.18277053  0.29592528
   0.41502100  0.21724679  0.41274796
   0.34140471  0.35240672  0.50041139
   0.26281436  0.42922744  0.60770643
   0.15065259  0.50085536  0.67436763
   0.08198396  0.60063738  0.76338576
   0.97746115  0.66455711  0.84440929
   0.89038915  0.77295454  0.93709248
   0.81801573  0.86263527  0.02863483
   0.42462397  0.43080518  0.59594088
   0.33032340  0.51524865  0.66114393
   0.25121779  0.60795928  0.76004245
   0.17568513  0.68041168  0.87276092
   0.07520796  0.74075558  0.91382806
   0.00243702  0.84074128  0.98872022
   0.92504541  0.93434675  0.07812543
   0.81548648  0.02544557  0.12814024
   0.76984499  0.10326307  0.22181812
   0.69766050  0.15189654  0.33788562
   0.60377183  0.22481694  0.39400055
   0.50506564  0.30155207  0.48200356
   0.47979858  0.31066582  0.67818322
   0.40228773  0.41097640  0.73725083
   0.33024798  0.51090984  0.82136786
   0.25110955  0.57394886  0.91855525
   0.18452268  0.66776831  0.99395740
   0.08497860  0.76351199  0.07338641
   0.00483401  0.84458833  0.16388380
   0.89229633  0.93461663  0.23181215
   0.82732484  0.03081659  0.33409271
   0.73641753  0.09453992  0.42219186
   0.65461433  0.14033448  0.52440265
   0.60082583  0.24616195  0.59985918
   0.56855187  0.22387296  0.76108083
   0.46572309  0.33661858  0.82551696
   0.41656696  0.43092628  0.89992117
   0.36269490  0.51027065  0.00007401
   0.25477759  0.57091948  0.08701833
   0.16393681  0.68126129  0.16188756
   0.05198209  0.73935014  0.25446679
   0.97439611  0.83347605  0.32070582
   0.91913650  0.92769630  0.38391163
   0.81741951  0.01598655  0.52355496
   0.73572259  0.08215196  0.60822291
   0.66550642  0.13567387  0.69626943
   0.64919226  0.14669192  0.82479478
   0.56297995  0.26315772  0.90091255
   0.48432838  0.36738909  0.00432306
   0.43145821  0.44303401  0.09990454
   0.32172141  0.50093485  0.17587911
   0.24365136  0.59281731  0.24574516
   0.16765461  0.66101036  0.31286033
   0.09239050  0.74107694  0.41472302
   0.99092204  0.83320914  0.47908726
   0.90504150  0.91172313  0.57687151
   0.83900542  0.00361127  0.66495360
   0.74112504  0.05294922  0.76200830
   0.72100048  0.07528256  0.90698239
   0.67208441  0.18406850  0.96588646
   0.59412963  0.25073201  0.07007982
   0.51696332  0.32445652  0.16782754
   0.43621340  0.41726015  0.26658194
   0.30407558  0.48322347  0.36802328
   0.22123956  0.57974811  0.42171387
   0.19269793  0.66429170  0.52018361
   0.05734761  0.76012231  0.59510075
   0.00739333  0.83096307  0.65552737
   0.92602820  0.90203688  0.74155678
   0.84143731  0.99041177  0.85350911
   0.85324240  0.02571227  0.98718240
   0.73425578  0.10356838  0.04324216
   0.66542346  0.17042173  0.16963200
   0.63166934  0.25680253  0.25119696
   0.50155471  0.32749261  0.34061425
   0.42114012  0.38128714  0.40115799
   0.33121639  0.49399040  0.49655529
   0.25498680  0.58962311  0.56739347
   0.19433333  0.70494554  0.65971112
   0.08185463  0.74942464  0.74473569
   0.01903434  0.81574322  0.83842833
   0.92454309  0.90745517  0.95551038
