 500 500   0   0
  0.1910214E+02  0.2121700E-08  0.2121700E-08  0.2121700E-08  0.5000000E-15
  1.000000000000000E-004
  CAR 
 Li                                      
      3.73059661     -3.35837428  301      0.55213965      1.00000000
     -3.358  0.0000E+00  0.0000E+00
     -3.335  0.0000E+00  0.0000E+00
     -3.311  0.0000E+00  0.0000E+00
     -3.287  0.0000E+00  0.0000E+00
     -3.264  0.0000E+00  0.0000E+00
     -3.240  0.0000E+00  0.0000E+00
     -3.217  0.0000E+00  0.0000E+00
     -3.193  0.5980E-11  0.1413E-12
     -3.169  0.1421E-07  0.3360E-09
     -3.146  0.1004E-04  0.2375E-06
     -3.122  0.2127E-02  0.5049E-04
     -3.098  0.1370E+00  0.3288E-02
     -3.075  0.2735E+01  0.6792E-01
     -3.051  0.1730E+02  0.4767E+00
     -3.028  0.3537E+02  0.1313E+01
     -3.004  0.2363E+02  0.1871E+01
     -2.980  0.5654E+01  0.2004E+01
     -2.957  0.8579E+01  0.2207E+01
     -2.933  0.4535E+02  0.3279E+01
     -2.909  0.9506E+02  0.5525E+01
     -2.886  0.7768E+02  0.7361E+01
     -2.862  0.2455E+02  0.7941E+01
     -2.839  0.8544E+01  0.8143E+01
     -2.815  0.3729E+02  0.9024E+01
     -2.791  0.8982E+02  0.1115E+02
     -2.768  0.8506E+02  0.1316E+02
     -2.744  0.3155E+02  0.1390E+02
     -2.720  0.9778E+01  0.1413E+02
     -2.697  0.4002E+02  0.1508E+02
     -2.673  0.1089E+03  0.1765E+02
     -2.649  0.1198E+03  0.2048E+02
     -2.626  0.5441E+02  0.2177E+02
     -2.602  0.1689E+02  0.2217E+02
     -2.579  0.4883E+02  0.2332E+02
     -2.555  0.1358E+03  0.2653E+02
     -2.531  0.1776E+03  0.3073E+02
     -2.508  0.1077E+03  0.3327E+02
     -2.484  0.2939E+02  0.3397E+02
     -2.460  0.1928E+02  0.3442E+02
     -2.437  0.6534E+02  0.3597E+02
     -2.413  0.9781E+02  0.3828E+02
     -2.390  0.5814E+02  0.3965E+02
     -2.366  0.1661E+02  0.4004E+02
     -2.342  0.2958E+02  0.4074E+02
     -2.319  0.1063E+03  0.4326E+02
     -2.295  0.1776E+03  0.4745E+02
     -2.271  0.1389E+03  0.5073E+02
     -2.248  0.5154E+02  0.5195E+02
     -2.224  0.4473E+02  0.5301E+02
     -2.201  0.1371E+03  0.5625E+02
     -2.177  0.2307E+03  0.6170E+02
     -2.153  0.2153E+03  0.6679E+02
     -2.130  0.1090E+03  0.6936E+02
     -2.106  0.2993E+02  0.7007E+02
     -2.082  0.3503E+02  0.7090E+02
     -2.059  0.8394E+02  0.7288E+02
     -2.035  0.8791E+02  0.7496E+02
     -2.011  0.3863E+02  0.7587E+02
     -1.988  0.2103E+02  0.7637E+02
     -1.964  0.8011E+02  0.7826E+02
     -1.941  0.1768E+03  0.8244E+02
     -1.917  0.1893E+03  0.8691E+02
     -1.893  0.1039E+03  0.8937E+02
     -1.870  0.4121E+02  0.9034E+02
     -1.846  0.8543E+02  0.9236E+02
     -1.822  0.1906E+03  0.9686E+02
     -1.799  0.2319E+03  0.1023E+03
     -1.775  0.1658E+03  0.1063E+03
     -1.752  0.6596E+02  0.1078E+03
     -1.728  0.3961E+02  0.1088E+03
     -1.704  0.1029E+03  0.1112E+03
     -1.681  0.1662E+03  0.1151E+03
     -1.657  0.1400E+03  0.1184E+03
     -1.633  0.6619E+02  0.1200E+03
     -1.610  0.7067E+02  0.1217E+03
     -1.586  0.1702E+03  0.1257E+03
     -1.563  0.2367E+03  0.1313E+03
     -1.539  0.1886E+03  0.1357E+03
     -1.515  0.8399E+02  0.1377E+03
     -1.492  0.4915E+02  0.1389E+03
     -1.468  0.1269E+03  0.1419E+03
     -1.444  0.2290E+03  0.1473E+03
     -1.421  0.2259E+03  0.1526E+03
     -1.397  0.1163E+03  0.1554E+03
     -1.373  0.4521E+02  0.1564E+03
     -1.350  0.8050E+02  0.1583E+03
     -1.326  0.1462E+03  0.1618E+03
     -1.303  0.1495E+03  0.1653E+03
     -1.279  0.9038E+02  0.1675E+03
     -1.255  0.5393E+02  0.1687E+03
     -1.232  0.9369E+02  0.1709E+03
     -1.208  0.1431E+03  0.1743E+03
     -1.184  0.1368E+03  0.1776E+03
     -1.161  0.8489E+02  0.1796E+03
     -1.137  0.7033E+02  0.1812E+03
     -1.114  0.1682E+03  0.1852E+03
     -1.090  0.2939E+03  0.1921E+03
     -1.066  0.3259E+03  0.1998E+03
     -1.043  0.2581E+03  0.2059E+03
     -1.019  0.1472E+03  0.2094E+03
     -0.995  0.1132E+03  0.2121E+03
     -0.972  0.1908E+03  0.2166E+03
     -0.948  0.2257E+03  0.2219E+03
     -0.924  0.1680E+03  0.2259E+03
     -0.901  0.8804E+02  0.2280E+03
     -0.877  0.6272E+02  0.2295E+03
     -0.854  0.1026E+03  0.2319E+03
     -0.830  0.1695E+03  0.2359E+03
     -0.806  0.1729E+03  0.2400E+03
     -0.783  0.1375E+03  0.2432E+03
     -0.759  0.1761E+03  0.2474E+03
     -0.735  0.2314E+03  0.2529E+03
     -0.712  0.2425E+03  0.2586E+03
     -0.688  0.1938E+03  0.2632E+03
     -0.665  0.9589E+02  0.2654E+03
     -0.641  0.3691E+02  0.2663E+03
     -0.617  0.5832E+02  0.2677E+03
     -0.594  0.9114E+02  0.2698E+03
     -0.570  0.7156E+02  0.2715E+03
     -0.546  0.6445E+02  0.2731E+03
     -0.523  0.1509E+03  0.2766E+03
     -0.499  0.2562E+03  0.2827E+03
     -0.476  0.2922E+03  0.2896E+03
     -0.452  0.2879E+03  0.2964E+03
     -0.428  0.2586E+03  0.3025E+03
     -0.405  0.2106E+03  0.3075E+03
     -0.381  0.1966E+03  0.3121E+03
     -0.357  0.2486E+03  0.3180E+03
     -0.334  0.2847E+03  0.3247E+03
     -0.310  0.2376E+03  0.3303E+03
     -0.286  0.1642E+03  0.3342E+03
     -0.263  0.1167E+03  0.3370E+03
     -0.239  0.1117E+03  0.3396E+03
     -0.216  0.1341E+03  0.3428E+03
     -0.192  0.1472E+03  0.3463E+03
     -0.168  0.1719E+03  0.3503E+03
     -0.145  0.1849E+03  0.3547E+03
     -0.121  0.1737E+03  0.3588E+03
     -0.097  0.1662E+03  0.3627E+03
     -0.074  0.1631E+03  0.3666E+03
     -0.050  0.1734E+03  0.3707E+03
     -0.027  0.2226E+03  0.3759E+03
     -0.003  0.2610E+03  0.3821E+03
      0.021  0.2697E+03  0.3885E+03
      0.044  0.2428E+03  0.3942E+03
      0.068  0.1992E+03  0.3989E+03
      0.092  0.1959E+03  0.4036E+03
      0.115  0.2095E+03  0.4085E+03
      0.139  0.1859E+03  0.4129E+03
      0.162  0.1252E+03  0.4159E+03
      0.186  0.1230E+03  0.4188E+03
      0.210  0.1974E+03  0.4234E+03
      0.233  0.2479E+03  0.4293E+03
      0.257  0.2461E+03  0.4351E+03
      0.281  0.2237E+03  0.4404E+03
      0.304  0.2011E+03  0.4451E+03
      0.328  0.2053E+03  0.4500E+03
      0.352  0.2212E+03  0.4552E+03
      0.375  0.2105E+03  0.4602E+03
      0.399  0.1899E+03  0.4647E+03
      0.422  0.1907E+03  0.4692E+03
      0.446  0.2141E+03  0.4742E+03
      0.470  0.2374E+03  0.4799E+03
      0.493  0.2508E+03  0.4858E+03
      0.517  0.2540E+03  0.4918E+03
      0.541  0.2384E+03  0.4974E+03
      0.564  0.2200E+03  0.5026E+03
      0.588  0.2216E+03  0.5079E+03
      0.611  0.2385E+03  0.5135E+03
      0.635  0.2480E+03  0.5194E+03
      0.659  0.2411E+03  0.5250E+03
      0.682  0.2444E+03  0.5308E+03
      0.706  0.2716E+03  0.5372E+03
      0.730  0.2948E+03  0.5442E+03
      0.753  0.3047E+03  0.5514E+03
      0.777  0.3116E+03  0.5588E+03
      0.800  0.3006E+03  0.5659E+03
      0.824  0.2774E+03  0.5724E+03
      0.848  0.2563E+03  0.5785E+03
      0.871  0.2394E+03  0.5841E+03
      0.895  0.2302E+03  0.5896E+03
      0.919  0.2285E+03  0.5950E+03
      0.942  0.2265E+03  0.6003E+03
      0.966  0.2163E+03  0.6054E+03
      0.990  0.1976E+03  0.6101E+03
      1.013  0.1678E+03  0.6141E+03
      1.037  0.1517E+03  0.6177E+03
      1.060  0.1584E+03  0.6214E+03
      1.084  0.1652E+03  0.6253E+03
      1.108  0.1676E+03  0.6293E+03
      1.131  0.1690E+03  0.6333E+03
      1.155  0.1778E+03  0.6375E+03
      1.179  0.2013E+03  0.6422E+03
      1.202  0.2194E+03  0.6474E+03
      1.226  0.2228E+03  0.6527E+03
      1.249  0.2243E+03  0.6580E+03
      1.273  0.2259E+03  0.6633E+03
      1.297  0.2344E+03  0.6688E+03
      1.320  0.2542E+03  0.6749E+03
      1.344  0.2630E+03  0.6811E+03
      1.368  0.2504E+03  0.6870E+03
      1.391  0.2337E+03  0.6925E+03
      1.415  0.2260E+03  0.6979E+03
      1.438  0.2218E+03  0.7031E+03
      1.462  0.2171E+03  0.7082E+03
      1.486  0.2016E+03  0.7130E+03
      1.509  0.1916E+03  0.7175E+03
      1.533  0.1861E+03  0.7219E+03
      1.557  0.1867E+03  0.7263E+03
      1.580  0.1949E+03  0.7309E+03
      1.604  0.2059E+03  0.7358E+03
      1.628  0.2115E+03  0.7408E+03
      1.651  0.2115E+03  0.7458E+03
      1.675  0.1966E+03  0.7504E+03
      1.698  0.1813E+03  0.7547E+03
      1.722  0.1799E+03  0.7590E+03
      1.746  0.1735E+03  0.7631E+03
      1.769  0.1605E+03  0.7669E+03
      1.793  0.1595E+03  0.7706E+03
      1.817  0.1588E+03  0.7744E+03
      1.840  0.1591E+03  0.7781E+03
      1.864  0.1648E+03  0.7820E+03
      1.887  0.1623E+03  0.7859E+03
      1.911  0.1498E+03  0.7894E+03
      1.935  0.1418E+03  0.7928E+03
      1.958  0.1479E+03  0.7963E+03
      1.982  0.1717E+03  0.8003E+03
      2.006  0.1832E+03  0.8046E+03
      2.029  0.1842E+03  0.8090E+03
      2.053  0.1961E+03  0.8136E+03
      2.077  0.2088E+03  0.8186E+03
      2.100  0.2095E+03  0.8235E+03
      2.124  0.2054E+03  0.8284E+03
      2.147  0.2103E+03  0.8333E+03
      2.171  0.2049E+03  0.8382E+03
      2.195  0.1880E+03  0.8426E+03
      2.218  0.1750E+03  0.8468E+03
      2.242  0.1729E+03  0.8508E+03
      2.266  0.1715E+03  0.8549E+03
      2.289  0.1498E+03  0.8584E+03
      2.313  0.1277E+03  0.8615E+03
      2.336  0.1179E+03  0.8642E+03
      2.360  0.1106E+03  0.8669E+03
      2.384  0.1188E+03  0.8697E+03
      2.407  0.1324E+03  0.8728E+03
      2.431  0.1515E+03  0.8764E+03
      2.455  0.1663E+03  0.8803E+03
      2.478  0.1608E+03  0.8841E+03
      2.502  0.1553E+03  0.8878E+03
      2.525  0.1556E+03  0.8914E+03
      2.549  0.1551E+03  0.8951E+03
      2.573  0.1532E+03  0.8987E+03
      2.596  0.1438E+03  0.9021E+03
      2.620  0.1366E+03  0.9054E+03
      2.644  0.1271E+03  0.9084E+03
      2.667  0.1119E+03  0.9110E+03
      2.691  0.1240E+03  0.9139E+03
      2.715  0.1495E+03  0.9175E+03
      2.738  0.1559E+03  0.9212E+03
      2.762  0.1514E+03  0.9247E+03
      2.785  0.1542E+03  0.9284E+03
      2.809  0.1572E+03  0.9321E+03
      2.833  0.1498E+03  0.9356E+03
      2.856  0.1466E+03  0.9391E+03
      2.880  0.1445E+03  0.9425E+03
      2.904  0.1259E+03  0.9455E+03
      2.927  0.1182E+03  0.9483E+03
      2.951  0.1353E+03  0.9515E+03
      2.974  0.1443E+03  0.9549E+03
      2.998  0.1436E+03  0.9583E+03
      3.022  0.1514E+03  0.9619E+03
      3.045  0.1570E+03  0.9656E+03
      3.069  0.1512E+03  0.9691E+03
      3.093  0.1421E+03  0.9725E+03
      3.116  0.1389E+03  0.9758E+03
      3.140  0.1285E+03  0.9788E+03
      3.163  0.1186E+03  0.9816E+03
      3.187  0.1115E+03  0.9843E+03
      3.211  0.9087E+02  0.9864E+03
      3.234  0.5355E+02  0.9877E+03
      3.258  0.3320E+02  0.9885E+03
      3.282  0.5060E+02  0.9896E+03
      3.305  0.7348E+02  0.9914E+03
      3.329  0.8740E+02  0.9934E+03
      3.353  0.1010E+03  0.9958E+03
      3.376  0.1122E+03  0.9985E+03
      3.400  0.9293E+02  0.1001E+04
      3.423  0.4409E+02  0.1002E+04
      3.447  0.1053E+02  0.1002E+04
      3.471  0.1123E+01  0.1002E+04
      3.494  0.4589E-01  0.1002E+04
      3.518  0.6395E-03  0.1002E+04
      3.542  0.2840E-05  0.1002E+04
      3.565  0.3877E-08  0.1002E+04
      3.589  0.1597E-11  0.1002E+04
      3.612  0.0000E+00  0.1002E+04
      3.636  0.0000E+00  0.1002E+04
      3.660  0.0000E+00  0.1002E+04
      3.683  0.0000E+00  0.1002E+04
      3.707  0.0000E+00  0.1002E+04
      3.731  0.0000E+00  0.1002E+04
