 running on   64 total cores
 distrk:  each k-point on   32 cores,    2 groups
 distr:  one band on   32 cores,    1 groups
 vasp.6.2.1 16May21 (build Nov 23 2021 15:40:41) complex                        
  
 POSCAR found type information on POSCAR Li
 POSCAR found :  1 types and     500 ions
 scaLAPACK will be used
 -----------------------------------------------------------------------------
|                                                                             |
|           W    W    AA    RRRRR   N    N  II  N    N   GGGG   !!!           |
|           W    W   A  A   R    R  NN   N  II  NN   N  G    G  !!!           |
|           W    W  A    A  R    R  N N  N  II  N N  N  G       !!!           |
|           W WW W  AAAAAA  RRRRR   N  N N  II  N  N N  G  GGG   !            |
|           WW  WW  A    A  R   R   N   NN  II  N   NN  G    G                |
|           W    W  A    A  R    R  N    N  II  N    N   GGGG   !!!           |
|                                                                             |
|     For optimal performance we recommend to set                             |
|       NCORE = 2 up to number-of-cores-per-socket                            |
|     NCORE specifies how many cores store one orbital (NPAR=cpu/NCORE).      |
|     This setting can greatly improve the performance of VASP for DFT.       |
|     The default, NCORE=1 might be grossly inefficient on modern             |
|     multi-core architectures or massively parallel machines. Do your        |
|     own testing! More info at https://www.vasp.at/wiki/index.php/NCORE      |
|     Unfortunately you need to use the default for GW and RPA                |
|     calculations (for HF NCORE is supported but not extensively tested      |
|     yet).                                                                   |
|                                                                             |
 -----------------------------------------------------------------------------

 -----------------------------------------------------------------------------
|                                                                             |
|               ----> ADVICE to this user running VASP <----                  |
|                                                                             |
|     You have a (more or less) 'large supercell' and for larger cells it     |
|     might be more efficient to use real-space projection operators.         |
|     Therefore, try LREAL= Auto in the INCAR file.                           |
|     Mind: If you want to do very accurate calculations, keep the            |
|     reciprocal projection scheme (i.e. LREAL=.FALSE.).                      |
|                                                                             |
 -----------------------------------------------------------------------------

 LDA part: xc-table for Pade appr. of Perdew
 POSCAR found type information on POSCAR Li
 POSCAR found :  1 types and     500 ions
 POSCAR, INCAR and KPOINTS ok, starting setup
 FFT: planning ...
 WAVECAR not read
 entering main loop
       N       E                     dE             d eps       ncg     rms          rms(c)
DAV:   1    -0.258557638769E+03   -0.25856E+03   -0.12344E+05  4008   0.662E+02
DAV:   2    -0.872675995998E+03   -0.61412E+03   -0.56228E+03  4612   0.689E+01
DAV:   3    -0.915735137479E+03   -0.43059E+02   -0.39271E+02  5184   0.143E+01
DAV:   4    -0.917156732880E+03   -0.14216E+01   -0.14005E+01  4672   0.285E+00
DAV:   5    -0.917190213218E+03   -0.33480E-01   -0.33418E-01  4848   0.458E-01    0.919E+00
DAV:   6    -0.916417528478E+03    0.77268E+00   -0.10890E+01  4664   0.479E+00    0.839E+00
DAV:   7    -0.907783252749E+03    0.86343E+01   -0.96356E+00  4848   0.453E+00    0.488E+00
DAV:   8    -0.905339974662E+03    0.24433E+01   -0.42219E+00  4648   0.226E+00    0.271E+00
DAV:   9    -0.904800869851E+03    0.53910E+00   -0.23861E+00  4488   0.130E+00    0.146E+00
DAV:  10    -0.904920938598E+03   -0.12007E+00   -0.65485E-01  4752   0.881E-01    0.145E+00
DAV:  11    -0.904676839238E+03    0.24410E+00   -0.32419E-01  4608   0.614E-01    0.592E-01
DAV:  12    -0.904671197110E+03    0.56421E-02   -0.98467E-02  4400   0.245E-01    0.318E-01
DAV:  13    -0.904672907637E+03   -0.17105E-02   -0.23289E-02  5016   0.174E-01    0.275E-01
DAV:  14    -0.904665752965E+03    0.71547E-02   -0.75101E-03  4704   0.108E-01    0.114E-01
DAV:  15    -0.904665301384E+03    0.45158E-03   -0.25501E-03  4560   0.551E-02    0.660E-02
DAV:  16    -0.904665502553E+03   -0.20117E-03   -0.12415E-03  4656   0.424E-02    0.602E-02
DAV:  17    -0.904665012740E+03    0.48981E-03   -0.60536E-04  4552   0.285E-02    0.195E-02
DAV:  18    -0.904664989626E+03    0.23115E-04   -0.18578E-04  4408   0.111E-02    0.110E-02
DAV:  19    -0.904664983175E+03    0.64506E-05   -0.35752E-05  3752   0.661E-03
   1 F= -.90466498E+03 E0= -.90461569E+03  d E =-.985800E-01
