Li                                      
           1
    21.217000    0.000000    0.000000
     0.000000   21.217000    0.000000
    -0.000000   -0.000000   21.217000
   Li
   500
Direct configuration=     1
   0.00131672  0.01827433  0.02950720
   0.00518918  0.12195769  0.10343771
   0.00133841  0.20608260  0.19588983
   0.98480331  0.28470173  0.31951628
   0.98595781  0.37894947  0.39660139
   0.00667325  0.50375462  0.49122515
   0.01027750  0.60645553  0.60170611
   0.02887029  0.70086723  0.70738568
   0.00197784  0.82057092  0.81065956
   0.99532542  0.91567322  0.92563068
   0.12849830  0.04039475  0.10335811
   0.11638920  0.12361287  0.20435121
   0.09958268  0.18695331  0.30714256
   0.09211817  0.28461266  0.41210731
   0.10673210  0.38299555  0.50784176
   0.09385751  0.49254743  0.59741300
   0.10418636  0.60542755  0.72034106
   0.10374305  0.71724267  0.81352071
   0.11671597  0.81724079  0.92558535
   0.10105747  0.93046742  0.01607273
   0.20049912  0.00198300  0.22257885
   0.20479595  0.10555027  0.32986276
   0.19732626  0.20401714  0.40198403
   0.20136572  0.29556422  0.50594707
   0.19663623  0.39724486  0.60459119
   0.21895622  0.49995540  0.69932358
   0.18627545  0.60611069  0.79618795
   0.21558930  0.70494965  0.91964027
   0.20072187  0.81531054  0.01318488
   0.22075280  0.90718990  0.10550804
   0.29682405  0.98570011  0.31286017
   0.29941985  0.11734935  0.40525251
   0.31199109  0.19223298  0.48944120
   0.31484212  0.28001046  0.58193909
   0.30329080  0.39105112  0.69124889
   0.30353999  0.50455975  0.79331352
   0.29837405  0.59411139  0.90226486
   0.29568210  0.72001662  0.00383587
   0.30782024  0.81291125  0.10457884
   0.27805997  0.88915206  0.21626177
   0.40575959  0.99427653  0.40119674
   0.42594815  0.07657251  0.48329301
   0.42210309  0.18142666  0.56172407
   0.37809617  0.29012066  0.69129561
   0.37495736  0.39199578  0.77484169
   0.39658232  0.50323964  0.89436560
   0.38877802  0.59197700  0.98735848
   0.41959990  0.70204821  0.09915630
   0.38529450  0.80925832  0.19757557
   0.40591672  0.88008125  0.31007051
   0.49718733  0.00400830  0.50177336
   0.50556727  0.11429629  0.59180274
   0.49938084  0.20824386  0.70058634
   0.48353746  0.31977330  0.78330139
   0.48163240  0.39789866  0.87716575
   0.49299241  0.48991507  0.97733641
   0.49381379  0.58529867  0.10760455
   0.47918418  0.68801262  0.20647659
   0.49326473  0.77655985  0.31069413
   0.51688548  0.88405297  0.39654111
   0.62153598  0.98762071  0.60280673
   0.59650002  0.10127513  0.67664052
   0.59453117  0.21258156  0.78440287
   0.61085542  0.30733972  0.89108431
   0.58640522  0.41903893  0.99126366
   0.61569170  0.49496978  0.08946336
   0.59687736  0.60404125  0.19869530
   0.62136732  0.70397704  0.30788757
   0.59905153  0.77782349  0.40102177
   0.61005128  0.88756003  0.49151131
   0.68583671  0.00003774  0.71096391
   0.66676197  0.10530389  0.81003744
   0.67543426  0.20194096  0.90129146
   0.67575763  0.31770305  0.01395728
   0.69849761  0.40763220  0.08536848
   0.68691497  0.50018544  0.19890160
   0.70393175  0.60463071  0.30267595
   0.72213712  0.69708871  0.39993393
   0.69902566  0.80022641  0.49537515
   0.71344398  0.88590724  0.58912249
   0.80314284  0.00363883  0.80620819
   0.78655280  0.09911870  0.88319851
   0.78881824  0.19651911  0.98803234
   0.80161604  0.30047582  0.09043159
   0.79336251  0.39327125  0.20000894
   0.80013003  0.50848866  0.27765540
   0.82413209  0.59379364  0.37608997
   0.81588493  0.70384644  0.51245862
   0.79799208  0.80095511  0.60147771
   0.80433068  0.91167723  0.69352204
   0.91122098  0.01110626  0.90816302
   0.88379042  0.10421734  0.00520136
   0.90060425  0.19977391  0.09940377
   0.88815635  0.28883111  0.20333235
   0.88515985  0.40408669  0.30837626
   0.91668997  0.49326527  0.40289409
   0.89895904  0.61425091  0.51250880
   0.91545485  0.69322282  0.60658632
   0.91568519  0.78336733  0.68880866
   0.89750911  0.88350660  0.80066210
   0.11305651  0.12229593  0.01227843
   0.10136461  0.21534815  0.10774525
   0.11916731  0.29780131  0.21857497
   0.10229726  0.39419648  0.33531427
   0.09613181  0.48382504  0.41091837
   0.09415698  0.59927900  0.50559091
   0.09771261  0.71738746  0.62058525
   0.11467453  0.81632087  0.70986463
   0.09534772  0.90048816  0.82275334
   0.08947150  0.00339399  0.90431244
   0.21117086  0.12023330  0.10810915
   0.20044631  0.21641268  0.20964754
   0.20780315  0.30790246  0.32651588
   0.17964501  0.38524084  0.42997967
   0.19458746  0.49227854  0.52356247
   0.19556689  0.59839257  0.61771691
   0.17827548  0.69833700  0.70338074
   0.20386401  0.81080967  0.81945245
   0.20608078  0.92453746  0.92007352
   0.21960181  0.00208996  0.00268347
   0.28356089  0.11303661  0.20737312
   0.29966767  0.20383564  0.31118836
   0.30660865  0.28682581  0.42142973
   0.30784706  0.38983818  0.49427954
   0.30136292  0.50117086  0.58786683
   0.30893237  0.61923760  0.71083767
   0.28365935  0.69781512  0.81681507
   0.30761668  0.82997802  0.91427095
   0.31065340  0.89946129  0.01578760
   0.29516252  0.00071832  0.12336504
   0.41492065  0.11039702  0.30792679
   0.43193523  0.20895574  0.39744052
   0.43212671  0.29351148  0.48228456
   0.38625133  0.39041419  0.56879187
   0.39958754  0.52202589  0.69485033
   0.41570316  0.60265537  0.81100413
   0.38051464  0.71876020  0.91058701
   0.41834076  0.79155739  0.01421353
   0.40106943  0.89064212  0.11449508
   0.39004170  0.00668633  0.20809964
   0.52283474  0.11653732  0.38800372
   0.53294042  0.19917800  0.47193305
   0.50307542  0.29555803  0.60974885
   0.47594007  0.39133102  0.69013384
   0.48727113  0.47531864  0.79066231
   0.49236264  0.61539061  0.87791439
   0.50045321  0.69673146  0.99116787
   0.50179205  0.80483192  0.10930771
   0.48942312  0.88596963  0.21161069
   0.49614143  0.97528358  0.29631418
   0.60797797  0.09531919  0.50913152
   0.60292433  0.20661349  0.58106057
   0.58747823  0.31526092  0.69546913
   0.60304968  0.40928525  0.80049190
   0.58924003  0.50944398  0.88008229
   0.57820415  0.59283592  0.98669278
   0.60595168  0.68488966  0.09664813
   0.60538506  0.77288357  0.19609355
   0.60415882  0.86988435  0.30098392
   0.59313865  0.99643576  0.39009755
   0.70581617  0.10035862  0.59179548
   0.68132648  0.22110915  0.70801813
   0.70168553  0.31704611  0.79706815
   0.68260721  0.41105703  0.90571154
   0.70862560  0.51577838  0.98178931
   0.69141985  0.59697517  0.07797150
   0.72065980  0.71064449  0.17762499
   0.71494999  0.78689027  0.30348521
   0.68571948  0.88972872  0.39378563
   0.72465555  0.98820193  0.50657387
   0.78463867  0.09755991  0.72386714
   0.77905284  0.19237783  0.81209818
   0.78648910  0.30556955  0.91034964
   0.79312475  0.40733250  0.00666710
   0.79686821  0.51159809  0.10732891
   0.80339182  0.61159082  0.18515864
   0.81063662  0.69918701  0.29312370
   0.83697133  0.82605767  0.38881361
   0.83228700  0.91001930  0.48832079
   0.79857829  0.98753120  0.60052902
   0.90994513  0.10491073  0.82287229
   0.89827995  0.21639984  0.91749915
   0.88155390  0.31110245  0.01081651
   0.90193375  0.38830895  0.11907432
   0.91011093  0.48969176  0.19359682
   0.92469859  0.60451155  0.29404045
   0.90674486  0.69748429  0.39751853
   0.91983963  0.80356193  0.50648003
   0.90483101  0.88749689  0.60884356
   0.86092560  0.00700884  0.69711883
   0.00483272  0.11168559  0.92002066
   0.99909505  0.21082651  0.01647725
   0.99099087  0.29440584  0.12403465
   0.00418642  0.38552106  0.22703378
   0.00677332  0.48978263  0.29900976
   0.01220479  0.61562878  0.40106750
   0.00880235  0.69306926  0.49922273
   0.00396230  0.80931364  0.60099077
   0.98836310  0.90017369  0.70219328
   0.98584082  0.98642706  0.80177304
   0.20005030  0.17949519  0.98298159
   0.19924425  0.28450816  0.07851590
   0.17902335  0.39120513  0.20066178
   0.18415365  0.49817039  0.31308120
   0.17047458  0.57698449  0.39634815
   0.16672660  0.69463635  0.49592678
   0.20864709  0.79176303  0.61227839
   0.18546459  0.92026319  0.70397480
   0.19878777  0.99348249  0.80834585
   0.17925454  0.08973182  0.89106406
   0.29676676  0.22550747  0.08185271
   0.30220791  0.29175276  0.21414051
   0.27044219  0.40556795  0.32053874
   0.29537288  0.50122066  0.41042563
   0.28392609  0.61203273  0.48617112
   0.27507497  0.70906432  0.61394550
   0.25871595  0.79592455  0.71697117
   0.30207766  0.90845337  0.80232412
   0.32254184  0.99492552  0.90643715
   0.29815234  0.11092438  0.98977090
   0.39276803  0.19240866  0.20404721
   0.39702355  0.31493392  0.30511391
   0.38572895  0.39810159  0.40444449
   0.38819612  0.50625089  0.49494451
   0.38001242  0.62131523  0.61137398
   0.38766891  0.73588378  0.71095764
   0.38489030  0.82353676  0.79981420
   0.41456420  0.91326026  0.91384291
   0.39934031  0.99807805  0.03320443
   0.38319375  0.11197568  0.10077988
   0.48927756  0.22421329  0.27714202
   0.50537934  0.33263141  0.36257685
   0.49455918  0.40611511  0.49232928
   0.50097982  0.50146994  0.60401914
   0.49478925  0.60111234  0.71414951
   0.48956011  0.72786133  0.81571928
   0.48458364  0.81919139  0.91601807
   0.50634706  0.90878276  0.03102737
   0.49326524  0.99256105  0.11018105
   0.49521438  0.09201543  0.21255972
   0.59237249  0.21370100  0.38089655
   0.59759149  0.30174623  0.48353373
   0.58622226  0.40060172  0.57413763
   0.58547286  0.49095463  0.70330052
   0.56593344  0.61185761  0.79397377
   0.58696665  0.72044218  0.91666869
   0.61510967  0.80152934  0.00625995
   0.60440340  0.88376700  0.12232317
   0.59573692  0.98349512  0.22288147
   0.59884505  0.10166890  0.28415561
   0.69177482  0.19632235  0.48760115
   0.69959252  0.30284096  0.58931558
   0.72002686  0.41079090  0.68718716
   0.68331385  0.48670206  0.78486109
   0.67347653  0.59781075  0.88242656
   0.71829824  0.67119998  0.98995266
   0.71900889  0.80834527  0.09891973
   0.71037097  0.88182009  0.22282367
   0.67634843  0.97336072  0.29433029
   0.67790598  0.09927164  0.40513432
   0.77983646  0.19640206  0.59644395
   0.78700158  0.29467391  0.71793301
   0.79791407  0.42530944  0.82038472
   0.78476774  0.51680313  0.88816024
   0.82306451  0.58421441  0.99457329
   0.80903842  0.70025134  0.08410667
   0.80685566  0.79146283  0.19775521
   0.82888179  0.91098643  0.29015019
   0.80584045  0.00751115  0.39361116
   0.81162725  0.11148567  0.50219258
   0.88854080  0.20531285  0.71398889
   0.89636438  0.29038607  0.80780908
   0.88718531  0.41266125  0.90608330
   0.89880034  0.49445648  0.01549105
   0.91460185  0.60819478  0.10545241
   0.91473910  0.70241000  0.18331889
   0.91508438  0.81002445  0.30767442
   0.92391150  0.94021142  0.38989249
   0.91179845  0.00276999  0.51206080
   0.88134040  0.09268246  0.62054605
   0.00949059  0.22680711  0.80864901
   0.00821982  0.31567887  0.91273221
   0.99666686  0.39323168  0.99720472
   0.00673317  0.48889376  0.09832329
   0.02362251  0.58795051  0.20532725
   0.02192072  0.70573793  0.29889699
   0.99793033  0.81617490  0.41448900
   0.00448784  0.92673406  0.50700669
   0.98001714  0.00866574  0.62706775
   0.99603082  0.11937062  0.70722591
   0.09810651  0.21158166  0.88884761
   0.10448391  0.30662909  0.98965532
   0.11634316  0.38725837  0.09832637
   0.11327798  0.49962485  0.19673602
   0.09951853  0.59163199  0.29486008
   0.08929131  0.73109463  0.37388712
   0.09447040  0.80759229  0.51071751
   0.09680057  0.89043236  0.59422300
   0.09502708  0.99668097  0.69310112
   0.09740017  0.11267420  0.79518562
   0.30736045  0.28809844  0.98987912
   0.31884666  0.36310493  0.11907315
   0.31475442  0.47668080  0.21252397
   0.29144042  0.59165969  0.31624948
   0.26664582  0.68638223  0.37433563
   0.26940496  0.78359445  0.49396894
   0.28979054  0.90400651  0.57824611
   0.30880214  0.01190426  0.67915047
   0.30174543  0.09353336  0.79841784
   0.29877608  0.18314129  0.90326213
   0.41049824  0.29510167  0.10203966
   0.42075294  0.40108638  0.19491433
   0.40378217  0.49880563  0.31067164
   0.41891162  0.60572205  0.41295041
   0.36849683  0.71032665  0.50506688
   0.35984816  0.80299354  0.60937579
   0.38148426  0.88767387  0.68843215
   0.39154314  0.99203259  0.76459020
   0.40463399  0.10232774  0.88023801
   0.43714898  0.18725418  0.00197311
   0.51073893  0.30694715  0.21576176
   0.51603058  0.40084463  0.30164684
   0.51108475  0.49780358  0.40591877
   0.47694664  0.60413750  0.51680938
   0.49569293  0.69384048  0.59882072
   0.49646718  0.77862119  0.68255141
   0.49511938  0.88215396  0.76596280
   0.46683326  0.98844853  0.89805058
   0.49914930  0.07379062  0.00106693
   0.50527985  0.19673170  0.10080249
   0.62419320  0.30584763  0.29254660
   0.62757210  0.40786321  0.39361250
   0.59719129  0.52863842  0.49976683
   0.60090372  0.60265018  0.61498017
   0.59274625  0.70824946  0.68824660
   0.58067441  0.82203727  0.79995791
   0.58724206  0.90890824  0.90906265
   0.60410243  0.97603598  0.98314312
   0.59919117  0.09106823  0.10595906
   0.59835459  0.21346839  0.18577530
   0.71044078  0.29262878  0.40177771
   0.70543360  0.40308355  0.49035229
   0.71199332  0.49322040  0.60321363
   0.68509182  0.60467305  0.71409892
   0.68963319  0.69186455  0.80519764
   0.69850568  0.78599501  0.88974586
   0.68593194  0.89651809  0.97969795
   0.67647862  0.97235072  0.10596304
   0.69147706  0.09469295  0.21006500
   0.71045016  0.20922641  0.28855928
   0.79847200  0.27765838  0.49432815
   0.81330300  0.39767840  0.58602962
   0.81482124  0.50711375  0.69549746
   0.80438351  0.59425636  0.81102495
   0.80083820  0.70882386  0.91229255
   0.81079049  0.81344206  0.99881123
   0.81655496  0.88681825  0.09488418
   0.78725252  0.00091551  0.18918194
   0.78171720  0.09186681  0.31145755
   0.78922431  0.17302243  0.38852446
   0.87584913  0.28238930  0.59607665
   0.88747466  0.38734088  0.71867569
   0.91397549  0.50485211  0.80549778
   0.92010314  0.58648179  0.89665998
   0.90973356  0.70035229  0.00194517
   0.89554796  0.78324157  0.08920239
   0.91429999  0.91390873  0.17169286
   0.89626838  0.02309447  0.26517587
   0.90854299  0.08499007  0.40354602
   0.91129080  0.18030330  0.51031804
   0.97931853  0.29766414  0.67700040
   0.00538445  0.38919128  0.79653962
   0.01288968  0.48304925  0.92312277
   0.01510890  0.58752879  0.00490925
   0.00187754  0.69101733  0.06262187
   0.00666662  0.81456590  0.19015422
   0.00545352  0.92385769  0.28960771
   0.01810241  0.02495195  0.38404548
   0.00173594  0.09491354  0.50933475
   0.98515952  0.18092829  0.62118898
   0.10327905  0.30928802  0.79374161
   0.11051500  0.40884264  0.88115142
   0.13221991  0.48626239  0.99897620
   0.12053694  0.58628196  0.08950955
   0.10549606  0.70047925  0.20240418
   0.09986530  0.80230217  0.27971627
   0.09211963  0.91032061  0.39506998
   0.07830328  0.01125029  0.51729604
   0.10095316  0.10439883  0.60110813
   0.09872919  0.20042580  0.71022946
   0.20196679  0.29101732  0.88742931
   0.21056983  0.38061267  0.99431190
   0.21349529  0.48637552  0.09940454
   0.20936952  0.56717483  0.19471030
   0.19307393  0.68120850  0.29412736
   0.19282199  0.79323160  0.41022522
   0.18242498  0.89868833  0.51231923
   0.18319960  0.99796832  0.58579563
   0.18792127  0.09962815  0.67762583
   0.22279785  0.19684440  0.79112457
   0.39323398  0.39762660  0.98863045
   0.38492357  0.51799530  0.07960223
   0.38178401  0.58876754  0.21405933
   0.38970870  0.69809445  0.29080675
   0.39036157  0.78055467  0.39204912
   0.40397421  0.88187947  0.49054689
   0.41571929  0.98993497  0.58847072
   0.41507678  0.09359447  0.68345726
   0.39399116  0.18504646  0.80230967
   0.39737248  0.28071001  0.89064930
   0.48597008  0.39618494  0.06914879
   0.48124964  0.48974872  0.18475398
   0.49974575  0.60207462  0.28218142
   0.50511629  0.68734425  0.40237852
   0.51742215  0.77257456  0.48476618
   0.50666374  0.87274318  0.58517084
   0.49097591  0.97717287  0.67143065
   0.50987446  0.08817831  0.78834312
   0.50172693  0.19770327  0.89317240
   0.49844536  0.31963566  0.99036471
   0.60844840  0.40958057  0.18918982
   0.59762704  0.50586880  0.28448688
   0.61174941  0.59305917  0.39860138
   0.60785601  0.67999134  0.50402895
   0.60677677  0.78747965  0.58782469
   0.59967575  0.86588727  0.69944884
   0.57642813  0.99001324  0.78827719
   0.56327398  0.11334378  0.90371746
   0.59315678  0.21455192  0.00309025
   0.58395835  0.30207510  0.09750032
   0.70067756  0.39210841  0.30127606
   0.70089229  0.51160368  0.38698638
   0.70474936  0.59797159  0.50564866
   0.71755352  0.69554051  0.61694189
   0.71480756  0.78975360  0.71636897
   0.70019395  0.89339984  0.80364161
   0.67454721  0.02244881  0.86381967
   0.68266048  0.09795020  0.99189853
   0.68905432  0.18941849  0.08724994
   0.71728313  0.28867639  0.17620394
   0.80098850  0.40487181  0.40146382
   0.80417779  0.49046395  0.48685242
   0.81275427  0.60689650  0.62732633
   0.80646652  0.69465096  0.71723112
   0.82363084  0.79707438  0.81141252
   0.79740160  0.90707796  0.89142689
   0.78841541  0.99868799  0.00169975
   0.76721036  0.10015915  0.11296019
   0.80399131  0.20506112  0.19206415
   0.79285799  0.30432648  0.30092514
   0.90525924  0.40255649  0.49436723
   0.90949800  0.51898859  0.60309416
   0.92090106  0.60997987  0.70762585
   0.91594012  0.70440007  0.81836024
   0.91088572  0.79664979  0.91041009
   0.90776689  0.90657489  0.01443398
   0.89350356  0.04378379  0.10045502
   0.88051709  0.12120849  0.20560812
   0.88388393  0.19628453  0.29638378
   0.88370376  0.28467061  0.41218775
   0.98425380  0.38538959  0.59412556
   0.01309460  0.50445724  0.71286587
   0.01704520  0.59918421  0.82249387
   0.01022487  0.72205830  0.88533269
   0.01983707  0.81084493  0.00560179
   0.00461959  0.91673834  0.09916149
   0.99727024  0.02673240  0.18348590
   0.01332372  0.11486511  0.29448516
   0.00515804  0.17669838  0.39823060
   0.99005441  0.29092874  0.50140578
   0.10296702  0.39236404  0.70798313
   0.12316911  0.48722237  0.80702908
   0.11455708  0.60065469  0.89011584
   0.09848498  0.69866286  0.99564892
   0.09064254  0.80400388  0.09395451
   0.09028068  0.91209752  0.18235156
   0.10931115  0.02044990  0.27511928
   0.10448291  0.10743508  0.41202447
   0.09276029  0.19630965  0.50525273
   0.10317867  0.28840127  0.61243828
   0.23663027  0.39075005  0.79611708
   0.21150639  0.50417657  0.89074186
   0.21002538  0.60986039  0.99823162
   0.19802710  0.72157518  0.11218682
   0.17612603  0.79230969  0.19394316
   0.20290039  0.90375756  0.30149157
   0.19700083  0.98406424  0.42020344
   0.20168627  0.09509328  0.49467596
   0.21158638  0.19941685  0.59586085
   0.22488322  0.28369957  0.69326295
   0.31453202  0.41113633  0.89549405
   0.28782885  0.50369917  0.01504969
   0.30080447  0.61123129  0.10934949
   0.29722045  0.69081676  0.20257246
   0.28637119  0.80041311  0.28993695
   0.29447307  0.86741120  0.40826092
   0.29378077  0.98759044  0.47049154
   0.30923516  0.08890637  0.57472131
   0.30438604  0.17206979  0.67340893
   0.30134667  0.27497466  0.80327439
