 432 432   0   0
  0.2159961E+02  0.2105280E-08  0.2105280E-08  0.2105280E-08  0.5000000E-15
  1.000000000000000E-004
  CAR 
 Li                                      
      3.27701451     -3.50376308  301      0.23882060      1.00000000
     -3.504  0.0000E+00  0.0000E+00
     -3.481  0.0000E+00  0.0000E+00
     -3.459  0.0000E+00  0.0000E+00
     -3.436  0.0000E+00  0.0000E+00
     -3.413  0.0000E+00  0.0000E+00
     -3.391  0.0000E+00  0.0000E+00
     -3.368  0.1842E-13  0.4163E-15
     -3.346  0.6646E-10  0.1503E-11
     -3.323  0.8264E-07  0.1869E-08
     -3.300  0.3391E-04  0.7682E-06
     -3.278  0.4630E-02  0.1054E-03
     -3.255  0.2130E+00  0.4919E-02
     -3.233  0.3352E+01  0.8067E-01
     -3.210  0.1836E+02  0.4957E+00
     -3.187  0.3555E+02  0.1299E+01
     -3.165  0.2450E+02  0.1853E+01
     -3.142  0.6185E+01  0.1993E+01
     -3.120  0.4273E+01  0.2089E+01
     -3.097  0.2666E+02  0.2692E+01
     -3.074  0.7601E+02  0.4410E+01
     -3.052  0.9348E+02  0.6523E+01
     -3.029  0.5159E+02  0.7689E+01
     -3.007  0.1314E+02  0.7986E+01
     -2.984  0.9502E+01  0.8201E+01
     -2.961  0.4202E+02  0.9150E+01
     -2.939  0.9013E+02  0.1119E+02
     -2.916  0.8452E+02  0.1310E+02
     -2.893  0.3415E+02  0.1387E+02
     -2.871  0.8616E+01  0.1406E+02
     -2.848  0.2398E+02  0.1461E+02
     -2.826  0.7831E+02  0.1638E+02
     -2.803  0.1206E+03  0.1910E+02
     -2.780  0.9047E+02  0.2115E+02
     -2.758  0.3339E+02  0.2190E+02
     -2.735  0.1707E+02  0.2229E+02
     -2.713  0.5811E+02  0.2360E+02
     -2.690  0.1333E+03  0.2661E+02
     -2.667  0.1662E+03  0.3037E+02
     -2.645  0.1143E+03  0.3296E+02
     -2.622  0.4006E+02  0.3386E+02
     -2.600  0.1277E+02  0.3415E+02
     -2.577  0.3885E+02  0.3503E+02
     -2.554  0.9062E+02  0.3708E+02
     -2.532  0.8822E+02  0.3907E+02
     -2.509  0.3574E+02  0.3988E+02
     -2.487  0.1269E+02  0.4016E+02
     -2.464  0.4171E+02  0.4111E+02
     -2.441  0.1095E+03  0.4358E+02
     -2.419  0.1547E+03  0.4708E+02
     -2.396  0.1329E+03  0.5008E+02
     -2.374  0.6988E+02  0.5166E+02
     -2.351  0.4161E+02  0.5260E+02
     -2.328  0.9075E+02  0.5465E+02
     -2.306  0.1721E+03  0.5854E+02
     -2.283  0.2103E+03  0.6330E+02
     -2.261  0.1749E+03  0.6725E+02
     -2.238  0.9319E+02  0.6936E+02
     -2.215  0.3158E+02  0.7007E+02
     -2.193  0.3539E+02  0.7087E+02
     -2.170  0.7737E+02  0.7262E+02
     -2.148  0.8840E+02  0.7462E+02
     -2.125  0.4949E+02  0.7574E+02
     -2.102  0.2257E+02  0.7625E+02
     -2.080  0.5154E+02  0.7741E+02
     -2.057  0.1217E+03  0.8016E+02
     -2.035  0.1788E+03  0.8420E+02
     -2.012  0.1587E+03  0.8779E+02
     -1.989  0.7945E+02  0.8959E+02
     -1.967  0.3834E+02  0.9045E+02
     -1.944  0.8177E+02  0.9230E+02
     -1.922  0.1685E+03  0.9611E+02
     -1.899  0.2150E+03  0.1010E+03
     -1.876  0.1829E+03  0.1051E+03
     -1.854  0.9902E+02  0.1073E+03
     -1.831  0.4014E+02  0.1082E+03
     -1.809  0.5875E+02  0.1096E+03
     -1.786  0.1259E+03  0.1124E+03
     -1.763  0.1651E+03  0.1162E+03
     -1.741  0.1212E+03  0.1189E+03
     -1.718  0.5940E+02  0.1202E+03
     -1.696  0.7724E+02  0.1220E+03
     -1.673  0.1527E+03  0.1254E+03
     -1.650  0.2016E+03  0.1300E+03
     -1.628  0.1912E+03  0.1343E+03
     -1.605  0.1206E+03  0.1370E+03
     -1.583  0.5595E+02  0.1383E+03
     -1.560  0.8460E+02  0.1402E+03
     -1.537  0.1733E+03  0.1441E+03
     -1.515  0.2200E+03  0.1491E+03
     -1.492  0.1850E+03  0.1533E+03
     -1.470  0.9590E+02  0.1554E+03
     -1.447  0.4101E+02  0.1564E+03
     -1.424  0.6773E+02  0.1579E+03
     -1.402  0.1355E+03  0.1610E+03
     -1.379  0.1637E+03  0.1647E+03
     -1.357  0.1079E+03  0.1671E+03
     -1.334  0.4102E+02  0.1680E+03
     -1.311  0.4141E+02  0.1690E+03
     -1.289  0.9536E+02  0.1711E+03
     -1.266  0.1428E+03  0.1744E+03
     -1.244  0.1417E+03  0.1776E+03
     -1.221  0.9781E+02  0.1798E+03
     -1.198  0.1030E+03  0.1821E+03
     -1.176  0.1882E+03  0.1864E+03
     -1.153  0.2607E+03  0.1922E+03
     -1.130  0.2833E+03  0.1986E+03
     -1.108  0.2573E+03  0.2045E+03
     -1.085  0.1755E+03  0.2084E+03
     -1.063  0.1138E+03  0.2110E+03
     -1.040  0.1387E+03  0.2141E+03
     -1.017  0.1936E+03  0.2185E+03
     -0.995  0.2022E+03  0.2231E+03
     -0.972  0.1440E+03  0.2263E+03
     -0.950  0.6823E+02  0.2279E+03
     -0.927  0.5787E+02  0.2292E+03
     -0.904  0.1227E+03  0.2320E+03
     -0.882  0.1787E+03  0.2360E+03
     -0.859  0.1603E+03  0.2396E+03
     -0.837  0.9800E+02  0.2418E+03
     -0.814  0.9260E+02  0.2439E+03
     -0.791  0.1648E+03  0.2477E+03
     -0.769  0.2292E+03  0.2528E+03
     -0.746  0.2478E+03  0.2584E+03
     -0.724  0.2055E+03  0.2631E+03
     -0.701  0.1248E+03  0.2659E+03
     -0.678  0.9934E+02  0.2681E+03
     -0.656  0.1002E+03  0.2704E+03
     -0.633  0.5723E+02  0.2717E+03
     -0.611  0.3174E+02  0.2724E+03
     -0.588  0.8142E+02  0.2743E+03
     -0.565  0.1768E+03  0.2783E+03
     -0.543  0.2421E+03  0.2837E+03
     -0.520  0.2457E+03  0.2893E+03
     -0.498  0.2133E+03  0.2941E+03
     -0.475  0.1809E+03  0.2982E+03
     -0.452  0.1639E+03  0.3019E+03
     -0.430  0.1759E+03  0.3059E+03
     -0.407  0.2166E+03  0.3108E+03
     -0.385  0.2478E+03  0.3164E+03
     -0.362  0.2484E+03  0.3220E+03
     -0.339  0.2207E+03  0.3270E+03
     -0.317  0.1663E+03  0.3307E+03
     -0.294  0.1223E+03  0.3335E+03
     -0.272  0.1266E+03  0.3364E+03
     -0.249  0.1486E+03  0.3397E+03
     -0.226  0.1426E+03  0.3429E+03
     -0.204  0.1337E+03  0.3460E+03
     -0.181  0.1741E+03  0.3499E+03
     -0.159  0.2293E+03  0.3551E+03
     -0.136  0.2651E+03  0.3611E+03
     -0.113  0.2757E+03  0.3673E+03
     -0.091  0.2547E+03  0.3731E+03
     -0.068  0.2015E+03  0.3776E+03
     -0.046  0.1560E+03  0.3811E+03
     -0.023  0.1770E+03  0.3851E+03
     -0.000  0.2153E+03  0.3900E+03
      0.022  0.2118E+03  0.3948E+03
      0.045  0.1832E+03  0.3989E+03
      0.067  0.1484E+03  0.4023E+03
      0.090  0.1179E+03  0.4050E+03
      0.113  0.1204E+03  0.4077E+03
      0.135  0.1452E+03  0.4110E+03
      0.158  0.1838E+03  0.4151E+03
      0.180  0.2185E+03  0.4201E+03
      0.203  0.2163E+03  0.4249E+03
      0.226  0.1980E+03  0.4294E+03
      0.248  0.1971E+03  0.4339E+03
      0.271  0.2008E+03  0.4384E+03
      0.293  0.2102E+03  0.4432E+03
      0.316  0.2163E+03  0.4481E+03
      0.339  0.2088E+03  0.4528E+03
      0.361  0.2050E+03  0.4574E+03
      0.384  0.1988E+03  0.4619E+03
      0.406  0.1869E+03  0.4661E+03
      0.429  0.1836E+03  0.4703E+03
      0.452  0.1920E+03  0.4746E+03
      0.474  0.2047E+03  0.4792E+03
      0.497  0.2223E+03  0.4843E+03
      0.519  0.2411E+03  0.4897E+03
      0.542  0.2552E+03  0.4955E+03
      0.565  0.2629E+03  0.5014E+03
      0.587  0.2673E+03  0.5075E+03
      0.610  0.2599E+03  0.5133E+03
      0.633  0.2501E+03  0.5190E+03
      0.655  0.2517E+03  0.5247E+03
      0.678  0.2552E+03  0.5304E+03
      0.700  0.2456E+03  0.5360E+03
      0.723  0.2383E+03  0.5414E+03
      0.746  0.2406E+03  0.5468E+03
      0.768  0.2312E+03  0.5520E+03
      0.791  0.2202E+03  0.5570E+03
      0.813  0.2254E+03  0.5621E+03
      0.836  0.2262E+03  0.5672E+03
      0.859  0.2256E+03  0.5723E+03
      0.881  0.2342E+03  0.5776E+03
      0.904  0.2361E+03  0.5830E+03
      0.926  0.2243E+03  0.5880E+03
      0.949  0.2147E+03  0.5929E+03
      0.972  0.2218E+03  0.5979E+03
      0.994  0.2354E+03  0.6032E+03
      1.017  0.2325E+03  0.6085E+03
      1.039  0.2084E+03  0.6132E+03
      1.062  0.1858E+03  0.6174E+03
      1.085  0.1738E+03  0.6213E+03
      1.107  0.1679E+03  0.6251E+03
      1.130  0.1848E+03  0.6293E+03
      1.152  0.2060E+03  0.6339E+03
      1.175  0.2092E+03  0.6387E+03
      1.198  0.1905E+03  0.6430E+03
      1.220  0.1590E+03  0.6466E+03
      1.243  0.1359E+03  0.6496E+03
      1.265  0.1301E+03  0.6526E+03
      1.288  0.1403E+03  0.6558E+03
      1.311  0.1502E+03  0.6591E+03
      1.333  0.1610E+03  0.6628E+03
      1.356  0.1673E+03  0.6666E+03
      1.378  0.1558E+03  0.6701E+03
      1.401  0.1505E+03  0.6735E+03
      1.424  0.1671E+03  0.6773E+03
      1.446  0.1777E+03  0.6813E+03
      1.469  0.1757E+03  0.6853E+03
      1.491  0.1832E+03  0.6894E+03
      1.514  0.1869E+03  0.6936E+03
      1.537  0.1831E+03  0.6978E+03
      1.559  0.1803E+03  0.7018E+03
      1.582  0.1813E+03  0.7059E+03
      1.604  0.1899E+03  0.7102E+03
      1.627  0.1954E+03  0.7146E+03
      1.650  0.1877E+03  0.7189E+03
      1.672  0.1855E+03  0.7231E+03
      1.695  0.1938E+03  0.7275E+03
      1.717  0.1988E+03  0.7320E+03
      1.740  0.1893E+03  0.7362E+03
      1.763  0.1734E+03  0.7402E+03
      1.785  0.1654E+03  0.7439E+03
      1.808  0.1700E+03  0.7477E+03
      1.830  0.1649E+03  0.7515E+03
      1.853  0.1542E+03  0.7549E+03
      1.876  0.1496E+03  0.7583E+03
      1.898  0.1400E+03  0.7615E+03
      1.921  0.1323E+03  0.7645E+03
      1.943  0.1378E+03  0.7676E+03
      1.966  0.1405E+03  0.7708E+03
      1.989  0.1338E+03  0.7738E+03
      2.011  0.1332E+03  0.7768E+03
      2.034  0.1310E+03  0.7798E+03
      2.056  0.1171E+03  0.7824E+03
      2.079  0.1065E+03  0.7848E+03
      2.102  0.1035E+03  0.7872E+03
      2.124  0.9449E+02  0.7893E+03
      2.147  0.9110E+02  0.7914E+03
      2.169  0.9015E+02  0.7934E+03
      2.192  0.7155E+02  0.7950E+03
      2.215  0.3512E+02  0.7958E+03
      2.237  0.1351E+02  0.7961E+03
      2.260  0.2698E+02  0.7967E+03
      2.283  0.5570E+02  0.7980E+03
      2.305  0.6753E+02  0.7995E+03
      2.328  0.6243E+02  0.8009E+03
      2.350  0.4394E+02  0.8019E+03
      2.373  0.3671E+02  0.8027E+03
      2.396  0.4459E+02  0.8038E+03
      2.418  0.5511E+02  0.8050E+03
      2.441  0.7515E+02  0.8067E+03
      2.463  0.8807E+02  0.8087E+03
      2.486  0.9531E+02  0.8108E+03
      2.509  0.1130E+03  0.8134E+03
      2.531  0.1295E+03  0.8163E+03
      2.554  0.1273E+03  0.8192E+03
      2.576  0.1266E+03  0.8221E+03
      2.599  0.1383E+03  0.8252E+03
      2.622  0.1436E+03  0.8284E+03
      2.644  0.1431E+03  0.8317E+03
      2.667  0.1436E+03  0.8349E+03
      2.689  0.1396E+03  0.8381E+03
      2.712  0.1208E+03  0.8408E+03
      2.735  0.1004E+03  0.8431E+03
      2.757  0.8624E+02  0.8450E+03
      2.780  0.7998E+02  0.8468E+03
      2.802  0.7460E+02  0.8485E+03
      2.825  0.7958E+02  0.8503E+03
      2.848  0.9791E+02  0.8525E+03
      2.870  0.1104E+03  0.8550E+03
      2.893  0.1099E+03  0.8575E+03
      2.915  0.1169E+03  0.8601E+03
      2.938  0.1154E+03  0.8628E+03
      2.961  0.8581E+02  0.8647E+03
      2.983  0.4364E+02  0.8657E+03
      3.006  0.1261E+02  0.8660E+03
      3.028  0.1649E+01  0.8660E+03
      3.051  0.8494E-01  0.8660E+03
      3.074  0.1604E-02  0.8660E+03
      3.096  0.1068E-04  0.8660E+03
      3.119  0.2442E-07  0.8660E+03
      3.141  0.1881E-10  0.8660E+03
      3.164  0.4912E-14  0.8660E+03
      3.187  0.0000E+00  0.8660E+03
      3.209  0.0000E+00  0.8660E+03
      3.232  0.0000E+00  0.8660E+03
      3.254  0.0000E+00  0.8660E+03
      3.277  0.0000E+00  0.8660E+03
