 running on   64 total cores
 distrk:  each k-point on   32 cores,    2 groups
 distr:  one band on   32 cores,    1 groups
 vasp.6.2.1 16May21 (build Nov 23 2021 15:40:41) complex                        
  
 POSCAR found type information on POSCAR Li
 POSCAR found :  1 types and     432 ions
 scaLAPACK will be used
 -----------------------------------------------------------------------------
|                                                                             |
|           W    W    AA    RRRRR   N    N  II  N    N   GGGG   !!!           |
|           W    W   A  A   R    R  NN   N  II  NN   N  G    G  !!!           |
|           W    W  A    A  R    R  N N  N  II  N N  N  G       !!!           |
|           W WW W  AAAAAA  RRRRR   N  N N  II  N  N N  G  GGG   !            |
|           WW  WW  A    A  R   R   N   NN  II  N   NN  G    G                |
|           W    W  A    A  R    R  N    N  II  N    N   GGGG   !!!           |
|                                                                             |
|     For optimal performance we recommend to set                             |
|       NCORE = 2 up to number-of-cores-per-socket                            |
|     NCORE specifies how many cores store one orbital (NPAR=cpu/NCORE).      |
|     This setting can greatly improve the performance of VASP for DFT.       |
|     The default, NCORE=1 might be grossly inefficient on modern             |
|     multi-core architectures or massively parallel machines. Do your        |
|     own testing! More info at https://www.vasp.at/wiki/index.php/NCORE      |
|     Unfortunately you need to use the default for GW and RPA                |
|     calculations (for HF NCORE is supported but not extensively tested      |
|     yet).                                                                   |
|                                                                             |
 -----------------------------------------------------------------------------

 -----------------------------------------------------------------------------
|                                                                             |
|               ----> ADVICE to this user running VASP <----                  |
|                                                                             |
|     You have a (more or less) 'large supercell' and for larger cells it     |
|     might be more efficient to use real-space projection operators.         |
|     Therefore, try LREAL= Auto in the INCAR file.                           |
|     Mind: If you want to do very accurate calculations, keep the            |
|     reciprocal projection scheme (i.e. LREAL=.FALSE.).                      |
|                                                                             |
 -----------------------------------------------------------------------------

 LDA part: xc-table for Pade appr. of Perdew
 POSCAR found type information on POSCAR Li
 POSCAR found :  1 types and     432 ions
 POSCAR, INCAR and KPOINTS ok, starting setup
 FFT: planning ...
 WAVECAR not read
 entering main loop
       N       E                     dE             d eps       ncg     rms          rms(c)
DAV:   1    -0.258328813296E+03   -0.25833E+03   -0.10290E+05  3464   0.649E+02
DAV:   2    -0.758540063155E+03   -0.50021E+03   -0.45701E+03  3988   0.653E+01
DAV:   3    -0.794841902107E+03   -0.36302E+02   -0.33203E+02  4432   0.139E+01
DAV:   4    -0.796081547062E+03   -0.12396E+01   -0.12227E+01  3984   0.283E+00
DAV:   5    -0.796110239274E+03   -0.28692E-01   -0.28654E-01  4160   0.457E-01    0.919E+00
DAV:   6    -0.788142487810E+03    0.79678E+01   -0.10939E+01  3944   0.412E+00    0.578E+00
DAV:   7    -0.786202083990E+03    0.19404E+01   -0.82712E+00  4056   0.403E+00    0.450E+00
DAV:   8    -0.783505250253E+03    0.26968E+01   -0.41893E+00  3992   0.239E+00    0.211E+00
DAV:   9    -0.783253236931E+03    0.25201E+00   -0.23191E+00  3792   0.123E+00    0.114E+00
DAV:  10    -0.783298756872E+03   -0.45520E-01   -0.47272E-01  3968   0.729E-01    0.936E-01
DAV:  11    -0.783211379058E+03    0.87378E-01   -0.17392E-01  3904   0.489E-01    0.514E-01
DAV:  12    -0.783202152634E+03    0.92264E-02   -0.46593E-02  3736   0.192E-01    0.235E-01
DAV:  13    -0.783201988283E+03    0.16435E-03   -0.11934E-02  3936   0.114E-01    0.134E-01
DAV:  14    -0.783201446952E+03    0.54133E-03   -0.34815E-03  3936   0.778E-02    0.931E-02
DAV:  15    -0.783200632220E+03    0.81473E-03   -0.12051E-03  3928   0.457E-02    0.467E-02
DAV:  16    -0.783200509911E+03    0.12231E-03   -0.64953E-04  3720   0.224E-02    0.163E-02
DAV:  17    -0.783200518422E+03   -0.85106E-05   -0.95924E-05  4112   0.117E-02
   1 F= -.78320052E+03 E0= -.78315608E+03  d E =-.888799E-01
