Li                                      
           1
    21.052800    0.000000    0.000000
     0.000000   21.052800    0.000000
     0.000000    0.000000   21.052800
   Li
   432
Direct configuration=     1
   0.00520555  0.01847021  0.99652570
   0.92432992  0.08633306  0.09726281
   0.81373450  0.16500311  0.14870318
   0.73293066  0.23741275  0.26400435
   0.68690159  0.33579262  0.33490416
   0.60574433  0.43061325  0.42690242
   0.49879631  0.49892107  0.50047382
   0.42457561  0.59355072  0.57772102
   0.32937155  0.66518845  0.68275854
   0.24549348  0.75995441  0.78237991
   0.16222640  0.82749468  0.86595097
   0.09432788  0.95032883  0.92807356
   0.09735505  0.92432332  0.09417803
   0.00415506  0.98326224  0.15050847
   0.89478712  0.06517380  0.23524799
   0.83282662  0.14583496  0.33194763
   0.75698510  0.22691876  0.41878497
   0.68531379  0.34493825  0.51367887
   0.57941783  0.43147325  0.59282345
   0.53067731  0.52962064  0.66742145
   0.41381547  0.54470688  0.75002202
   0.34629249  0.64689124  0.83937106
   0.26042994  0.74121704  0.90202133
   0.16595467  0.83088571  0.99092024
   0.20594025  0.82120958  0.14038453
   0.09009923  0.88524032  0.24264834
   0.99676590  0.97995914  0.32682023
   0.92504429  0.07631133  0.40772850
   0.83335556  0.14377825  0.49756433
   0.77691498  0.24368584  0.59169832
   0.67913836  0.35394304  0.65362865
   0.60025634  0.45032525  0.73710105
   0.52266607  0.49371996  0.81493332
   0.41689737  0.57673791  0.92453815
   0.32752440  0.66594021  0.99880134
   0.27110221  0.73655484  0.07905232
   0.25827376  0.73997654  0.25632838
   0.18173482  0.82228583  0.32221172
   0.09134778  0.93080115  0.40164013
   0.99716094  0.98925566  0.48017887
   0.91513332  0.07220556  0.58644272
   0.84784124  0.16533178  0.68066062
   0.74138414  0.25747850  0.74506605
   0.66292272  0.35639257  0.84946955
   0.58943084  0.41656564  0.92953789
   0.50322506  0.49129438  0.97179111
   0.39380142  0.57001033  0.08866669
   0.35808163  0.65543754  0.17438720
   0.34153041  0.68209627  0.33379164
   0.27269258  0.74393813  0.42215826
   0.16698563  0.82877097  0.49252139
   0.08539067  0.90001777  0.57930484
   0.98493067  0.00794487  0.65018593
   0.91300637  0.09040833  0.74848377
   0.82823514  0.16693710  0.83707537
   0.75832300  0.24988759  0.92263810
   0.65762621  0.33416654  0.99511462
   0.56460770  0.41896280  0.05007124
   0.46916596  0.50494325  0.16854832
   0.42505036  0.58893785  0.27601891
   0.41723731  0.57966856  0.40429178
   0.35527113  0.67562360  0.50163489
   0.24695664  0.74329759  0.58860283
   0.17113353  0.82505051  0.67060757
   0.07397767  0.90417376  0.75865064
   0.01463397  0.01127072  0.83055986
   0.91977918  0.09313401  0.91571552
   0.83147139  0.15410211  0.00243523
   0.72673553  0.23576482  0.07183353
   0.66033425  0.34710208  0.15871684
   0.58794055  0.41743771  0.25855505
   0.52644059  0.51743519  0.34486540
   0.09017761  0.06820470  0.91862114
   0.02257463  0.15088358  0.01252627
   0.91945387  0.24015315  0.07551435
   0.80899186  0.31833688  0.15727030
   0.75167512  0.42697633  0.23982540
   0.68072274  0.50839236  0.34417555
   0.59593068  0.59920243  0.42641558
   0.47822314  0.66788319  0.48187610
   0.42937770  0.76884747  0.60051008
   0.33987597  0.84163520  0.68170541
   0.21988762  0.91508612  0.75483918
   0.18179440  0.00870337  0.83635089
   0.18488351  0.01359322  0.98882929
   0.09954294  0.07490158  0.09711879
   0.98877597  0.14046979  0.16660617
   0.89327879  0.25543445  0.25293082
   0.82508922  0.32688732  0.34705994
   0.74583197  0.40421242  0.39037012
   0.67878459  0.50735525  0.49591396
   0.57620177  0.60217567  0.57429073
   0.49646365  0.66477742  0.67384329
   0.41056412  0.75382274  0.76747224
   0.33314715  0.86560280  0.82000316
   0.24116976  0.90707904  0.92308030
   0.27079509  0.91869031  0.07135239
   0.19263988  0.97612269  0.17128457
   0.09305706  0.05341118  0.22990369
   0.98986308  0.12836912  0.29481002
   0.90741195  0.23185530  0.39750453
   0.84886495  0.35092359  0.48616313
   0.74449380  0.42422543  0.58922675
   0.66730275  0.51710892  0.65006748
   0.60346817  0.60959711  0.75599435
   0.49005985  0.66412707  0.85466558
   0.41643528  0.76786753  0.90644727
   0.32480366  0.83449687  0.00392769
   0.33807016  0.82711210  0.14267363
   0.28583809  0.90890349  0.23851178
   0.18499859  0.98561124  0.31528605
   0.10661801  0.07945999  0.41019395
   0.99411842  0.15511698  0.46638171
   0.91809083  0.23710165  0.58449009
   0.83125585  0.32416626  0.64308840
   0.75452763  0.42578891  0.71410115
   0.66806558  0.48359114  0.82985778
   0.59576727  0.58576589  0.90698879
   0.48841975  0.64256484  0.98473772
   0.40614913  0.73443843  0.08921622
   0.39456052  0.76731228  0.26405851
   0.32808586  0.83784370  0.33532477
   0.23574397  0.90853920  0.42712583
   0.18202417  0.00369434  0.49746190
   0.07430819  0.09641514  0.55223510
   0.99411733  0.16828421  0.67718779
   0.92396263  0.25112821  0.76402309
   0.82489936  0.34726421  0.84565905
   0.75690405  0.42796918  0.92802714
   0.66563326  0.49349557  0.00694594
   0.55061415  0.59473962  0.08875741
   0.46778309  0.66338212  0.16666076
   0.52661283  0.68262867  0.32715067
   0.42687953  0.75158010  0.42161240
   0.32190299  0.82469927  0.49674649
   0.25270128  0.92197838  0.58959392
   0.17706900  0.00141987  0.66473633
   0.07460821  0.08056516  0.74146181
   0.99743282  0.16856860  0.85521751
   0.93009532  0.24025833  0.93754273
   0.82172759  0.30933709  0.02227899
   0.76070415  0.42474906  0.06625798
   0.64209485  0.48886180  0.14744385
   0.60656361  0.57251165  0.22904248
   0.14872988  0.16979335  0.82955043
   0.08407022  0.25765537  0.92081051
   0.00489314  0.33543114  0.01638344
   0.91059107  0.39254096  0.06498866
   0.84139172  0.49948398  0.15907454
   0.75349711  0.56903305  0.26160409
   0.66859088  0.66150374  0.31103844
   0.58695171  0.76477967  0.41112298
   0.49880337  0.84496444  0.51694102
   0.40701586  0.93715299  0.58521265
   0.32135985  0.98578449  0.68102766
   0.24962052  0.09710664  0.73842547
   0.25770898  0.10137835  0.91981643
   0.17421887  0.17774861  0.00335770
   0.08104910  0.26156765  0.11519070
   0.97884342  0.33358775  0.17500608
   0.88457773  0.41761528  0.27340889
   0.83322144  0.50612671  0.34628732
   0.74939001  0.60304689  0.41673859
   0.67806505  0.68606655  0.51640034
   0.57898460  0.75325378  0.58247105
   0.49584674  0.85984349  0.69461786
   0.41611972  0.91747715  0.76024876
   0.30388624  0.00258677  0.82587495
   0.31483910  0.03628008  0.98517495
   0.24529398  0.11751153  0.08256933
   0.14873952  0.16890627  0.17484937
   0.07392164  0.24417327  0.23742450
   0.99968569  0.32233152  0.32909461
   0.94457752  0.42535533  0.41537173
   0.84797101  0.49414055  0.46689343
   0.76405758  0.60271866  0.57646632
   0.65540652  0.67960806  0.66028665
   0.58188811  0.75967137  0.77560573
   0.49511720  0.84574964  0.83696654
   0.40488477  0.93138160  0.91657119
   0.42908885  0.91825419  0.07028369
   0.33698466  0.00629960  0.14914743
   0.26485872  0.08667821  0.23844378
   0.18833906  0.15098101  0.31651178
   0.08335955  0.22867033  0.38253673
   0.99782927  0.31104901  0.49132033
   0.92059255  0.39811089  0.58742778
   0.85965796  0.49523249  0.65714342
   0.75230160  0.59521756  0.74871588
   0.66078921  0.68199761  0.85915493
   0.56762484  0.76903401  0.91677288
   0.50656046  0.84478446  0.00905980
   0.50005839  0.82286861  0.17280681
   0.39856827  0.91142991  0.25054725
   0.32602196  0.00965627  0.35214043
   0.25179839  0.09691686  0.41344181
   0.16111355  0.16462808  0.49051423
   0.05144511  0.23655767  0.57020640
   0.99281095  0.33064695  0.65952188
   0.89464438  0.39671988  0.76462428
   0.84277039  0.50069073  0.83150738
   0.74403514  0.58712342  0.92697513
   0.64853663  0.67374041  0.01107890
   0.55210628  0.73927063  0.10284746
   0.56021806  0.75645072  0.24278020
   0.48945462  0.83993017  0.32944122
   0.41961410  0.91321433  0.42433892
   0.29591453  0.98680176  0.49774236
   0.25814725  0.09404435  0.58107391
   0.15653026  0.16699484  0.64771589
   0.07518140  0.25260697  0.74210866
   0.00263257  0.34333597  0.84743685
   0.90972877  0.40306331  0.94618589
   0.83602343  0.52808111  0.99367076
   0.74141549  0.59503769  0.09413723
   0.66432130  0.66038171  0.16741470
   0.24949019  0.25031770  0.74990378
   0.15155642  0.32993652  0.82827487
   0.09566215  0.41696786  0.90952668
   0.01725515  0.48753974  0.00221718
   0.93558145  0.60099204  0.05930281
   0.82109725  0.68390662  0.16426502
   0.73041567  0.76074335  0.26407602
   0.65896599  0.84706743  0.31002487
   0.59046206  0.94701902  0.43604603
   0.49621266  0.98850049  0.49425587
   0.41264234  0.07169600  0.58688779
   0.32911852  0.18407507  0.66629236
   0.34757483  0.19170036  0.82551353
   0.24369352  0.25046425  0.92613674
   0.15625827  0.34904784  0.01370709
   0.07867469  0.42680645  0.13172740
   0.98736047  0.49146919  0.17868440
   0.90664882  0.56445251  0.25061147
   0.82709489  0.66320426  0.33773960
   0.73831449  0.74147619  0.43570823
   0.65317911  0.82482189  0.50925827
   0.58785317  0.91634322  0.58442674
   0.50884378  0.99977671  0.66538585
   0.41280446  0.09091747  0.75192560
   0.44040210  0.09229492  0.91572184
   0.34635556  0.16433325  0.98527920
   0.23512740  0.24819139  0.08871680
   0.18057007  0.35162107  0.19497886
   0.06359971  0.41843116  0.26329792
   0.99847553  0.48901555  0.32507088
   0.91349939  0.58834918  0.41462342
   0.85744395  0.66415155  0.49958977
   0.77353237  0.76155714  0.58287802
   0.67953974  0.83786785  0.67873013
   0.58867088  0.92068730  0.75911793
   0.51113336  0.99301039  0.80712583
   0.51463714  0.99664908  0.00255133
   0.40485065  0.07964216  0.07393784
   0.34136239  0.17377365  0.16560552
   0.24509363  0.26190932  0.24952132
   0.15112593  0.32717508  0.34810730
   0.07410916  0.42355094  0.42195330
   0.99964657  0.50132996  0.48437285
   0.91058081  0.56567949  0.57716918
   0.84118745  0.67399192  0.67776903
   0.73085892  0.74866880  0.78297640
   0.64990851  0.83882778  0.82246025
   0.58254973  0.93028549  0.91180399
   0.61112198  0.89928129  0.07638383
   0.49869682  0.99857209  0.15712003
   0.44849963  0.07647179  0.26225461
   0.35009612  0.15965237  0.32965753
   0.26354139  0.27520772  0.39852477
   0.14984839  0.32808868  0.49308482
   0.07782293  0.40949269  0.55253812
   0.98560967  0.46714933  0.66899780
   0.90745247  0.58978205  0.73120733
   0.82295441  0.66628457  0.82914743
   0.74370430  0.75019162  0.91894535
   0.65599122  0.83368638  0.99560667
   0.64202921  0.81299268  0.17157387
   0.56864292  0.93746349  0.22887765
   0.48968545  0.99262190  0.33947515
   0.40612120  0.10749235  0.43423412
   0.33306772  0.18944913  0.49580518
   0.23564485  0.24699645  0.58297200
   0.16520031  0.33586911  0.65882807
   0.06774411  0.40233800  0.74727662
   0.97679543  0.49468048  0.82639666
   0.93237474  0.59533351  0.92214924
   0.82508936  0.67594953  0.00145604
   0.75408162  0.76864923  0.09419039
   0.29974331  0.34120100  0.65501636
   0.21731842  0.42414130  0.73799896
   0.16052107  0.48263199  0.83857317
   0.05481734  0.58414111  0.93051827
   0.00646149  0.67444742  0.97961059
   0.91070408  0.75366679  0.07967537
   0.83383759  0.83050805  0.18454853
   0.74486461  0.92208506  0.21413475
   0.66728805  0.00239127  0.32090189
   0.57909971  0.07008127  0.41787171
   0.49916258  0.17433374  0.50650860
   0.42314955  0.26193938  0.58497964
   0.42425883  0.28275825  0.75545565
   0.29171771  0.34188114  0.83243642
   0.22255683  0.41264835  0.93928692
   0.13326191  0.50553537  0.01191019
   0.08565673  0.58754480  0.09956393
   0.99380423  0.67963352  0.16540170
   0.90830820  0.74339832  0.26326172
   0.84152022  0.85141031  0.33189440
   0.74627133  0.92025099  0.41944944
   0.67414416  0.00885712  0.50992290
   0.57318566  0.08009998  0.58310605
   0.50037761  0.18142561  0.67253835
   0.52072150  0.15850164  0.83267672
   0.40997351  0.26822603  0.90601796
   0.32881773  0.32562097  0.98944341
   0.25126497  0.43972691  0.07637076
   0.19277990  0.51268000  0.17491998
   0.08792935  0.58050288  0.25318453
   0.00769464  0.65224072  0.34396526
   0.91766655  0.74162365  0.41788809
   0.83120825  0.81436688  0.47783590
   0.76825332  0.91451418  0.56480341
   0.66356721  0.98550624  0.65668916
   0.61222999  0.08970125  0.72926919
   0.59702642  0.07035256  0.88973367
   0.51461845  0.17002415  0.99810281
   0.42160195  0.27639464  0.06660900
   0.32556018  0.35728031  0.15342506
   0.25649367  0.41620390  0.27681626
   0.17337738  0.48592384  0.34093110
   0.08520589  0.54443589  0.42534776
   0.99575471  0.67003535  0.48297656
   0.93474093  0.73135970  0.59404546
   0.81974010  0.82362112  0.68483050
   0.76332452  0.92076872  0.75981697
   0.68391755  0.99397840  0.82463590
   0.64027287  0.97163740  0.99381563
   0.59008166  0.08736637  0.08623402
   0.47803324  0.15667790  0.15352252
   0.40939645  0.27308029  0.24990399
   0.32573325  0.33630962  0.33709593
   0.24091171  0.41517598  0.41527898
   0.18649347  0.50574330  0.49073536
   0.06637217  0.57541941  0.59131215
   0.98742538  0.66733259  0.67106094
   0.92740462  0.75370134  0.78666155
   0.83508828  0.84008357  0.83566540
   0.77066339  0.91284427  0.90448052
   0.74686838  0.88985046  0.07045485
   0.65098627  0.00962565  0.14300507
   0.56332615  0.06910338  0.24505907
   0.49851318  0.17596851  0.34799001
   0.44471035  0.27127800  0.44337190
   0.32514530  0.35067042  0.52276612
   0.24161451  0.41297073  0.58362626
   0.15062881  0.48992282  0.66444181
   0.05455987  0.58247736  0.75281462
   0.99057087  0.65704528  0.84775887
   0.89662613  0.75562177  0.91445929
   0.82852454  0.85537475  0.99808485
   0.42402187  0.43493556  0.60812051
   0.31712014  0.49776143  0.65433081
   0.24053594  0.56869150  0.75569043
   0.15619035  0.63938545  0.82268506
   0.06809444  0.72221989  0.90370049
   0.00995715  0.84093851  0.01302571
   0.91852287  0.89167307  0.08689237
   0.82091946  0.99021036  0.14600748
   0.74083564  0.09699913  0.22623196
   0.64956515  0.16482533  0.33213249
   0.60400861  0.26975391  0.42513763
   0.52068216  0.36037773  0.52729240
   0.50774008  0.34829091  0.66532588
   0.40890537  0.42235201  0.73273708
   0.31349776  0.49060833  0.83686072
   0.24784582  0.58344315  0.93396338
   0.17302795  0.66581306  0.00309705
   0.07696633  0.77007945  0.08354267
   0.00230877  0.82528712  0.17389554
   0.92610585  0.89486343  0.23908584
   0.82343942  0.98507242  0.32671115
   0.73643384  0.09107524  0.40561690
   0.66975873  0.15551487  0.52703057
   0.58945908  0.25926194  0.58566100
   0.59381350  0.25336096  0.76156414
   0.49694227  0.36059382  0.83848918
   0.39580842  0.43458227  0.90065106
   0.33218652  0.49254993  0.97949748
   0.27424094  0.57024095  0.07690648
   0.19963867  0.66461464  0.16120961
   0.09878710  0.75210590  0.24827634
   0.99674965  0.82932118  0.34106215
   0.90019178  0.89613190  0.42559767
   0.85401129  0.00298666  0.47355646
   0.76262108  0.07115976  0.60194921
   0.67364362  0.16318331  0.63533849
   0.68094687  0.16641191  0.80860936
   0.59485829  0.23947396  0.91599619
   0.51196150  0.34016354  0.99407233
   0.40564538  0.40065811  0.07175727
   0.32394812  0.48006109  0.18616133
   0.25697589  0.59942777  0.26050866
   0.17192010  0.66264973  0.35877734
   0.08476056  0.73820503  0.40321509
   0.98830171  0.82361177  0.48481045
   0.92135272  0.88888272  0.57942032
   0.84978412  0.96609523  0.67915849
   0.73942834  0.06187778  0.74069792
   0.74707531  0.06902271  0.92703658
   0.68579679  0.14656163  0.97813730
   0.58485618  0.24640586  0.07391071
   0.52327049  0.35326817  0.16636987
   0.43653163  0.40627938  0.26297363
   0.34555203  0.49602714  0.32191704
   0.28413151  0.58093218  0.42938334
   0.16042358  0.65444330  0.51087650
   0.08044730  0.73747996  0.58524317
   0.00320822  0.81300642  0.66820669
   0.93604115  0.90424672  0.75626347
   0.85109740  0.00012911  0.85073707
   0.83899698  0.00199887  0.01926565
   0.74817768  0.07045142  0.07474129
   0.67666562  0.17150148  0.16595779
   0.58880478  0.25091904  0.24657870
   0.52591706  0.34367042  0.35228861
   0.42405031  0.40467476  0.40808743
   0.34804974  0.48853093  0.50174353
   0.25072039  0.57863342  0.58906204
   0.16055381  0.65777601  0.67482730
   0.07523080  0.74500382  0.77952970
   0.99838971  0.83131472  0.88005000
   0.93066463  0.91618343  0.93581974
