 432 432   0   0
  0.1857636E+02  0.2002080E-08  0.2002080E-08  0.2002080E-08  0.5000000E-15
  1.000000000000000E-004
  CAR 
 Li                                      
      3.92351354     -3.31309936  301      0.63416938      1.00000000
     -3.313  0.0000E+00  0.0000E+00
     -3.289  0.0000E+00  0.0000E+00
     -3.265  0.0000E+00  0.0000E+00
     -3.241  0.0000E+00  0.0000E+00
     -3.217  0.0000E+00  0.0000E+00
     -3.192  0.0000E+00  0.0000E+00
     -3.168  0.0000E+00  0.0000E+00
     -3.144  0.1842E-11  0.4444E-13
     -3.120  0.6024E-08  0.1454E-09
     -3.096  0.5556E-05  0.1342E-06
     -3.072  0.1460E-02  0.3535E-04
     -3.048  0.1109E+00  0.2710E-02
     -3.024  0.2485E+01  0.6265E-01
     -3.000  0.1683E+02  0.4687E+00
     -2.975  0.3529E+02  0.1320E+01
     -2.951  0.2316E+02  0.1879E+01
     -2.927  0.4799E+01  0.1995E+01
     -2.903  0.2501E+01  0.2055E+01
     -2.879  0.2183E+02  0.2581E+01
     -2.855  0.7493E+02  0.4389E+01
     -2.831  0.9510E+02  0.6683E+01
     -2.807  0.4591E+02  0.7790E+01
     -2.782  0.8528E+01  0.7996E+01
     -2.758  0.6979E+01  0.8164E+01
     -2.734  0.4071E+02  0.9146E+01
     -2.710  0.9157E+02  0.1136E+02
     -2.686  0.7920E+02  0.1327E+02
     -2.662  0.2698E+02  0.1392E+02
     -2.638  0.5843E+01  0.1406E+02
     -2.614  0.2398E+02  0.1464E+02
     -2.589  0.8499E+02  0.1669E+02
     -2.565  0.1218E+03  0.1962E+02
     -2.541  0.7592E+02  0.2146E+02
     -2.517  0.2142E+02  0.2197E+02
     -2.493  0.1561E+02  0.2235E+02
     -2.469  0.6665E+02  0.2396E+02
     -2.445  0.1451E+03  0.2746E+02
     -2.421  0.1580E+03  0.3127E+02
     -2.396  0.8852E+02  0.3340E+02
     -2.372  0.2295E+02  0.3396E+02
     -2.348  0.1009E+02  0.3420E+02
     -2.324  0.4647E+02  0.3532E+02
     -2.300  0.9594E+02  0.3764E+02
     -2.276  0.7400E+02  0.3942E+02
     -2.252  0.2264E+02  0.3997E+02
     -2.228  0.1428E+02  0.4031E+02
     -2.203  0.5775E+02  0.4170E+02
     -2.179  0.1297E+03  0.4483E+02
     -2.155  0.1535E+03  0.4854E+02
     -2.131  0.1028E+03  0.5102E+02
     -2.107  0.3981E+02  0.5198E+02
     -2.083  0.4049E+02  0.5296E+02
     -2.059  0.1180E+03  0.5580E+02
     -2.035  0.1980E+03  0.6058E+02
     -2.011  0.2002E+03  0.6541E+02
     -1.986  0.1300E+03  0.6854E+02
     -1.962  0.5100E+02  0.6977E+02
     -1.938  0.1886E+02  0.7023E+02
     -1.914  0.4931E+02  0.7142E+02
     -1.890  0.9264E+02  0.7365E+02
     -1.866  0.7164E+02  0.7538E+02
     -1.842  0.2488E+02  0.7598E+02
     -1.818  0.2374E+02  0.7655E+02
     -1.793  0.8370E+02  0.7857E+02
     -1.769  0.1602E+03  0.8244E+02
     -1.745  0.1702E+03  0.8654E+02
     -1.721  0.1041E+03  0.8905E+02
     -1.697  0.3965E+02  0.9001E+02
     -1.673  0.4543E+02  0.9111E+02
     -1.649  0.1259E+03  0.9414E+02
     -1.625  0.2036E+03  0.9905E+02
     -1.600  0.2029E+03  0.1039E+03
     -1.576  0.1244E+03  0.1070E+03
     -1.552  0.4177E+02  0.1080E+03
     -1.528  0.3242E+02  0.1087E+03
     -1.504  0.9877E+02  0.1111E+03
     -1.480  0.1651E+03  0.1151E+03
     -1.456  0.1379E+03  0.1184E+03
     -1.432  0.6169E+02  0.1199E+03
     -1.407  0.5331E+02  0.1212E+03
     -1.383  0.1296E+03  0.1243E+03
     -1.359  0.1940E+03  0.1290E+03
     -1.335  0.1845E+03  0.1335E+03
     -1.311  0.1257E+03  0.1365E+03
     -1.287  0.6116E+02  0.1380E+03
     -1.263  0.6453E+02  0.1395E+03
     -1.239  0.1480E+03  0.1431E+03
     -1.214  0.2230E+03  0.1485E+03
     -1.190  0.1952E+03  0.1532E+03
     -1.166  0.9423E+02  0.1555E+03
     -1.142  0.2986E+02  0.1562E+03
     -1.118  0.5193E+02  0.1574E+03
     -1.094  0.1269E+03  0.1605E+03
     -1.070  0.1594E+03  0.1643E+03
     -1.046  0.1077E+03  0.1669E+03
     -1.022  0.4166E+02  0.1679E+03
     -0.997  0.3394E+02  0.1688E+03
     -0.973  0.8939E+02  0.1709E+03
     -0.949  0.1388E+03  0.1743E+03
     -0.925  0.1347E+03  0.1775E+03
     -0.901  0.9756E+02  0.1799E+03
     -0.877  0.1044E+03  0.1824E+03
     -0.853  0.1848E+03  0.1868E+03
     -0.829  0.2462E+03  0.1928E+03
     -0.804  0.2599E+03  0.1990E+03
     -0.780  0.2341E+03  0.2047E+03
     -0.756  0.1617E+03  0.2086E+03
     -0.732  0.1088E+03  0.2112E+03
     -0.708  0.1415E+03  0.2146E+03
     -0.684  0.1858E+03  0.2191E+03
     -0.660  0.1761E+03  0.2234E+03
     -0.636  0.1227E+03  0.2263E+03
     -0.611  0.6687E+02  0.2279E+03
     -0.587  0.6903E+02  0.2296E+03
     -0.563  0.1394E+03  0.2330E+03
     -0.539  0.1803E+03  0.2373E+03
     -0.515  0.1358E+03  0.2406E+03
     -0.491  0.7951E+02  0.2425E+03
     -0.467  0.1042E+03  0.2450E+03
     -0.443  0.1767E+03  0.2493E+03
     -0.418  0.2185E+03  0.2546E+03
     -0.394  0.2130E+03  0.2597E+03
     -0.370  0.1758E+03  0.2639E+03
     -0.346  0.1313E+03  0.2671E+03
     -0.322  0.1133E+03  0.2698E+03
     -0.298  0.7055E+02  0.2715E+03
     -0.274  0.3257E+02  0.2723E+03
     -0.250  0.6576E+02  0.2739E+03
     -0.225  0.1396E+03  0.2773E+03
     -0.201  0.1983E+03  0.2821E+03
     -0.177  0.2212E+03  0.2874E+03
     -0.153  0.2028E+03  0.2923E+03
     -0.129  0.1699E+03  0.2964E+03
     -0.105  0.1627E+03  0.3003E+03
     -0.081  0.1737E+03  0.3045E+03
     -0.057  0.1885E+03  0.3090E+03
     -0.033  0.2014E+03  0.3139E+03
     -0.008  0.2078E+03  0.3189E+03
      0.016  0.2084E+03  0.3239E+03
      0.040  0.1883E+03  0.3285E+03
      0.064  0.1381E+03  0.3318E+03
      0.088  0.1156E+03  0.3346E+03
      0.112  0.1500E+03  0.3382E+03
      0.136  0.1677E+03  0.3423E+03
      0.160  0.1624E+03  0.3462E+03
      0.185  0.1825E+03  0.3506E+03
      0.209  0.2153E+03  0.3558E+03
      0.233  0.2384E+03  0.3615E+03
      0.257  0.2369E+03  0.3672E+03
      0.281  0.2183E+03  0.3725E+03
      0.305  0.1859E+03  0.3770E+03
      0.329  0.1518E+03  0.3807E+03
      0.353  0.1540E+03  0.3844E+03
      0.378  0.1815E+03  0.3888E+03
      0.402  0.1909E+03  0.3934E+03
      0.426  0.1855E+03  0.3978E+03
      0.450  0.1632E+03  0.4018E+03
      0.474  0.1326E+03  0.4050E+03
      0.498  0.1338E+03  0.4082E+03
      0.522  0.1592E+03  0.4120E+03
      0.546  0.1797E+03  0.4164E+03
      0.571  0.1897E+03  0.4209E+03
      0.595  0.1871E+03  0.4255E+03
      0.619  0.1685E+03  0.4295E+03
      0.643  0.1633E+03  0.4335E+03
      0.667  0.1817E+03  0.4378E+03
      0.691  0.1929E+03  0.4425E+03
      0.715  0.1995E+03  0.4473E+03
      0.739  0.1949E+03  0.4520E+03
      0.764  0.1788E+03  0.4563E+03
      0.788  0.1746E+03  0.4605E+03
      0.812  0.1772E+03  0.4648E+03
      0.836  0.1834E+03  0.4692E+03
      0.860  0.1898E+03  0.4738E+03
      0.884  0.1899E+03  0.4784E+03
      0.908  0.1898E+03  0.4830E+03
      0.932  0.2003E+03  0.4878E+03
      0.957  0.2057E+03  0.4928E+03
      0.981  0.2057E+03  0.4977E+03
      1.005  0.2106E+03  0.5028E+03
      1.029  0.2156E+03  0.5080E+03
      1.053  0.2154E+03  0.5132E+03
      1.077  0.2122E+03  0.5183E+03
      1.101  0.2172E+03  0.5236E+03
      1.125  0.2227E+03  0.5289E+03
      1.149  0.2232E+03  0.5343E+03
      1.174  0.2182E+03  0.5396E+03
      1.198  0.2210E+03  0.5449E+03
      1.222  0.2237E+03  0.5503E+03
      1.246  0.2066E+03  0.5553E+03
      1.270  0.1912E+03  0.5599E+03
      1.294  0.1906E+03  0.5645E+03
      1.318  0.1945E+03  0.5692E+03
      1.342  0.1986E+03  0.5740E+03
      1.367  0.1991E+03  0.5788E+03
      1.391  0.1992E+03  0.5836E+03
      1.415  0.1934E+03  0.5883E+03
      1.439  0.1810E+03  0.5926E+03
      1.463  0.1738E+03  0.5968E+03
      1.487  0.1792E+03  0.6011E+03
      1.511  0.1868E+03  0.6057E+03
      1.535  0.1901E+03  0.6102E+03
      1.560  0.1857E+03  0.6147E+03
      1.584  0.1770E+03  0.6190E+03
      1.608  0.1733E+03  0.6232E+03
      1.632  0.1754E+03  0.6274E+03
      1.656  0.1637E+03  0.6313E+03
      1.680  0.1601E+03  0.6352E+03
      1.704  0.1686E+03  0.6393E+03
      1.728  0.1661E+03  0.6433E+03
      1.753  0.1552E+03  0.6470E+03
      1.777  0.1500E+03  0.6506E+03
      1.801  0.1540E+03  0.6544E+03
      1.825  0.1538E+03  0.6581E+03
      1.849  0.1547E+03  0.6618E+03
      1.873  0.1513E+03  0.6654E+03
      1.897  0.1427E+03  0.6689E+03
      1.921  0.1449E+03  0.6724E+03
      1.946  0.1646E+03  0.6764E+03
      1.970  0.1682E+03  0.6804E+03
      1.994  0.1633E+03  0.6844E+03
      2.018  0.1706E+03  0.6885E+03
      2.042  0.1746E+03  0.6927E+03
      2.066  0.1679E+03  0.6967E+03
      2.090  0.1512E+03  0.7004E+03
      2.114  0.1584E+03  0.7042E+03
      2.138  0.1735E+03  0.7084E+03
      2.163  0.1749E+03  0.7126E+03
      2.187  0.1706E+03  0.7167E+03
      2.211  0.1671E+03  0.7207E+03
      2.235  0.1651E+03  0.7247E+03
      2.259  0.1664E+03  0.7287E+03
      2.283  0.1679E+03  0.7328E+03
      2.307  0.1701E+03  0.7369E+03
      2.331  0.1691E+03  0.7410E+03
      2.356  0.1557E+03  0.7447E+03
      2.380  0.1468E+03  0.7483E+03
      2.404  0.1520E+03  0.7519E+03
      2.428  0.1457E+03  0.7555E+03
      2.452  0.1273E+03  0.7585E+03
      2.476  0.1148E+03  0.7613E+03
      2.500  0.1146E+03  0.7641E+03
      2.524  0.1213E+03  0.7670E+03
      2.549  0.1177E+03  0.7698E+03
      2.573  0.1139E+03  0.7726E+03
      2.597  0.1182E+03  0.7754E+03
      2.621  0.1126E+03  0.7781E+03
      2.645  0.1106E+03  0.7808E+03
      2.669  0.1191E+03  0.7837E+03
      2.693  0.1091E+03  0.7863E+03
      2.717  0.9933E+02  0.7887E+03
      2.742  0.1007E+03  0.7911E+03
      2.766  0.9168E+02  0.7934E+03
      2.790  0.6565E+02  0.7949E+03
      2.814  0.3727E+02  0.7958E+03
      2.838  0.2881E+02  0.7965E+03
      2.862  0.4269E+02  0.7976E+03
      2.886  0.5924E+02  0.7990E+03
      2.910  0.6430E+02  0.8005E+03
      2.935  0.5845E+02  0.8019E+03
      2.959  0.5587E+02  0.8033E+03
      2.983  0.6808E+02  0.8049E+03
      3.007  0.8102E+02  0.8069E+03
      3.031  0.8910E+02  0.8090E+03
      3.055  0.9572E+02  0.8114E+03
      3.079  0.9922E+02  0.8137E+03
      3.103  0.1059E+03  0.8163E+03
      3.127  0.1044E+03  0.8188E+03
      3.152  0.1094E+03  0.8215E+03
      3.176  0.1226E+03  0.8244E+03
      3.200  0.1250E+03  0.8274E+03
      3.224  0.1182E+03  0.8303E+03
      3.248  0.1194E+03  0.8332E+03
      3.272  0.1223E+03  0.8361E+03
      3.296  0.1233E+03  0.8391E+03
      3.320  0.1203E+03  0.8420E+03
      3.345  0.1060E+03  0.8445E+03
      3.369  0.8536E+02  0.8466E+03
      3.393  0.7178E+02  0.8483E+03
      3.417  0.6589E+02  0.8499E+03
      3.441  0.6764E+02  0.8516E+03
      3.465  0.8103E+02  0.8535E+03
      3.489  0.9962E+02  0.8559E+03
      3.513  0.1104E+03  0.8586E+03
      3.538  0.1060E+03  0.8611E+03
      3.562  0.9152E+02  0.8633E+03
      3.586  0.6681E+02  0.8650E+03
      3.610  0.3328E+02  0.8658E+03
      3.634  0.8994E+01  0.8660E+03
      3.658  0.1008E+01  0.8660E+03
      3.682  0.3870E-01  0.8660E+03
      3.706  0.4632E-03  0.8660E+03
      3.731  0.1651E-05  0.8660E+03
      3.755  0.1709E-08  0.8660E+03
      3.779  0.5063E-12  0.8660E+03
      3.803  0.0000E+00  0.8660E+03
      3.827  0.0000E+00  0.8660E+03
      3.851  0.0000E+00  0.8660E+03
      3.875  0.0000E+00  0.8660E+03
      3.899  0.0000E+00  0.8660E+03
      3.924  0.0000E+00  0.8660E+03
