Li                                      
           1
    20.020800    0.000000    0.000000
     0.000000   20.020800    0.000000
     0.000000    0.000000   20.020800
   Li
   432
Direct configuration=     1
   0.01015206  0.97246677  0.00924472
   0.93019774  0.06168014  0.06351615
   0.87064925  0.17689339  0.15791580
   0.76131384  0.22200305  0.22792320
   0.68664602  0.29665671  0.34918115
   0.59812019  0.36816929  0.43016913
   0.52092708  0.45589884  0.49104191
   0.44452789  0.57528894  0.56958347
   0.36725877  0.67263414  0.64699040
   0.25018646  0.75504298  0.74301944
   0.17272195  0.84182261  0.83713124
   0.10306858  0.93603780  0.93438817
   0.08573108  0.92098382  0.09375279
   0.01873874  0.99333841  0.16215266
   0.93065060  0.07511625  0.24139943
   0.85313571  0.15987872  0.32048385
   0.77817970  0.22231622  0.41509639
   0.71364992  0.30474174  0.50614837
   0.59248238  0.37589044  0.61737036
   0.50080919  0.46957335  0.67358657
   0.42254857  0.56872796  0.77406835
   0.31136699  0.68464056  0.83642244
   0.23867285  0.76222098  0.89956989
   0.19439572  0.85830101  0.01481485
   0.19704192  0.83192911  0.19441266
   0.09814567  0.93986445  0.24705159
   0.00392862  0.00358341  0.37129607
   0.92187793  0.08596170  0.42939949
   0.85537605  0.14365914  0.50691718
   0.80280630  0.22861306  0.60285395
   0.71240842  0.29833632  0.66675926
   0.61189443  0.40172141  0.75138769
   0.47744366  0.46598087  0.82951418
   0.41715631  0.57711113  0.91718580
   0.34088177  0.68435932  0.00289348
   0.25034384  0.73004905  0.10945589
   0.25580609  0.76315608  0.26697253
   0.18254269  0.86207720  0.32650655
   0.07590217  0.90991787  0.43199836
   0.99563168  0.99728978  0.51931029
   0.93811618  0.07762035  0.58787255
   0.83071584  0.14162946  0.67912780
   0.79213109  0.24638439  0.74558923
   0.70327475  0.31188770  0.81222227
   0.58448879  0.39202985  0.89841464
   0.49875737  0.48478680  0.98662082
   0.43244350  0.57478706  0.09600013
   0.32285855  0.67816147  0.17561481
   0.36096861  0.67663601  0.34866889
   0.25850416  0.73056884  0.42552538
   0.17962717  0.81132607  0.50334036
   0.09749140  0.88607349  0.58162577
   0.04090714  0.99667942  0.64460742
   0.92552331  0.04472766  0.75590252
   0.85675123  0.14278407  0.84389509
   0.78143605  0.23796765  0.90687388
   0.68102114  0.33725143  0.00088227
   0.57494038  0.41698450  0.07994755
   0.49747685  0.48345423  0.17519403
   0.42016160  0.57829099  0.27998582
   0.44858732  0.60131894  0.41738260
   0.36231602  0.66640072  0.49563631
   0.25131467  0.73091153  0.58407289
   0.15620422  0.80444619  0.67373052
   0.07037964  0.92004689  0.72396207
   0.01310422  0.97264895  0.84486765
   0.90201925  0.06509280  0.94165242
   0.85658350  0.16191800  0.98783043
   0.76669598  0.22933765  0.06550519
   0.68698063  0.32643716  0.15892673
   0.60221185  0.38398379  0.26885747
   0.51271762  0.47197875  0.35211607
   0.08936108  0.06366358  0.92739230
   0.02233404  0.16760905  0.97718293
   0.94316972  0.24625556  0.08064909
   0.83069762  0.31908542  0.16291412
   0.74473041  0.39718477  0.24827996
   0.65713545  0.47592498  0.35801394
   0.60388748  0.57095264  0.43384645
   0.53560875  0.68696610  0.49066839
   0.43945045  0.74718221  0.59357239
   0.33319291  0.83930347  0.65213945
   0.23799390  0.89238513  0.72791364
   0.18507707  0.97520759  0.81372489
   0.22402592  0.00069368  0.98372238
   0.10373359  0.09130962  0.07034984
   0.00530076  0.15528557  0.16146604
   0.94805912  0.25247447  0.24953798
   0.83493289  0.32849958  0.31778015
   0.73737471  0.40184295  0.43039562
   0.67285016  0.49176158  0.50982501
   0.57163362  0.57868080  0.58825977
   0.51159493  0.64347359  0.65804722
   0.44118324  0.74577828  0.75149386
   0.32939408  0.84376046  0.81635099
   0.29787478  0.90743377  0.91906221
   0.27671033  0.91718848  0.09239626
   0.19078147  0.00350968  0.16598762
   0.06051706  0.06861114  0.25134962
   0.97694964  0.19895316  0.33136870
   0.92188357  0.27232611  0.40746979
   0.83962031  0.32298966  0.51590114
   0.76642532  0.39505535  0.60952387
   0.66506524  0.51612597  0.67820578
   0.57071616  0.55464942  0.77566353
   0.49968020  0.65624855  0.83993740
   0.40592176  0.77259339  0.90573772
   0.33264536  0.82765811  0.01365763
   0.32520387  0.83082698  0.20167016
   0.25855598  0.93904824  0.26097429
   0.14928205  0.02722591  0.35596158
   0.06533037  0.09889231  0.42256900
   0.99256663  0.20097237  0.50110225
   0.92752446  0.23734146  0.59244105
   0.87857657  0.33502717  0.66806826
   0.77822980  0.40652404  0.75264210
   0.65983466  0.48498857  0.83050864
   0.56709478  0.55641341  0.91128330
   0.47841286  0.66807368  0.99187232
   0.41355441  0.73414772  0.10949779
   0.43966761  0.75868892  0.29005555
   0.31983566  0.84409300  0.38174681
   0.27065356  0.91660260  0.43053625
   0.14698277  0.00392007  0.48686582
   0.09085153  0.08301101  0.56505237
   0.01136398  0.14412096  0.67152044
   0.93820403  0.22001061  0.74166397
   0.87228329  0.30798534  0.82778345
   0.73526361  0.37433289  0.91257745
   0.66462172  0.50655676  0.99509306
   0.55708141  0.60459424  0.09842848
   0.49693360  0.68136840  0.21133732
   0.53566569  0.65933355  0.32397559
   0.44568041  0.75775241  0.39002348
   0.35991139  0.82111009  0.48821139
   0.24215590  0.92140367  0.56328342
   0.15709673  0.00120672  0.63515394
   0.09523775  0.06782364  0.75373499
   0.98975876  0.14899396  0.82534540
   0.94165895  0.24742618  0.92272704
   0.84458318  0.33924904  0.99612740
   0.74734699  0.41094343  0.08172796
   0.65346528  0.49001595  0.17136422
   0.58612287  0.57022031  0.25331058
   0.14870455  0.19578269  0.84788041
   0.06947620  0.26760065  0.89637393
   0.01411228  0.33162868  0.00709708
   0.91426974  0.43158049  0.08098635
   0.83701866  0.47927436  0.16330822
   0.74607260  0.55172327  0.24570338
   0.66920591  0.65868231  0.32261128
   0.59219782  0.73300602  0.39072119
   0.48907107  0.83209986  0.49847882
   0.39482287  0.94263131  0.57147705
   0.30627253  0.98965478  0.64293683
   0.23056443  0.07697548  0.73440681
   0.25831942  0.05705070  0.89649926
   0.19768148  0.16258158  0.97719042
   0.08476439  0.26104516  0.08121927
   0.99289565  0.36185938  0.16096228
   0.91453936  0.40175777  0.27148255
   0.80247296  0.49561590  0.33680136
   0.73987129  0.61434352  0.42435367
   0.64948952  0.67400364  0.51857091
   0.56480752  0.77014877  0.59630048
   0.50644697  0.85928278  0.66400927
   0.39751984  0.91611800  0.72964981
   0.34141199  0.99594346  0.82243827
   0.35427053  0.97789044  0.99782276
   0.26488377  0.09130748  0.07253630
   0.16145608  0.16540392  0.16973325
   0.05677491  0.28221703  0.21843674
   0.00137435  0.35075312  0.31000949
   0.92631371  0.41266778  0.44851655
   0.80918242  0.49564570  0.51017637
   0.75573253  0.58676045  0.58368005
   0.63812967  0.66125514  0.65653723
   0.57359494  0.74387002  0.74391499
   0.48414543  0.85010292  0.81994782
   0.41557384  0.90268143  0.92599382
   0.41941827  0.90644802  0.10119135
   0.34127193  0.01934841  0.19349568
   0.25793131  0.11433059  0.24611927
   0.11729267  0.18825571  0.30614397
   0.07054148  0.29411313  0.40535730
   0.99581030  0.33996493  0.52120291
   0.92689087  0.43466804  0.58978919
   0.85376705  0.52333348  0.66863669
   0.73695054  0.57514017  0.75543045
   0.64499239  0.64187005  0.81935822
   0.57945699  0.75984556  0.91169301
   0.49339771  0.81256787  0.00469808
   0.51424958  0.83531105  0.17035791
   0.40636483  0.89823566  0.25593732
   0.31709588  0.00378291  0.32616984
   0.24865247  0.08064039  0.39728147
   0.16717548  0.14456327  0.47334200
   0.07805456  0.25195562  0.56769152
   0.00908840  0.35324744  0.66983126
   0.93647913  0.41633672  0.75467077
   0.83925520  0.48152844  0.81860342
   0.77925465  0.55485298  0.89618759
   0.66738244  0.65740968  0.98001852
   0.58467469  0.72282678  0.07329597
   0.60487976  0.74866531  0.25291161
   0.52956150  0.85647972  0.32876378
   0.42613676  0.93102912  0.39863190
   0.31003449  0.03777069  0.47753017
   0.24886754  0.09305864  0.55706975
   0.15364415  0.17033863  0.63952688
   0.08769951  0.23855574  0.73867386
   0.00660954  0.33200240  0.82073805
   0.94192918  0.42917752  0.92949096
   0.81924236  0.45849050  0.00145388
   0.73831747  0.53894947  0.08447902
   0.67691767  0.65057114  0.16188034
   0.21362008  0.25953105  0.72708806
   0.14530952  0.36531957  0.80644772
   0.09221297  0.43516191  0.89838417
   0.01669771  0.50740480  0.01621328
   0.92219789  0.57399508  0.08199514
   0.85322742  0.66626683  0.17443064
   0.74654491  0.75681329  0.25757639
   0.66826303  0.86847866  0.32256467
   0.57654663  0.94762336  0.40713570
   0.49154249  0.02126365  0.49794137
   0.41645808  0.09582369  0.61561558
   0.32681964  0.17238688  0.66391768
   0.29842488  0.16997142  0.82454566
   0.25485242  0.26304475  0.90273195
   0.15834728  0.31114445  0.99753106
   0.08435122  0.43646033  0.08569702
   0.99471651  0.50301220  0.18196982
   0.92903476  0.57682229  0.26701509
   0.81649318  0.66636912  0.33661503
   0.73671016  0.75051663  0.41911518
   0.65495438  0.82397373  0.47836907
   0.57367170  0.92222021  0.58447266
   0.48613788  0.99082853  0.68764236
   0.41826886  0.10088433  0.76302369
   0.39581231  0.09462416  0.90407294
   0.33223330  0.18886336  0.98834283
   0.24780485  0.25375713  0.09890712
   0.14745349  0.34752567  0.16680062
   0.06610691  0.45849211  0.25431378
   0.96387601  0.50141976  0.35553297
   0.88299585  0.60050541  0.43083936
   0.83987006  0.67195915  0.47385263
   0.72832560  0.73140610  0.60131207
   0.65604218  0.82947464  0.68106775
   0.55964161  0.92173109  0.74524550
   0.49062118  0.01472585  0.82291901
   0.48596066  0.99754369  0.99541090
   0.40446638  0.11023467  0.06716386
   0.33728425  0.17544670  0.15473288
   0.22476475  0.25961518  0.23226979
   0.12663718  0.35553140  0.30108428
   0.04813458  0.43688058  0.40924866
   0.99120283  0.52012370  0.51973784
   0.91508387  0.60891726  0.55757376
   0.83028486  0.68888002  0.67620537
   0.73855663  0.72577574  0.74830276
   0.65405271  0.82697489  0.82609624
   0.55809991  0.90708860  0.94643459
   0.57859361  0.91828889  0.06841545
   0.47364442  0.02762468  0.16191400
   0.39514376  0.10914534  0.24897745
   0.30568662  0.19559526  0.33152151
   0.20039928  0.28317368  0.41662552
   0.11442873  0.34286536  0.49528618
   0.08134009  0.44423661  0.58534225
   0.00160088  0.53615521  0.66675071
   0.89196186  0.59371670  0.77261507
   0.82240719  0.65079573  0.83598546
   0.74676823  0.72712417  0.89332234
   0.67007830  0.79584311  0.01010246
   0.67563758  0.81496574  0.15297830
   0.58028507  0.94121588  0.23857675
   0.48819750  0.98646052  0.31168251
   0.41978085  0.07852475  0.39274766
   0.31873767  0.17498167  0.47376455
   0.23841167  0.26462181  0.56720253
   0.15614466  0.34787862  0.64941047
   0.09250207  0.44249813  0.73856496
   0.00073150  0.52773823  0.82469782
   0.91173378  0.57473419  0.92506655
   0.82360901  0.64370194  0.00810921
   0.76160395  0.70537643  0.09188848
   0.32931879  0.33484332  0.64493442
   0.24305259  0.43059942  0.70406320
   0.17961650  0.54687551  0.77332782
   0.07239258  0.58590465  0.92386293
   0.99927773  0.67477755  0.01273640
   0.94325427  0.74689792  0.09912453
   0.85230268  0.81451080  0.18115135
   0.77060099  0.91782300  0.23433867
   0.65206121  0.02156896  0.31019938
   0.58175402  0.09484391  0.40818543
   0.49940185  0.16492235  0.50941863
   0.41570396  0.23485492  0.58935358
   0.40468368  0.24158853  0.77289036
   0.30883934  0.35152545  0.81229679
   0.23990506  0.41455623  0.88573584
   0.14641718  0.50028132  0.98362825
   0.07849655  0.58620228  0.08762948
   0.00885366  0.67619890  0.18040046
   0.92742345  0.76694394  0.26426611
   0.81952496  0.83979013  0.32349859
   0.73622606  0.92899081  0.40542009
   0.67518825  0.00640810  0.50094917
   0.58120891  0.06786568  0.59057948
   0.50075564  0.18015109  0.68039343
   0.51004650  0.15967336  0.83461764
   0.41455678  0.26263275  0.89643758
   0.30090944  0.33265783  0.01523059
   0.23859160  0.43952411  0.07916138
   0.15984129  0.52339958  0.17187076
   0.07421791  0.57466610  0.27762812
   0.98878581  0.66349959  0.33380686
   0.90894605  0.76901147  0.40600759
   0.79166693  0.84342547  0.53623487
   0.73831251  0.90636456  0.60613765
   0.67300490  0.98606308  0.67963765
   0.58332503  0.08474724  0.74044389
   0.57035413  0.07750634  0.89948710
   0.50374355  0.19291321  0.97369559
   0.41871257  0.25998834  0.07976603
   0.34625287  0.35169282  0.16728553
   0.24342568  0.42558527  0.25678536
   0.17595299  0.51028305  0.36884761
   0.08088787  0.57696570  0.42627664
   0.96956659  0.68651674  0.49727549
   0.90752080  0.76248504  0.59659716
   0.81468943  0.82498332  0.66782498
   0.77427747  0.89866617  0.74564264
   0.65012766  0.98755390  0.81821378
   0.67358487  0.98925929  0.00076403
   0.59828413  0.08760841  0.05803581
   0.49895267  0.18225007  0.13619755
   0.42703276  0.25794167  0.21585696
   0.31995211  0.30640049  0.31806058
   0.21723993  0.36639992  0.41986116
   0.18430159  0.50980020  0.48269532
   0.07796984  0.62859387  0.55936034
   0.96494230  0.68680068  0.67799514
   0.91467438  0.75852706  0.78471647
   0.82561318  0.84828198  0.84200689
   0.70964193  0.88851475  0.92687489
   0.73998312  0.90721594  0.09185173
   0.68295952  0.01130472  0.14707869
   0.56106530  0.09666926  0.22516970
   0.50247571  0.18143895  0.34500958
   0.39685787  0.26070734  0.41714966
   0.31089969  0.34357263  0.53715319
   0.21803582  0.44555097  0.58872527
   0.14459283  0.53788813  0.65956282
   0.07101533  0.62319343  0.75622701
   0.99334926  0.68766103  0.86055619
   0.89602650  0.74319353  0.93491406
   0.79279714  0.80194346  0.03097509
   0.39601715  0.40379399  0.58463408
   0.33555054  0.51046942  0.63121832
   0.26192966  0.62168944  0.74231829
   0.16880560  0.67721768  0.83507442
   0.09112559  0.76343260  0.93323781
   0.03320810  0.84326675  0.00633537
   0.89957702  0.89832236  0.08740006
   0.84215102  0.00761817  0.15651217
   0.74795009  0.08996198  0.23313673
   0.66465803  0.17458557  0.33747514
   0.56547717  0.25660897  0.42830413
   0.50264392  0.33669570  0.52640037
   0.48806634  0.32423424  0.65301976
   0.39738979  0.39919773  0.75459350
   0.30725214  0.50737117  0.83624181
   0.24215842  0.59560890  0.93320920
   0.15533097  0.66317749  0.00903956
   0.10677388  0.76266032  0.08648358
   0.02378447  0.81814997  0.17626940
   0.91991783  0.93832535  0.26651371
   0.82115611  0.00417577  0.33936666
   0.75393789  0.07936825  0.42794679
   0.66772629  0.16211351  0.51072295
   0.60190834  0.22769818  0.58753985
   0.60627462  0.25607648  0.75127847
   0.49752744  0.34940343  0.80605584
   0.39453152  0.40698172  0.91349190
   0.34992680  0.50209319  0.00535269
   0.23062661  0.57908830  0.10605028
   0.14531947  0.68294013  0.20176342
   0.07902547  0.77070424  0.27652032
   0.99006501  0.86143234  0.32300497
   0.88902790  0.91056023  0.42176722
   0.84851646  0.97973759  0.51608892
   0.75344762  0.08402353  0.57472427
   0.69200462  0.15632472  0.68118672
   0.66221648  0.15633316  0.81803894
   0.59295370  0.29108378  0.88515995
   0.50274216  0.34086052  0.01092841
   0.42060096  0.39953600  0.06716081
   0.33838204  0.48713674  0.16964618
   0.28512223  0.57585719  0.28259101
   0.17068665  0.67826501  0.34297186
   0.05076710  0.75952764  0.40762734
   0.99256074  0.84607094  0.49132717
   0.92466820  0.91396546  0.60342432
   0.83431181  0.99240012  0.65073570
   0.75910246  0.05888373  0.74734655
   0.74563026  0.06566281  0.91449267
   0.65897200  0.17770033  0.98011773
   0.57356681  0.25925797  0.07553952
   0.52314103  0.36533480  0.16831986
   0.41174654  0.40995222  0.26524202
   0.32637860  0.49213924  0.37574037
   0.24150403  0.62699617  0.40917472
   0.16712606  0.67487276  0.48800248
   0.07002367  0.72524405  0.59019301
   0.98583343  0.81434755  0.66444913
   0.93072575  0.92296627  0.74597353
   0.84178767  0.97636184  0.85716914
   0.81394665  0.96808660  0.01244579
   0.76989438  0.09011944  0.08172697
   0.65867950  0.15338948  0.12864268
   0.60819859  0.25563477  0.25879233
   0.49936532  0.31556321  0.32438053
   0.39595778  0.38336847  0.41650434
   0.32762265  0.50633472  0.49679602
   0.26000278  0.61795960  0.57728812
   0.17400785  0.65561099  0.66421718
   0.08445586  0.73673887  0.76687480
   0.00528274  0.85233597  0.85518717
   0.90601267  0.88450027  0.96456284
