 504 504   0   0
  0.2106490E+02  0.2170700E-08  0.2148436E-08  0.2276500E-08  0.5000000E-15
  1.000000000000000E-004
  CAR 
 Li                                      
      3.18144136     -3.46752359  301      0.28929686      1.00000000
     -3.468  0.0000E+00  0.0000E+00
     -3.445  0.0000E+00  0.0000E+00
     -3.423  0.0000E+00  0.0000E+00
     -3.401  0.0000E+00  0.0000E+00
     -3.379  0.0000E+00  0.0000E+00
     -3.357  0.0000E+00  0.0000E+00
     -3.335  0.6512E-13  0.1443E-14
     -3.312  0.1807E-09  0.4007E-11
     -3.290  0.1718E-06  0.3812E-08
     -3.268  0.5627E-04  0.1251E-05
     -3.246  0.6404E-02  0.1432E-03
     -3.224  0.2561E+00  0.5819E-02
     -3.202  0.3650E+01  0.8670E-01
     -3.179  0.1883E+02  0.5040E+00
     -3.157  0.3562E+02  0.1293E+01
     -3.135  0.2492E+02  0.1846E+01
     -3.113  0.7499E+01  0.2012E+01
     -3.091  0.1184E+02  0.2274E+01
     -3.069  0.4676E+02  0.3311E+01
     -3.046  0.8763E+02  0.5253E+01
     -3.024  0.8028E+02  0.7032E+01
     -3.002  0.3636E+02  0.7838E+01
     -2.980  0.1370E+02  0.8142E+01
     -2.958  0.3456E+02  0.8908E+01
     -2.936  0.7893E+02  0.1066E+02
     -2.913  0.8813E+02  0.1261E+02
     -2.891  0.5018E+02  0.1372E+02
     -2.869  0.2476E+02  0.1427E+02
     -2.847  0.4511E+02  0.1527E+02
     -2.825  0.8235E+02  0.1710E+02
     -2.803  0.1018E+03  0.1935E+02
     -2.780  0.8166E+02  0.2116E+02
     -2.758  0.4412E+02  0.2214E+02
     -2.736  0.5473E+02  0.2335E+02
     -2.714  0.1048E+03  0.2568E+02
     -2.692  0.1373E+03  0.2872E+02
     -2.670  0.1300E+03  0.3160E+02
     -2.647  0.8135E+02  0.3340E+02
     -2.625  0.3780E+02  0.3424E+02
     -2.603  0.4831E+02  0.3531E+02
     -2.581  0.7957E+02  0.3707E+02
     -2.559  0.8097E+02  0.3887E+02
     -2.537  0.5702E+02  0.4013E+02
     -2.515  0.5416E+02  0.4133E+02
     -2.492  0.7647E+02  0.4303E+02
     -2.470  0.1035E+03  0.4532E+02
     -2.448  0.1225E+03  0.4803E+02
     -2.426  0.1201E+03  0.5070E+02
     -2.404  0.1048E+03  0.5302E+02
     -2.382  0.1120E+03  0.5550E+02
     -2.359  0.1346E+03  0.5848E+02
     -2.337  0.1544E+03  0.6191E+02
     -2.315  0.1595E+03  0.6544E+02
     -2.293  0.1306E+03  0.6834E+02
     -2.271  0.8522E+02  0.7023E+02
     -2.249  0.5887E+02  0.7153E+02
     -2.226  0.5609E+02  0.7277E+02
     -2.204  0.7021E+02  0.7433E+02
     -2.182  0.7003E+02  0.7588E+02
     -2.160  0.7603E+02  0.7757E+02
     -2.138  0.1102E+03  0.8001E+02
     -2.116  0.1365E+03  0.8303E+02
     -2.093  0.1426E+03  0.8620E+02
     -2.071  0.1392E+03  0.8928E+02
     -2.049  0.1207E+03  0.9196E+02
     -2.027  0.1121E+03  0.9444E+02
     -2.005  0.1313E+03  0.9735E+02
     -1.983  0.1550E+03  0.1008E+03
     -1.960  0.1693E+03  0.1045E+03
     -1.938  0.1619E+03  0.1081E+03
     -1.916  0.1176E+03  0.1107E+03
     -1.894  0.6699E+02  0.1122E+03
     -1.872  0.6887E+02  0.1137E+03
     -1.850  0.1050E+03  0.1161E+03
     -1.827  0.1330E+03  0.1190E+03
     -1.805  0.1430E+03  0.1222E+03
     -1.783  0.1472E+03  0.1255E+03
     -1.761  0.1558E+03  0.1289E+03
     -1.739  0.1631E+03  0.1325E+03
     -1.717  0.1651E+03  0.1362E+03
     -1.694  0.1564E+03  0.1396E+03
     -1.672  0.1374E+03  0.1427E+03
     -1.650  0.1347E+03  0.1457E+03
     -1.628  0.1375E+03  0.1487E+03
     -1.606  0.1441E+03  0.1519E+03
     -1.584  0.1519E+03  0.1553E+03
     -1.561  0.1418E+03  0.1584E+03
     -1.539  0.1222E+03  0.1611E+03
     -1.517  0.1105E+03  0.1636E+03
     -1.495  0.1088E+03  0.1660E+03
     -1.473  0.1107E+03  0.1684E+03
     -1.451  0.1083E+03  0.1708E+03
     -1.429  0.1196E+03  0.1735E+03
     -1.406  0.1412E+03  0.1766E+03
     -1.384  0.1569E+03  0.1801E+03
     -1.362  0.1626E+03  0.1837E+03
     -1.340  0.1626E+03  0.1873E+03
     -1.318  0.1661E+03  0.1910E+03
     -1.296  0.1736E+03  0.1948E+03
     -1.273  0.1855E+03  0.1990E+03
     -1.251  0.2068E+03  0.2035E+03
     -1.229  0.2186E+03  0.2084E+03
     -1.207  0.2099E+03  0.2130E+03
     -1.185  0.1886E+03  0.2172E+03
     -1.163  0.1712E+03  0.2210E+03
     -1.140  0.1630E+03  0.2246E+03
     -1.118  0.1499E+03  0.2279E+03
     -1.096  0.1268E+03  0.2308E+03
     -1.074  0.1153E+03  0.2333E+03
     -1.052  0.1331E+03  0.2363E+03
     -1.030  0.1575E+03  0.2398E+03
     -1.007  0.1650E+03  0.2434E+03
     -0.985  0.1636E+03  0.2470E+03
     -0.963  0.1627E+03  0.2506E+03
     -0.941  0.1683E+03  0.2544E+03
     -0.919  0.1870E+03  0.2585E+03
     -0.897  0.1977E+03  0.2629E+03
     -0.874  0.1826E+03  0.2669E+03
     -0.852  0.1506E+03  0.2703E+03
     -0.830  0.1313E+03  0.2732E+03
     -0.808  0.1515E+03  0.2766E+03
     -0.786  0.1692E+03  0.2803E+03
     -0.764  0.1644E+03  0.2839E+03
     -0.741  0.1640E+03  0.2876E+03
     -0.719  0.1781E+03  0.2915E+03
     -0.697  0.1901E+03  0.2957E+03
     -0.675  0.2012E+03  0.3002E+03
     -0.653  0.2193E+03  0.3051E+03
     -0.631  0.2257E+03  0.3101E+03
     -0.608  0.2136E+03  0.3148E+03
     -0.586  0.2066E+03  0.3194E+03
     -0.564  0.2157E+03  0.3242E+03
     -0.542  0.2227E+03  0.3291E+03
     -0.520  0.2135E+03  0.3338E+03
     -0.498  0.1924E+03  0.3381E+03
     -0.475  0.1740E+03  0.3419E+03
     -0.453  0.1724E+03  0.3458E+03
     -0.431  0.1829E+03  0.3498E+03
     -0.409  0.1784E+03  0.3538E+03
     -0.387  0.1643E+03  0.3574E+03
     -0.365  0.1782E+03  0.3614E+03
     -0.343  0.2059E+03  0.3659E+03
     -0.320  0.2008E+03  0.3704E+03
     -0.298  0.1845E+03  0.3745E+03
     -0.276  0.1890E+03  0.3787E+03
     -0.254  0.2098E+03  0.3833E+03
     -0.232  0.2298E+03  0.3884E+03
     -0.210  0.2383E+03  0.3937E+03
     -0.187  0.2440E+03  0.3991E+03
     -0.165  0.2463E+03  0.4046E+03
     -0.143  0.2334E+03  0.4097E+03
     -0.121  0.2219E+03  0.4146E+03
     -0.099  0.2219E+03  0.4196E+03
     -0.077  0.2142E+03  0.4243E+03
     -0.054  0.2046E+03  0.4288E+03
     -0.032  0.2088E+03  0.4335E+03
     -0.010  0.2112E+03  0.4382E+03
      0.012  0.2104E+03  0.4428E+03
      0.034  0.2094E+03  0.4475E+03
      0.056  0.2018E+03  0.4519E+03
      0.079  0.1862E+03  0.4561E+03
      0.101  0.1889E+03  0.4602E+03
      0.123  0.2035E+03  0.4647E+03
      0.145  0.2090E+03  0.4694E+03
      0.167  0.2079E+03  0.4740E+03
      0.189  0.2209E+03  0.4789E+03
      0.212  0.2342E+03  0.4841E+03
      0.234  0.2458E+03  0.4895E+03
      0.256  0.2598E+03  0.4953E+03
      0.278  0.2627E+03  0.5011E+03
      0.300  0.2572E+03  0.5068E+03
      0.322  0.2616E+03  0.5126E+03
      0.345  0.2751E+03  0.5187E+03
      0.367  0.2802E+03  0.5249E+03
      0.389  0.2655E+03  0.5308E+03
      0.411  0.2558E+03  0.5365E+03
      0.433  0.2672E+03  0.5424E+03
      0.455  0.2773E+03  0.5485E+03
      0.478  0.2654E+03  0.5544E+03
      0.500  0.2492E+03  0.5599E+03
      0.522  0.2469E+03  0.5654E+03
      0.544  0.2413E+03  0.5708E+03
      0.566  0.2343E+03  0.5759E+03
      0.588  0.2375E+03  0.5812E+03
      0.611  0.2282E+03  0.5863E+03
      0.633  0.2126E+03  0.5910E+03
      0.655  0.2149E+03  0.5957E+03
      0.677  0.2195E+03  0.6006E+03
      0.699  0.2164E+03  0.6054E+03
      0.721  0.2132E+03  0.6101E+03
      0.743  0.2125E+03  0.6148E+03
      0.766  0.2192E+03  0.6197E+03
      0.788  0.2259E+03  0.6247E+03
      0.810  0.2275E+03  0.6297E+03
      0.832  0.2277E+03  0.6348E+03
      0.854  0.2244E+03  0.6398E+03
      0.876  0.2160E+03  0.6446E+03
      0.899  0.2187E+03  0.6494E+03
      0.921  0.2241E+03  0.6544E+03
      0.943  0.2298E+03  0.6595E+03
      0.965  0.2347E+03  0.6647E+03
      0.987  0.2282E+03  0.6697E+03
      1.009  0.2232E+03  0.6747E+03
      1.032  0.2254E+03  0.6797E+03
      1.054  0.2303E+03  0.6848E+03
      1.076  0.2272E+03  0.6898E+03
      1.098  0.2177E+03  0.6946E+03
      1.120  0.2215E+03  0.6995E+03
      1.142  0.2261E+03  0.7045E+03
      1.165  0.2146E+03  0.7093E+03
      1.187  0.2076E+03  0.7139E+03
      1.209  0.2150E+03  0.7187E+03
      1.231  0.2211E+03  0.7236E+03
      1.253  0.2202E+03  0.7284E+03
      1.275  0.2077E+03  0.7331E+03
      1.298  0.1971E+03  0.7374E+03
      1.320  0.2045E+03  0.7420E+03
      1.342  0.2161E+03  0.7467E+03
      1.364  0.2194E+03  0.7516E+03
      1.386  0.2163E+03  0.7564E+03
      1.408  0.2028E+03  0.7609E+03
      1.431  0.2020E+03  0.7654E+03
      1.453  0.2132E+03  0.7701E+03
      1.475  0.2140E+03  0.7748E+03
      1.497  0.2135E+03  0.7796E+03
      1.519  0.2154E+03  0.7843E+03
      1.541  0.2169E+03  0.7892E+03
      1.564  0.2141E+03  0.7939E+03
      1.586  0.2082E+03  0.7985E+03
      1.608  0.2117E+03  0.8032E+03
      1.630  0.2177E+03  0.8080E+03
      1.652  0.2197E+03  0.8129E+03
      1.674  0.2171E+03  0.8177E+03
      1.697  0.2148E+03  0.8225E+03
      1.719  0.2132E+03  0.8272E+03
      1.741  0.2002E+03  0.8316E+03
      1.763  0.1923E+03  0.8359E+03
      1.785  0.1929E+03  0.8402E+03
      1.807  0.1985E+03  0.8446E+03
      1.829  0.2095E+03  0.8492E+03
      1.852  0.2127E+03  0.8539E+03
      1.874  0.2069E+03  0.8585E+03
      1.896  0.1975E+03  0.8629E+03
      1.918  0.1923E+03  0.8672E+03
      1.940  0.1870E+03  0.8713E+03
      1.962  0.1792E+03  0.8753E+03
      1.985  0.1781E+03  0.8792E+03
      2.007  0.1797E+03  0.8832E+03
      2.029  0.1696E+03  0.8870E+03
      2.051  0.1714E+03  0.8908E+03
      2.073  0.1836E+03  0.8948E+03
      2.095  0.1790E+03  0.8988E+03
      2.118  0.1710E+03  0.9026E+03
      2.140  0.1707E+03  0.9064E+03
      2.162  0.1668E+03  0.9101E+03
      2.184  0.1601E+03  0.9136E+03
      2.206  0.1570E+03  0.9171E+03
      2.228  0.1589E+03  0.9206E+03
      2.251  0.1610E+03  0.9242E+03
      2.273  0.1593E+03  0.9277E+03
      2.295  0.1578E+03  0.9312E+03
      2.317  0.1594E+03  0.9347E+03
      2.339  0.1594E+03  0.9383E+03
      2.361  0.1603E+03  0.9418E+03
      2.384  0.1538E+03  0.9452E+03
      2.406  0.1463E+03  0.9485E+03
      2.428  0.1505E+03  0.9518E+03
      2.450  0.1505E+03  0.9551E+03
      2.472  0.1448E+03  0.9584E+03
      2.494  0.1495E+03  0.9617E+03
      2.517  0.1517E+03  0.9650E+03
      2.539  0.1463E+03  0.9683E+03
      2.561  0.1413E+03  0.9714E+03
      2.583  0.1382E+03  0.9745E+03
      2.605  0.1383E+03  0.9775E+03
      2.627  0.1367E+03  0.9806E+03
      2.650  0.1354E+03  0.9836E+03
      2.672  0.1321E+03  0.9865E+03
      2.694  0.1231E+03  0.9892E+03
      2.716  0.1192E+03  0.9919E+03
      2.738  0.1227E+03  0.9946E+03
      2.760  0.1195E+03  0.9972E+03
      2.783  0.1173E+03  0.9998E+03
      2.805  0.1149E+03  0.1002E+04
      2.827  0.1103E+03  0.1005E+04
      2.849  0.1023E+03  0.1007E+04
      2.871  0.7686E+02  0.1009E+04
      2.893  0.4033E+02  0.1010E+04
      2.915  0.1224E+02  0.1010E+04
      2.938  0.1734E+01  0.1010E+04
      2.960  0.1003E+00  0.1010E+04
      2.982  0.2211E-02  0.1010E+04
      3.004  0.1783E-04  0.1010E+04
      3.026  0.5133E-07  0.1010E+04
      3.048  0.5185E-10  0.1010E+04
      3.071  0.1503E-13  0.1010E+04
      3.093  0.0000E+00  0.1010E+04
      3.115  0.0000E+00  0.1010E+04
      3.137  0.0000E+00  0.1010E+04
      3.159  0.0000E+00  0.1010E+04
      3.181  0.0000E+00  0.1010E+04
