       N       E                     dE             d eps       ncg     rms          rms(c)
DAV:   1    -0.266598096982E+03   -0.26660E+03   -0.12117E+05  4040   0.652E+02
DAV:   2    -0.866729368408E+03   -0.60013E+03   -0.54884E+03  4652   0.666E+01
DAV:   3    -0.910722747004E+03   -0.43993E+02   -0.40270E+02  5272   0.142E+01
DAV:   4    -0.912261597430E+03   -0.15389E+01   -0.15156E+01  4776   0.289E+00
DAV:   5    -0.912299290617E+03   -0.37693E-01   -0.37618E-01  4928   0.473E-01    0.108E+01
DAV:   6    -0.905310634579E+03    0.69887E+01   -0.14129E+01  4784   0.496E+00    0.818E+00
DAV:   7    -0.899664865982E+03    0.56458E+01   -0.11920E+01  5016   0.490E+00    0.597E+00
DAV:   8    -0.895571149337E+03    0.40937E+01   -0.69114E+00  4856   0.296E+00    0.335E+00
DAV:   9    -0.895142267839E+03    0.42888E+00   -0.37058E+00  4768   0.198E+00    0.247E+00
DAV:  10    -0.894516209723E+03    0.62606E+00   -0.18442E+00  4712   0.135E+00    0.133E+00
DAV:  11    -0.894421058002E+03    0.95152E-01   -0.62055E-01  4432   0.625E-01    0.713E-01
DAV:  12    -0.894425661422E+03   -0.46034E-02   -0.12088E-01  4712   0.336E-01    0.522E-01
DAV:  13    -0.894407480219E+03    0.18181E-01   -0.56282E-02  4776   0.263E-01    0.345E-01
DAV:  14    -0.894402780530E+03    0.46997E-02   -0.16140E-02  4648   0.145E-01    0.198E-01
DAV:  15    -0.894401079494E+03    0.17010E-02   -0.78699E-03  4696   0.108E-01    0.135E-01
DAV:  16    -0.894399297824E+03    0.17817E-02   -0.34878E-03  4656   0.669E-02    0.672E-02
DAV:  17    -0.894399122296E+03    0.17553E-03   -0.13628E-03  4376   0.316E-02    0.303E-02
DAV:  18    -0.894399105239E+03    0.17057E-04   -0.26275E-04  4800   0.170E-02    0.221E-02
DAV:  19    -0.894399079430E+03    0.25808E-04   -0.98986E-05  4776   0.122E-02    0.159E-02
DAV:  20    -0.894399045882E+03    0.33549E-04   -0.44052E-05  4656   0.744E-03    0.628E-03
DAV:  21    -0.894399042321E+03    0.35606E-05   -0.19408E-05  2480   0.365E-03
   1 F= -.89439904E+03 E0= -.89434130E+03  d E =-.115494E+00
