Li                                      
           1
   -10.853500   18.798813    0.000000
   -18.606000  -10.742179    0.000000
     0.000000    0.000000   22.765000
   Li
   504
Direct configuration=     1
   0.00003792  0.96807194  0.00562779
   0.93596680  0.99650669  0.67291020
   0.83250493  0.07978396  0.30747521
   0.76536235  0.12323255  0.01907650
   0.74302216  0.13624855  0.64427277
   0.64298395  0.23229328  0.31627509
   0.58692005  0.26835891  0.01281900
   0.49217296  0.28695136  0.68482027
   0.45248757  0.34733585  0.35748895
   0.35261169  0.37444164  0.02000332
   0.30266572  0.38898019  0.65703524
   0.21025608  0.46507333  0.34170427
   0.08026613  0.01581522  0.67664778
   0.98703136  0.08731445  0.35491279
   0.92935897  0.12207037  0.99842289
   0.88149235  0.15649671  0.68456794
   0.77798140  0.20271765  0.31826079
   0.68661318  0.25175894  0.01526948
   0.65894387  0.24990161  0.66888755
   0.57498608  0.36348629  0.34462157
   0.50481776  0.39659196  0.00210587
   0.40829982  0.39928276  0.68704030
   0.37559377  0.45725942  0.36443318
   0.27382021  0.49425266  0.99741102
   0.12138655  0.09295761  0.35073529
   0.05122481  0.10282229  0.99408394
   0.02433252  0.14661792  0.66963928
   0.92024930  0.18659100  0.33946476
   0.83535404  0.23675062  0.98395450
   0.79307813  0.30260699  0.63380404
   0.72707403  0.33697716  0.31385097
   0.64908858  0.36356164  0.97877978
   0.54414170  0.40823839  0.67416908
   0.49063099  0.47706183  0.34359707
   0.41012939  0.50118799  0.03165806
   0.36180022  0.54027917  0.65399071
   0.23368523  0.11196883  0.00899355
   0.15554041  0.15446653  0.66601443
   0.06138217  0.19767345  0.32616296
   0.97266317  0.23903373  0.97493056
   0.92311620  0.29189964  0.69738801
   0.84990246  0.32767326  0.36213703
   0.78798554  0.37542658  0.01130832
   0.68276245  0.43104137  0.65802806
   0.64051554  0.44492650  0.35504936
   0.57074280  0.50653512  0.01460997
   0.51670479  0.52821674  0.67863751
   0.42289782  0.60088424  0.34177033
   0.27842605  0.15613281  0.66618490
   0.22430790  0.21013966  0.33987382
   0.11833242  0.22697456  0.97409777
   0.05211377  0.29396899  0.66426401
   0.96974484  0.34468665  0.32734695
   0.91124072  0.36411214  0.00897730
   0.82980243  0.41981210  0.66505781
   0.78617394  0.45957303  0.32933528
   0.71945319  0.49684270  0.98452423
   0.63173662  0.55532844  0.64113116
   0.57243835  0.58613963  0.35740886
   0.51042315  0.60862593  0.96362033
   0.36172437  0.24202064  0.32938418
   0.29735326  0.23879538  0.99794143
   0.20222612  0.25691668  0.66956061
   0.12257673  0.33644380  0.35737732
   0.03670615  0.37297355  0.01518869
   0.98939096  0.42488198  0.65279066
   0.92568682  0.47501049  0.35823229
   0.86041028  0.51476292  0.99705101
   0.77316118  0.53917738  0.68659452
   0.69479621  0.60252714  0.30948606
   0.63315934  0.62462612  0.98887220
   0.55784882  0.67285431  0.66050255
   0.43628492  0.26023759  0.98258917
   0.37015317  0.26754690  0.65422938
   0.25550798  0.33529090  0.35354931
   0.19930079  0.36122467  0.99653477
   0.16908619  0.43811777  0.66711036
   0.08405097  0.45193454  0.31231514
   0.98792008  0.49433925  0.03476107
   0.89734319  0.56797178  0.64498098
   0.86079146  0.60513947  0.29756956
   0.79645657  0.62124927  0.98158928
   0.70722292  0.67849592  0.67032130
   0.63121315  0.71375522  0.32718629
   0.13621424  0.47702130  0.00004738
   0.06004362  0.51744698  0.67091484
   0.99982050  0.59280850  0.32315379
   0.93270977  0.59479514  0.02168973
   0.84324875  0.68007497  0.65932054
   0.77879293  0.72384682  0.33274431
   0.71643183  0.72878518  0.98126210
   0.18904229  0.54053427  0.66066488
   0.16118349  0.60272787  0.32389754
   0.07787488  0.60937666  0.03288088
   0.99447783  0.64836176  0.66062161
   0.93020717  0.74316166  0.31821717
   0.86902113  0.70375830  0.01638517
   0.76475219  0.78541379  0.66192764
   0.29193423  0.60304416  0.33836538
   0.19319690  0.62100334  0.99040775
   0.12866980  0.66530171  0.65892401
   0.06970235  0.72002649  0.34252621
   0.01237601  0.73551170  0.00061375
   0.92692213  0.77658578  0.67160449
   0.84822428  0.85324651  0.33348895
   0.33936931  0.64149893  0.01200399
   0.28744490  0.65376094  0.66917767
   0.22653166  0.71796897  0.35449090
   0.14103266  0.73154384  0.01540263
   0.05236287  0.79317972  0.65050696
   0.00496574  0.83761719  0.30924262
   0.92425082  0.85551436  0.98836240
   0.40357683  0.67904454  0.68348791
   0.34223022  0.76350880  0.34460307
   0.30299529  0.74750872  0.00263868
   0.18662164  0.79237484  0.66262400
   0.14693239  0.85844947  0.33612767
   0.06474302  0.86757013  0.01368750
   0.99312589  0.91353130  0.66403183
   0.90856395  0.98130777  0.35621660
   0.85744104  0.01486775  0.99273515
   0.78370395  0.02544756  0.66757979
   0.70007921  0.06705281  0.32663397
   0.64399712  0.11491124  0.98130009
   0.59634851  0.16508011  0.63355104
   0.50841382  0.22023896  0.34080210
   0.06603152  0.95729395  0.34260045
   0.13782366  0.00126945  0.98609497
   0.21659353  0.02062820  0.66577631
   0.27628411  0.09927666  0.33481218
   0.37050569  0.11473279  0.99640101
   0.43245524  0.15315380  0.63852150
   0.85966453  0.91021576  0.66533721
   0.79289039  0.95809710  0.32804886
   0.70656171  0.96477934  0.98385997
   0.66327197  0.04018541  0.66221565
   0.56645063  0.08543942  0.34016810
   0.50977542  0.13584270  0.99393455
   0.15597307  0.92331876  0.66739511
   0.22285109  0.99334123  0.31968884
   0.31699980  0.99855125  0.01897418
   0.34915105  0.04022858  0.65222982
   0.42105333  0.11242539  0.35510251
   0.80823938  0.87056498  0.99418592
   0.69659783  0.88719502  0.67846038
   0.65923830  0.95026541  0.31500986
   0.57009813  0.97527787  0.97384596
   0.51550551  0.03051178  0.64512592
   0.22067996  0.88015466  0.99791998
   0.28950045  0.92111783  0.62532873
   0.37639059  0.96536442  0.34014291
   0.45408006  0.98947134  0.00539222
   0.69680491  0.82675183  0.33995374
   0.64509014  0.86054497  0.99426239
   0.56417713  0.90618668  0.66065424
   0.50847288  0.96723820  0.34365027
   0.28289394  0.84288315  0.34594346
   0.37621348  0.86875154  0.98869573
   0.40798881  0.91593378  0.67161681
   0.64090860  0.78826966  0.65799137
   0.56480686  0.83845250  0.34223191
   0.51246190  0.87429592  0.99817458
   0.33727412  0.78026164  0.68057740
   0.45655637  0.86236642  0.36236187
   0.59446730  0.74750073  0.01586222
   0.47720298  0.79247678  0.67455725
   0.45002692  0.74293052  0.03156533
   0.48595142  0.71580321  0.35713287
   0.00437345  0.97105541  0.78887836
   0.90791787  0.04406886  0.43702887
   0.87496387  0.07518720  0.11064334
   0.76859312  0.12753661  0.75691471
   0.70812860  0.17905235  0.43956252
   0.63564884  0.19636216  0.11672012
   0.55629274  0.23388990  0.76688386
   0.52527006  0.32168513  0.45304196
   0.43351048  0.36326740  0.12247488
   0.36107751  0.37003399  0.79583614
   0.30785147  0.42311109  0.45594916
   0.20252382  0.45294166  0.12314286
   0.07167484  0.03835615  0.45381168
   0.01659432  0.08011331  0.10150161
   0.91832713  0.08499223  0.77388135
   0.86255901  0.15428391  0.42280476
   0.76823799  0.20658297  0.11262604
   0.72285894  0.23947191  0.77018082
   0.65419837  0.30881690  0.42410847
   0.57116772  0.36028396  0.10146674
   0.50031306  0.36701972  0.80212682
   0.45290908  0.41953158  0.48395214
   0.34749762  0.44873472  0.13238003
   0.30490645  0.48832760  0.76137016
   0.16029839  0.09742723  0.09838572
   0.08051679  0.11366667  0.79251714
   0.00505471  0.16155057  0.44210793
   0.90541319  0.19751724  0.09698382
   0.84543883  0.23340609  0.78233229
   0.78387643  0.30913501  0.44086947
   0.71412666  0.34105248  0.12386061
   0.63759461  0.34363863  0.77315092
   0.57864748  0.43654286  0.43722359
   0.48830301  0.44818067  0.10910912
   0.41695655  0.50985792  0.77475763
   0.37463483  0.53452968  0.46692639
   0.22456347  0.12547807  0.77695423
   0.13320515  0.15493757  0.42986301
   0.07539430  0.19805756  0.10661522
   0.97871544  0.21997069  0.77818668
   0.93665108  0.28035496  0.43797148
   0.86301861  0.31495984  0.08855604
   0.78230236  0.38274976  0.77423354
   0.71398168  0.43329150  0.41892541
   0.64077039  0.43802520  0.10250755
   0.56995873  0.46422127  0.79053955
   0.52747603  0.55283178  0.43955053
   0.41736498  0.56750347  0.11567912
   0.28676479  0.18726054  0.45193494
   0.21704389  0.21422523  0.09712399
   0.11783668  0.24888820  0.78103636
   0.07722493  0.25936949  0.44588953
   0.98883399  0.31985341  0.10711102
   0.92735076  0.35717471  0.78818053
   0.84735395  0.42341770  0.44357294
   0.80214838  0.49335790  0.10824342
   0.70160397  0.50297477  0.77680332
   0.65356304  0.54662709  0.45141584
   0.56740176  0.57377540  0.11121894
   0.47719572  0.62139473  0.77970721
   0.36912400  0.21865338  0.08716070
   0.29334307  0.25357084  0.77143162
   0.20841050  0.31287402  0.45460307
   0.13461711  0.31339333  0.11151991
   0.03672432  0.36910809  0.77388276
   0.01216426  0.41273237  0.43028492
   0.93425198  0.46597668  0.11005391
   0.84396136  0.49836784  0.75397771
   0.77710874  0.55233452  0.42306986
   0.70628595  0.58651072  0.08834306
   0.64172529  0.62191380  0.74936710
   0.57719679  0.69223493  0.44771979
   0.41424885  0.25452077  0.76209297
   0.34487012  0.30977061  0.45275306
   0.29569737  0.32946544  0.13882231
   0.22922532  0.37768876  0.77492893
   0.15329025  0.40838486  0.45015311
   0.07849090  0.44278821  0.11089459
   0.98975217  0.50137755  0.76282381
   0.93951635  0.53402204  0.42120759
   0.83624335  0.61677276  0.09695985
   0.77586289  0.62055543  0.77401497
   0.69488713  0.67683368  0.41962917
   0.63932209  0.69252904  0.12466874
   0.11847925  0.48857486  0.77008627
   0.07141774  0.53630693  0.43026538
   0.99837063  0.55227232  0.13222783
   0.93502453  0.63959983  0.76493769
   0.86123097  0.68062022  0.40590049
   0.77859642  0.71027621  0.11950639
   0.71333296  0.74909661  0.77968545
   0.22378905  0.54647519  0.43583288
   0.13766168  0.57932413  0.12924950
   0.07065095  0.61377199  0.77399427
   0.01103004  0.68802069  0.42477963
   0.94778884  0.71367430  0.10066468
   0.86448064  0.74300210  0.76062911
   0.79066763  0.80034922  0.45302362
   0.28466299  0.57805879  0.11702881
   0.19757379  0.62545884  0.75961067
   0.14777869  0.66066174  0.46841936
   0.08674304  0.69237671  0.09295453
   0.02599147  0.75264462  0.79873835
   0.91528469  0.80914581  0.43685803
   0.85567761  0.82333448  0.09574243
   0.32339922  0.62521675  0.78382789
   0.30305369  0.67274710  0.45520678
   0.21706121  0.66965028  0.11360479
   0.14252031  0.75153288  0.79724605
   0.05905989  0.81602505  0.43425969
   0.01681434  0.82844808  0.13125092
   0.93414498  0.86391943  0.76945515
   0.41966707  0.66573069  0.46000393
   0.34258984  0.71699797  0.12798505
   0.26385612  0.75646315  0.78242076
   0.20513419  0.78922894  0.46947287
   0.15476594  0.81991634  0.12041940
   0.07233050  0.86582216  0.77800902
   0.97654114  0.92595729  0.43947073
   0.95646251  0.92421821  0.11505488
   0.85792386  0.98200387  0.77986229
   0.78689045  0.04925880  0.46034107
   0.69894427  0.07222817  0.09817578
   0.63195336  0.10502016  0.78485994
   0.57267069  0.18063036  0.43317234
   0.49726782  0.22851720  0.09098419
   0.10807472  0.94946264  0.11632109
   0.15153566  0.01561963  0.78964134
   0.22564435  0.05555741  0.43955542
   0.31543691  0.09637844  0.14018366
   0.35489855  0.10381509  0.76495100
   0.43237095  0.19493107  0.42299450
   0.84309774  0.92562253  0.47629457
   0.77765098  0.96470809  0.09830212
   0.72337133  0.01098889  0.78010361
   0.65380489  0.05514409  0.41957624
   0.56692619  0.09183061  0.08395672
   0.51447452  0.13185880  0.74246217
   0.15133716  0.92467888  0.43234111
   0.21994065  0.96189367  0.10994347
   0.28243547  0.00356951  0.76782182
   0.36817165  0.05915689  0.42510032
   0.41874215  0.09920801  0.12091361
   0.78557580  0.87869049  0.77109966
   0.71843757  0.93667698  0.45533824
   0.63002979  0.95439808  0.08627633
   0.58261968  0.99421911  0.76047147
   0.49449091  0.05444663  0.45148471
   0.23689064  0.90274886  0.78121431
   0.26698777  0.91022293  0.42157029
   0.36978638  0.94274339  0.09279477
   0.42300346  0.01995310  0.76183845
   0.70545953  0.83451941  0.09242866
   0.63544227  0.88762707  0.77716670
   0.59318076  0.93542195  0.43836732
   0.48759718  0.95010442  0.11898224
   0.30494689  0.82516903  0.11953483
   0.35156360  0.88436277  0.80575525
   0.43992893  0.93454040  0.46218560
   0.63921861  0.81622611  0.45218136
   0.56341523  0.83064864  0.10430076
   0.49691723  0.88454384  0.79399494
   0.36951229  0.82731724  0.45888957
   0.42227985  0.85071673  0.13254525
   0.54928983  0.75694043  0.76311925
   0.50335131  0.80692906  0.47073047
   0.41722377  0.76060915  0.77425534
   0.50291363  0.69040415  0.13695847
   0.99498891  0.99446723  0.22927850
   0.93157296  0.03328056  0.88302802
   0.86094589  0.06624956  0.56917854
   0.77015184  0.11518819  0.20709395
   0.73347071  0.17138142  0.90667565
   0.64958086  0.22170558  0.53377515
   0.54143190  0.27718549  0.21444182
   0.50323541  0.28846772  0.89210785
   0.42174401  0.30726967  0.56678077
   0.33028691  0.39036303  0.25886115
   0.30055898  0.39776988  0.88969725
   0.23013186  0.44001472  0.56962258
   0.08237957  0.03371145  0.86666980
   0.97620876  0.06070739  0.56154042
   0.90590440  0.11389574  0.23303852
   0.87772210  0.17017994  0.89635994
   0.80886939  0.20511879  0.56206225
   0.71333227  0.25681394  0.21600429
   0.61466036  0.26923615  0.86662628
   0.60028582  0.33741597  0.54974303
   0.48540503  0.40063745  0.24392342
   0.45439964  0.44118754  0.90465740
   0.36810453  0.46939819  0.57612129
   0.28911084  0.52210332  0.23553431
   0.12756318  0.06081013  0.57135660
   0.05064443  0.11052570  0.23807569
   0.99256459  0.15028981  0.88899315
   0.96525090  0.20526736  0.55829701
   0.85414401  0.22569676  0.21351287
   0.76555644  0.28801083  0.89537507
   0.74226067  0.33419585  0.56582027
   0.66274893  0.37887370  0.21770777
   0.56074731  0.42880117  0.88971438
   0.50361431  0.44807764  0.57273551
   0.41739931  0.49814219  0.24452678
   0.36673538  0.53971997  0.87534761
   0.19383353  0.13479629  0.22548308
   0.15607708  0.15732932  0.87205616
   0.06777892  0.17914125  0.55314312
   0.99161670  0.26987748  0.20707393
   0.91842783  0.28021561  0.87026854
   0.89030928  0.34739743  0.55941267
   0.79569694  0.37825393  0.23323102
   0.72342385  0.41567796  0.88636550
   0.65458835  0.45138167  0.53384165
   0.55859276  0.51339147  0.21768540
   0.51346646  0.54411406  0.88044484
   0.44679131  0.61125399  0.57625035
   0.30690340  0.17470317  0.87988031
   0.22740486  0.21438715  0.54177356
   0.12830963  0.23830827  0.22034649
   0.06990932  0.31686104  0.89787462
   0.02171383  0.34044965  0.55731437
   0.91351477  0.36247058  0.21549093
   0.85059699  0.40042001  0.89993558
   0.79432347  0.45792418  0.54359719
   0.71367377  0.49859733  0.19371337
   0.64367705  0.54814321  0.90264352
   0.61402250  0.57135483  0.55857255
   0.50947225  0.61053289  0.23267020
   0.34171455  0.18994125  0.56937716
   0.26403650  0.25140384  0.21856702
   0.20818570  0.29644880  0.88324627
   0.15261395  0.34088121  0.57103041
   0.05840384  0.34498922  0.20788431
   0.97714458  0.45763019  0.90855918
   0.95632285  0.45535479  0.56059451
   0.84316690  0.53424918  0.23174251
   0.79776472  0.52466517  0.88065626
   0.75556815  0.60316919  0.57482902
   0.63975347  0.62995336  0.22259035
   0.57037191  0.68381393  0.86663235
   0.39686704  0.27442250  0.21734651
   0.35173736  0.29307731  0.89252740
   0.27297819  0.32717576  0.54132032
   0.19687400  0.37087360  0.24799551
   0.14896307  0.42344494  0.89811959
   0.10057917  0.45847735  0.54798180
   0.98383491  0.48915305  0.22655908
   0.92227596  0.56350047  0.89493466
   0.86724760  0.57122315  0.54520840
   0.78163060  0.64275604  0.20756925
   0.70702322  0.66290303  0.86488969
   0.66371586  0.72823349  0.57333495
   0.14214448  0.49976937  0.23072214
   0.08684017  0.53750205  0.89628819
   0.00589607  0.57179562  0.54290311
   0.93866523  0.64524852  0.20004763
   0.85533762  0.66491644  0.88257003
   0.78964528  0.70803938  0.54289798
   0.69749740  0.75136864  0.21534792
   0.22307587  0.54044001  0.86805313
   0.15419521  0.56602398  0.54981289
   0.06416247  0.64909044  0.23644253
   0.02321794  0.65790674  0.89507996
   0.92456934  0.70171221  0.53354722
   0.85361050  0.77415361  0.23496618
   0.80961373  0.78348315  0.89038298
   0.27114749  0.57161234  0.54721006
   0.21024586  0.62504162  0.23607379
   0.12801348  0.65410166  0.89240384
   0.05985314  0.71165502  0.55792369
   0.02621811  0.75490575  0.21839207
   0.94414122  0.77746794  0.89680612
   0.84439704  0.81101513  0.56937632
   0.35744889  0.63861966  0.22134186
   0.27934935  0.64184312  0.88128054
   0.20763205  0.69440870  0.57111572
   0.15348416  0.74650979  0.22046965
   0.07275233  0.78703094  0.90881756
   0.98766357  0.83136781  0.55775087
   0.92745178  0.89364586  0.22626512
   0.41548867  0.67472899  0.89374699
   0.36564201  0.71803847  0.56963532
   0.26549400  0.76267038  0.22374662
   0.22133230  0.77688459  0.91847193
   0.14432900  0.83886995  0.54008822
   0.08507049  0.88762225  0.22577572
   0.01966220  0.88965866  0.87295347
   0.92436114  0.95063774  0.53434503
   0.84526717  0.98331256  0.20265240
   0.81200087  0.06405049  0.87299967
   0.71699447  0.07875352  0.54986772
   0.62057086  0.12260754  0.23739690
   0.58468173  0.14902655  0.90820331
   0.49377051  0.21696900  0.53357080
   0.04494499  0.95967518  0.56413374
   0.16087767  0.00733466  0.21648856
   0.23051846  0.03694369  0.90009451
   0.27456946  0.06151594  0.54646456
   0.37346643  0.14335817  0.23742771
   0.44999435  0.14633790  0.86367415
   0.86377169  0.91331392  0.89366016
   0.78080017  0.93777207  0.58685029
   0.72309536  0.01440306  0.19959889
   0.68923659  0.03593682  0.88469195
   0.56623186  0.12128161  0.56405623
   0.48605274  0.15010389  0.22648825
   0.15450279  0.88039008  0.87622070
   0.20924214  0.93107255  0.53599501
   0.31565042  0.98552332  0.24224216
   0.39023936  0.03919935  0.88631908
   0.42559068  0.07274753  0.55483090
   0.76766877  0.84854825  0.19632021
   0.75104460  0.93445703  0.88879664
   0.61413524  0.98396546  0.56315287
   0.55833055  0.03839534  0.23330290
   0.52006055  0.03668261  0.86981390
   0.21940294  0.88182789  0.20554004
   0.27803268  0.92754266  0.92034291
   0.34133403  0.95374563  0.53898094
   0.42255433  0.99982149  0.21971058
   0.72321097  0.83779428  0.57600001
   0.60887096  0.88348997  0.21675000
   0.61843374  0.92638351  0.88246967
   0.51534613  0.97268927  0.56506333
   0.27162252  0.82121222  0.55144023
   0.37068439  0.87492761  0.22810566
   0.42949978  0.92624320  0.88901042
   0.64020515  0.79904260  0.87586195
   0.58436983  0.85509515  0.55730540
   0.50364838  0.90598677  0.22890581
   0.37043041  0.76946093  0.88882380
   0.44154092  0.85051319  0.59714567
   0.55214822  0.75929089  0.25302945
   0.48486610  0.80433084  0.90323894
   0.44317655  0.77196395  0.24486574
   0.51879397  0.71439809  0.53627354
