 432 432   0   0
  0.2356206E+02  0.2167200E-08  0.2167200E-08  0.2167200E-08  0.5000000E-15
  1.000000000000000E-004
  CAR 
 Li                                      
      2.99120273     -3.59094369  301      0.04434205      1.00000000
     -3.591  0.0000E+00  0.0000E+00
     -3.569  0.0000E+00  0.0000E+00
     -3.547  0.0000E+00  0.0000E+00
     -3.525  0.0000E+00  0.0000E+00
     -3.503  0.0000E+00  0.0000E+00
     -3.481  0.0000E+00  0.0000E+00
     -3.459  0.9488E-13  0.2082E-14
     -3.437  0.2321E-09  0.5095E-11
     -3.415  0.2001E-06  0.4395E-08
     -3.393  0.6069E-04  0.1336E-05
     -3.372  0.6533E-02  0.1447E-03
     -3.350  0.2522E+00  0.5679E-02
     -3.328  0.3541E+01  0.8337E-01
     -3.306  0.1834E+02  0.4857E+00
     -3.284  0.3547E+02  0.1264E+01
     -3.262  0.2579E+02  0.1830E+01
     -3.240  0.7138E+01  0.1986E+01
     -3.218  0.3274E+01  0.2058E+01
     -3.196  0.2227E+02  0.2547E+01
     -3.174  0.7576E+02  0.4209E+01
     -3.152  0.1031E+03  0.6471E+01
     -3.130  0.5634E+02  0.7707E+01
     -3.108  0.1262E+02  0.7983E+01
     -3.086  0.6472E+01  0.8125E+01
     -3.064  0.3504E+02  0.8894E+01
     -3.042  0.9038E+02  0.1088E+02
     -3.020  0.9466E+02  0.1295E+02
     -2.999  0.4036E+02  0.1384E+02
     -2.977  0.8523E+01  0.1403E+02
     -2.955  0.1748E+02  0.1441E+02
     -2.933  0.7274E+02  0.1601E+02
     -2.911  0.1317E+03  0.1890E+02
     -2.889  0.1025E+03  0.2115E+02
     -2.867  0.3445E+02  0.2190E+02
     -2.845  0.1167E+02  0.2216E+02
     -2.823  0.4748E+02  0.2320E+02
     -2.801  0.1389E+03  0.2625E+02
     -2.779  0.1879E+03  0.3037E+02
     -2.757  0.1220E+03  0.3305E+02
     -2.735  0.3835E+02  0.3389E+02
     -2.713  0.1184E+02  0.3415E+02
     -2.691  0.3636E+02  0.3494E+02
     -2.669  0.8610E+02  0.3683E+02
     -2.648  0.9176E+02  0.3885E+02
     -2.626  0.4344E+02  0.3980E+02
     -2.604  0.1253E+02  0.4007E+02
     -2.582  0.3246E+02  0.4079E+02
     -2.560  0.1121E+03  0.4325E+02
     -2.538  0.1841E+03  0.4729E+02
     -2.516  0.1475E+03  0.5052E+02
     -2.494  0.5789E+02  0.5179E+02
     -2.472  0.2420E+02  0.5232E+02
     -2.450  0.7830E+02  0.5404E+02
     -2.428  0.1952E+03  0.5833E+02
     -2.406  0.2555E+03  0.6393E+02
     -2.384  0.1868E+03  0.6803E+02
     -2.362  0.7438E+02  0.6966E+02
     -2.340  0.1842E+02  0.7006E+02
     -2.318  0.2975E+02  0.7072E+02
     -2.296  0.8236E+02  0.7252E+02
     -2.275  0.9834E+02  0.7468E+02
     -2.253  0.4964E+02  0.7577E+02
     -2.231  0.1810E+02  0.7617E+02
     -2.209  0.4914E+02  0.7725E+02
     -2.187  0.1358E+03  0.8023E+02
     -2.165  0.1977E+03  0.8456E+02
     -2.143  0.1606E+03  0.8809E+02
     -2.121  0.7230E+02  0.8967E+02
     -2.099  0.3247E+02  0.9038E+02
     -2.077  0.8284E+02  0.9220E+02
     -2.055  0.1879E+03  0.9633E+02
     -2.033  0.2426E+03  0.1016E+03
     -2.011  0.1880E+03  0.1058E+03
     -1.989  0.8357E+02  0.1076E+03
     -1.967  0.3176E+02  0.1083E+03
     -1.945  0.6673E+02  0.1098E+03
     -1.923  0.1464E+03  0.1130E+03
     -1.902  0.1722E+03  0.1168E+03
     -1.880  0.1089E+03  0.1191E+03
     -1.858  0.4547E+02  0.1201E+03
     -1.836  0.6586E+02  0.1216E+03
     -1.814  0.1657E+03  0.1252E+03
     -1.792  0.2473E+03  0.1307E+03
     -1.770  0.2117E+03  0.1353E+03
     -1.748  0.9983E+02  0.1375E+03
     -1.726  0.3843E+02  0.1383E+03
     -1.704  0.8807E+02  0.1403E+03
     -1.682  0.2136E+03  0.1449E+03
     -1.660  0.2647E+03  0.1508E+03
     -1.638  0.1711E+03  0.1545E+03
     -1.616  0.5954E+02  0.1558E+03
     -1.594  0.2801E+02  0.1564E+03
     -1.572  0.7839E+02  0.1582E+03
     -1.550  0.1554E+03  0.1616E+03
     -1.529  0.1649E+03  0.1652E+03
     -1.507  0.9659E+02  0.1673E+03
     -1.485  0.3400E+02  0.1680E+03
     -1.463  0.3818E+02  0.1689E+03
     -1.441  0.1013E+03  0.1711E+03
     -1.419  0.1600E+03  0.1746E+03
     -1.397  0.1483E+03  0.1779E+03
     -1.375  0.9143E+02  0.1799E+03
     -1.353  0.9809E+02  0.1820E+03
     -1.331  0.2024E+03  0.1865E+03
     -1.309  0.3091E+03  0.1932E+03
     -1.287  0.3327E+03  0.2005E+03
     -1.265  0.2578E+03  0.2062E+03
     -1.243  0.1396E+03  0.2093E+03
     -1.221  0.8913E+02  0.2112E+03
     -1.199  0.1536E+03  0.2146E+03
     -1.177  0.2316E+03  0.2197E+03
     -1.156  0.2148E+03  0.2244E+03
     -1.134  0.1220E+03  0.2271E+03
     -1.112  0.4840E+02  0.2281E+03
     -1.090  0.6040E+02  0.2295E+03
     -1.068  0.1408E+03  0.2325E+03
     -1.046  0.1983E+03  0.2369E+03
     -1.024  0.1561E+03  0.2403E+03
     -1.002  0.7429E+02  0.2419E+03
     -0.980  0.7384E+02  0.2436E+03
     -0.958  0.1762E+03  0.2474E+03
     -0.936  0.2851E+03  0.2537E+03
     -0.914  0.2931E+03  0.2601E+03
     -0.892  0.1947E+03  0.2644E+03
     -0.870  0.1027E+03  0.2666E+03
     -0.848  0.9612E+02  0.2688E+03
     -0.826  0.9317E+02  0.2708E+03
     -0.805  0.4651E+02  0.2718E+03
     -0.783  0.2490E+02  0.2724E+03
     -0.761  0.7192E+02  0.2739E+03
     -0.739  0.1753E+03  0.2778E+03
     -0.717  0.2715E+03  0.2837E+03
     -0.695  0.2904E+03  0.2901E+03
     -0.673  0.2326E+03  0.2952E+03
     -0.651  0.1666E+03  0.2989E+03
     -0.629  0.1347E+03  0.3018E+03
     -0.607  0.1653E+03  0.3055E+03
     -0.585  0.2418E+03  0.3108E+03
     -0.563  0.2906E+03  0.3171E+03
     -0.541  0.2963E+03  0.3236E+03
     -0.519  0.2365E+03  0.3288E+03
     -0.497  0.1321E+03  0.3317E+03
     -0.475  0.9741E+02  0.3339E+03
     -0.453  0.1272E+03  0.3367E+03
     -0.432  0.1374E+03  0.3397E+03
     -0.410  0.1267E+03  0.3425E+03
     -0.388  0.1116E+03  0.3449E+03
     -0.366  0.1655E+03  0.3485E+03
     -0.344  0.2699E+03  0.3545E+03
     -0.322  0.3315E+03  0.3617E+03
     -0.300  0.3286E+03  0.3689E+03
     -0.278  0.2706E+03  0.3749E+03
     -0.256  0.1741E+03  0.3787E+03
     -0.234  0.1166E+03  0.3812E+03
     -0.212  0.1569E+03  0.3847E+03
     -0.190  0.2139E+03  0.3894E+03
     -0.168  0.2349E+03  0.3945E+03
     -0.146  0.2240E+03  0.3995E+03
     -0.124  0.1587E+03  0.4029E+03
     -0.102  0.1044E+03  0.4052E+03
     -0.080  0.1150E+03  0.4078E+03
     -0.059  0.1381E+03  0.4108E+03
     -0.037  0.1853E+03  0.4148E+03
     -0.015  0.2302E+03  0.4199E+03
      0.007  0.2172E+03  0.4247E+03
      0.029  0.1982E+03  0.4290E+03
      0.051  0.1995E+03  0.4334E+03
      0.073  0.2162E+03  0.4381E+03
      0.095  0.2415E+03  0.4434E+03
      0.117  0.2645E+03  0.4492E+03
      0.139  0.2667E+03  0.4551E+03
      0.161  0.2254E+03  0.4600E+03
      0.183  0.1549E+03  0.4634E+03
      0.205  0.1316E+03  0.4663E+03
      0.227  0.1732E+03  0.4701E+03
      0.249  0.2031E+03  0.4746E+03
      0.271  0.2216E+03  0.4794E+03
      0.293  0.2490E+03  0.4849E+03
      0.314  0.2780E+03  0.4910E+03
      0.336  0.3012E+03  0.4976E+03
      0.358  0.3030E+03  0.5043E+03
      0.380  0.2886E+03  0.5106E+03
      0.402  0.2821E+03  0.5168E+03
      0.424  0.2872E+03  0.5231E+03
      0.446  0.2870E+03  0.5294E+03
      0.468  0.2742E+03  0.5354E+03
      0.490  0.2656E+03  0.5412E+03
      0.512  0.2674E+03  0.5471E+03
      0.534  0.2659E+03  0.5529E+03
      0.556  0.2539E+03  0.5585E+03
      0.578  0.2409E+03  0.5638E+03
      0.600  0.2371E+03  0.5690E+03
      0.622  0.2384E+03  0.5742E+03
      0.644  0.2436E+03  0.5795E+03
      0.666  0.2500E+03  0.5850E+03
      0.687  0.2609E+03  0.5908E+03
      0.709  0.2762E+03  0.5968E+03
      0.731  0.2821E+03  0.6030E+03
      0.753  0.2734E+03  0.6090E+03
      0.775  0.2427E+03  0.6143E+03
      0.797  0.1923E+03  0.6186E+03
      0.819  0.1493E+03  0.6218E+03
      0.841  0.1603E+03  0.6253E+03
      0.863  0.2162E+03  0.6301E+03
      0.885  0.2623E+03  0.6358E+03
      0.907  0.2711E+03  0.6418E+03
      0.929  0.2291E+03  0.6468E+03
      0.951  0.1509E+03  0.6501E+03
      0.973  0.7702E+02  0.6518E+03
      0.995  0.6841E+02  0.6533E+03
      1.017  0.1339E+03  0.6563E+03
      1.038  0.1740E+03  0.6601E+03
      1.060  0.1400E+03  0.6631E+03
      1.082  0.1122E+03  0.6656E+03
      1.104  0.1409E+03  0.6687E+03
      1.126  0.1773E+03  0.6726E+03
      1.148  0.2017E+03  0.6770E+03
      1.170  0.2244E+03  0.6819E+03
      1.192  0.2210E+03  0.6868E+03
      1.214  0.1865E+03  0.6909E+03
      1.236  0.1496E+03  0.6942E+03
      1.258  0.1362E+03  0.6971E+03
      1.280  0.1386E+03  0.7002E+03
      1.302  0.1755E+03  0.7040E+03
      1.324  0.2296E+03  0.7091E+03
      1.346  0.2413E+03  0.7144E+03
      1.368  0.2129E+03  0.7190E+03
      1.390  0.1783E+03  0.7230E+03
      1.411  0.1777E+03  0.7269E+03
      1.433  0.2089E+03  0.7314E+03
      1.455  0.2341E+03  0.7366E+03
      1.477  0.2344E+03  0.7417E+03
      1.499  0.2102E+03  0.7463E+03
      1.521  0.1839E+03  0.7504E+03
      1.543  0.1667E+03  0.7540E+03
      1.565  0.1615E+03  0.7576E+03
      1.587  0.1598E+03  0.7611E+03
      1.609  0.1598E+03  0.7646E+03
      1.631  0.1610E+03  0.7681E+03
      1.653  0.1570E+03  0.7716E+03
      1.675  0.1648E+03  0.7752E+03
      1.697  0.1668E+03  0.7788E+03
      1.719  0.1322E+03  0.7817E+03
      1.741  0.8013E+02  0.7835E+03
      1.763  0.5809E+02  0.7848E+03
      1.784  0.8760E+02  0.7867E+03
      1.806  0.1240E+03  0.7894E+03
      1.828  0.1338E+03  0.7923E+03
      1.850  0.1047E+03  0.7946E+03
      1.872  0.4899E+02  0.7957E+03
      1.894  0.1165E+02  0.7960E+03
      1.916  0.2551E+01  0.7960E+03
      1.938  0.1294E+02  0.7963E+03
      1.960  0.5278E+02  0.7975E+03
      1.982  0.9451E+02  0.7995E+03
      2.004  0.7729E+02  0.8012E+03
      2.026  0.2928E+02  0.8019E+03
      2.048  0.4998E+01  0.8020E+03
      2.070  0.4351E+00  0.8020E+03
      2.092  0.1439E+01  0.8020E+03
      2.114  0.1156E+02  0.8023E+03
      2.136  0.4336E+02  0.8032E+03
      2.157  0.8991E+02  0.8052E+03
      2.179  0.1208E+03  0.8079E+03
      2.201  0.1269E+03  0.8106E+03
      2.223  0.1188E+03  0.8133E+03
      2.245  0.1039E+03  0.8155E+03
      2.267  0.1015E+03  0.8178E+03
      2.289  0.1099E+03  0.8202E+03
      2.311  0.1378E+03  0.8232E+03
      2.333  0.1692E+03  0.8269E+03
      2.355  0.1753E+03  0.8308E+03
      2.377  0.1711E+03  0.8345E+03
      2.399  0.1589E+03  0.8380E+03
      2.421  0.1308E+03  0.8409E+03
      2.443  0.9873E+02  0.8430E+03
      2.465  0.8777E+02  0.8450E+03
      2.487  0.8123E+02  0.8467E+03
      2.509  0.5228E+02  0.8479E+03
      2.530  0.3774E+02  0.8487E+03
      2.552  0.5715E+02  0.8500E+03
      2.574  0.7866E+02  0.8517E+03
      2.596  0.9401E+02  0.8538E+03
      2.618  0.1192E+03  0.8564E+03
      2.640  0.1403E+03  0.8594E+03
      2.662  0.1308E+03  0.8623E+03
      2.684  0.9739E+02  0.8645E+03
      2.706  0.5268E+02  0.8656E+03
      2.728  0.1568E+02  0.8660E+03
      2.750  0.2111E+01  0.8660E+03
      2.772  0.1171E+00  0.8660E+03
      2.794  0.2542E-02  0.8660E+03
      2.816  0.2083E-04  0.8660E+03
      2.838  0.6277E-07  0.8660E+03
      2.860  0.6835E-10  0.8660E+03
      2.882  0.2530E-13  0.8660E+03
      2.903  0.0000E+00  0.8660E+03
      2.925  0.0000E+00  0.8660E+03
      2.947  0.0000E+00  0.8660E+03
      2.969  0.0000E+00  0.8660E+03
      2.991  0.0000E+00  0.8660E+03
