Li                                      
           1
    21.672000    0.000000    0.000000
     0.000000   21.672000    0.000000
     0.000000    0.000000   21.672000
   Li
   432
Direct configuration=     1
   0.01306003  0.01408588  0.00931057
   0.91422080  0.10378897  0.07945823
   0.81531524  0.16148149  0.18214773
   0.74700567  0.26170949  0.25468993
   0.67689923  0.35872482  0.32915418
   0.58359111  0.42174010  0.44296416
   0.50954916  0.52759578  0.48908964
   0.41156328  0.58972319  0.56661241
   0.32655538  0.66966676  0.67874114
   0.23346760  0.76458160  0.75166936
   0.16271016  0.85646090  0.84684155
   0.08596878  0.92828533  0.92141864
   0.08829688  0.93068028  0.09694951
   0.98919991  0.01377957  0.16297383
   0.90868671  0.07467951  0.27056776
   0.83143039  0.17496060  0.34257975
   0.73814057  0.26905702  0.43829318
   0.66761743  0.33403795  0.52408861
   0.57792818  0.42582867  0.58286248
   0.48886472  0.50915872  0.68122691
   0.40558588  0.59846817  0.76231527
   0.32531406  0.66822964  0.84148199
   0.23506853  0.74842109  0.92969807
   0.14866703  0.83823214  0.00974896
   0.16016647  0.83311782  0.17513084
   0.08821403  0.92438137  0.25350660
   0.00113141  0.01352147  0.33119078
   0.90929218  0.07886046  0.42801195
   0.83285667  0.16178371  0.49296289
   0.73710790  0.25420296  0.59904033
   0.64873235  0.33504649  0.67108732
   0.56863218  0.41691472  0.73909054
   0.49775480  0.51335249  0.83862288
   0.40852230  0.58725313  0.92731253
   0.31686592  0.67874661  0.00035731
   0.23503596  0.74713561  0.07471138
   0.25015820  0.75296591  0.23461675
   0.15977421  0.81805798  0.33208402
   0.07962968  0.92655644  0.40118825
   0.98562297  0.99989965  0.50426241
   0.91686702  0.07907587  0.57863277
   0.82747708  0.15676839  0.65574450
   0.75441441  0.24257117  0.73202290
   0.65759197  0.33250241  0.83313220
   0.58917635  0.41276595  0.93336877
   0.50517662  0.50742445  0.00761184
   0.39995921  0.59790491  0.09051003
   0.31099074  0.64902717  0.17630767
   0.33021160  0.67214884  0.32931211
   0.24696192  0.75503336  0.42370337
   0.15651824  0.85365714  0.49592148
   0.08247820  0.91700926  0.57274441
   0.00683620  0.99683560  0.64965790
   0.91072084  0.07336072  0.73421246
   0.83445279  0.16765735  0.81971649
   0.74782844  0.25991724  0.90146431
   0.67456913  0.33882444  0.01558833
   0.58401413  0.42289324  0.08684580
   0.49382354  0.52004004  0.17611983
   0.42978204  0.57618850  0.26177400
   0.40444437  0.58567427  0.41239435
   0.32638977  0.66341681  0.50201715
   0.24269664  0.76042618  0.58719653
   0.16426003  0.84401311  0.66105758
   0.08457271  0.93330396  0.74813351
   0.00234000  0.02273425  0.82266728
   0.90258476  0.07914780  0.90207270
   0.81290167  0.17008739  0.97217558
   0.75349023  0.24906934  0.08473759
   0.66062150  0.33793735  0.17258270
   0.58767912  0.41269251  0.24951048
   0.50515745  0.49050279  0.34228524
   0.08661824  0.08017762  0.91553326
   0.98782358  0.17712042  0.01006789
   0.90968805  0.25768260  0.08399656
   0.82687347  0.33579242  0.17137581
   0.75160880  0.42606205  0.24825802
   0.67926545  0.50432237  0.33997177
   0.59582903  0.60777233  0.41089742
   0.49717741  0.65711136  0.50079527
   0.41372915  0.75419320  0.58511926
   0.33811355  0.84947332  0.68477521
   0.24140208  0.91515080  0.75275715
   0.15739957  0.00597750  0.83071277
   0.16960637  0.00270173  0.01084002
   0.08674994  0.08557352  0.07861373
   0.00262252  0.16575578  0.18559935
   0.90621185  0.25207449  0.24360697
   0.83878213  0.34501562  0.33418873
   0.75204158  0.41966407  0.42326175
   0.66306598  0.51574619  0.49709621
   0.57357092  0.58804319  0.57526827
   0.48510411  0.66049702  0.65770004
   0.40047791  0.74753703  0.76426873
   0.31244443  0.82410846  0.84692436
   0.24464227  0.91626395  0.92126256
   0.24421426  0.90812731  0.09207712
   0.17478212  0.01799733  0.15347962
   0.08483606  0.08420373  0.24657262
   0.98566323  0.16611490  0.34099668
   0.89567706  0.24004346  0.42325943
   0.82575157  0.33990113  0.50936970
   0.75169669  0.43399295  0.58797651
   0.66321501  0.50326450  0.66928842
   0.58426131  0.57498695  0.74197065
   0.50686766  0.65257634  0.83671087
   0.42405746  0.73562891  0.92922850
   0.32684841  0.81792539  0.02008596
   0.33187840  0.83078353  0.16490166
   0.24912443  0.90301572  0.24432834
   0.18400808  0.00625264  0.33466401
   0.09044221  0.07953751  0.41240682
   0.99216169  0.16694879  0.50912768
   0.91195411  0.25259869  0.59356681
   0.81899948  0.32548547  0.66031018
   0.75638251  0.41596549  0.75160309
   0.67061635  0.49068122  0.84188099
   0.60045563  0.58438008  0.92777117
   0.50611881  0.66525454  0.99115822
   0.41936532  0.72990691  0.09118994
   0.40840933  0.74613690  0.23950015
   0.33170602  0.83148762  0.32579680
   0.26015282  0.92670765  0.40738120
   0.16490969  0.00152213  0.49165770
   0.09908516  0.07332198  0.58338352
   0.00097765  0.16102238  0.64900762
   0.92929438  0.24869178  0.73087879
   0.82187665  0.32519560  0.82431316
   0.74780558  0.40929078  0.93167854
   0.68513373  0.50633218  0.00086202
   0.58390173  0.59451502  0.07118940
   0.50494711  0.67182923  0.16771049
   0.49623770  0.66550036  0.34189803
   0.40301001  0.74799976  0.43029429
   0.33357676  0.83229184  0.50523904
   0.25455042  0.91418209  0.58178589
   0.16592808  0.98337422  0.65974592
   0.07287161  0.07505972  0.74058494
   0.00253469  0.16269181  0.81304320
   0.91234201  0.26181441  0.90545291
   0.81815058  0.33967226  0.99677116
   0.75620509  0.43067363  0.09779822
   0.66350717  0.50869708  0.15243052
   0.58790730  0.58513823  0.25189561
   0.16559667  0.15535318  0.80333017
   0.08754754  0.24625801  0.91319096
   0.00215693  0.32413554  0.98343596
   0.91477680  0.41692575  0.09663230
   0.84449900  0.50513900  0.17308653
   0.75496898  0.57888396  0.24505373
   0.66781473  0.65726495  0.32461414
   0.57783457  0.74088372  0.41359863
   0.48105277  0.81947024  0.49961506
   0.41050297  0.92847420  0.57331810
   0.34298752  0.98951100  0.66085878
   0.27475902  0.08165536  0.75632434
   0.24312295  0.08481791  0.92991055
   0.17325772  0.17458750  0.98846919
   0.08812337  0.24839289  0.09184442
   0.99874166  0.33248201  0.18032808
   0.91739797  0.42635858  0.26444233
   0.82759908  0.50893286  0.35277468
   0.75474437  0.59480818  0.41382810
   0.67372398  0.67007857  0.51041152
   0.57418288  0.75491950  0.58397080
   0.47979774  0.83521685  0.68653830
   0.40223463  0.92772032  0.77028140
   0.32989966  0.99312304  0.83944313
   0.32987501  0.97990267  0.00277869
   0.25919212  0.08842181  0.07145748
   0.17138649  0.15741457  0.16889638
   0.09177829  0.24832496  0.25668319
   0.01061148  0.32618697  0.33487353
   0.93011600  0.41640962  0.41765165
   0.83116653  0.52201613  0.49592381
   0.74596849  0.59085859  0.59327845
   0.67145264  0.66843179  0.65798867
   0.56917937  0.74659926  0.73861920
   0.50052711  0.82900073  0.81581232
   0.40135613  0.90939661  0.89723776
   0.43072282  0.89822893  0.08930833
   0.33357427  0.99187501  0.15334226
   0.25524113  0.07543934  0.25173101
   0.15963225  0.16570622  0.33041758
   0.07807013  0.23812717  0.43178363
   0.00609394  0.32979845  0.50530917
   0.89724337  0.42063704  0.58113811
   0.83918171  0.52759997  0.67478017
   0.74777018  0.58879894  0.75873008
   0.65503152  0.67008323  0.84477748
   0.58291255  0.77150071  0.90579614
   0.48746131  0.83937808  0.99743045
   0.51630834  0.82529914  0.16797074
   0.41578006  0.91337563  0.23172881
   0.33606243  0.99531633  0.31362669
   0.26855413  0.09118501  0.40941622
   0.18163203  0.17447822  0.48739083
   0.08108277  0.25652005  0.57339083
   0.98948164  0.34088504  0.66470573
   0.91156037  0.40860755  0.75759860
   0.82481565  0.50619865  0.84714748
   0.76633861  0.58853091  0.91244667
   0.67479784  0.67058096  0.98816944
   0.59066419  0.74190155  0.06931802
   0.59114477  0.73309976  0.24637101
   0.49186448  0.81412440  0.32137217
   0.40964199  0.90599966  0.39783246
   0.34689217  0.99794633  0.49713051
   0.25706281  0.08206281  0.57984827
   0.17911757  0.15601554  0.67091406
   0.08920062  0.26255654  0.73682368
   0.98929786  0.32566368  0.82343479
   0.90496524  0.41171356  0.91212063
   0.82978470  0.50156080  0.00748095
   0.74899106  0.59892686  0.07247266
   0.68076290  0.67579966  0.16954100
   0.27294400  0.24094067  0.73662343
   0.16217691  0.33105299  0.82636836
   0.08046962  0.41215831  0.91160260
   0.99229965  0.48823268  0.99801352
   0.92754592  0.58471242  0.07018783
   0.82773887  0.67646289  0.15051815
   0.75660431  0.74942440  0.25255181
   0.67412771  0.81073364  0.34129063
   0.58193316  0.89407858  0.41031298
   0.49408229  0.98947479  0.49249134
   0.42130085  0.08065334  0.58007652
   0.34314013  0.16397377  0.66271132
   0.33292773  0.17063959  0.84199543
   0.25006997  0.25743035  0.91540794
   0.16993480  0.33171173  0.99183264
   0.06396883  0.40872086  0.07855127
   0.99832199  0.50174714  0.17303523
   0.91742531  0.57971398  0.25048295
   0.82471463  0.67920602  0.34108447
   0.73804588  0.74733996  0.43137522
   0.64824682  0.83542943  0.51286734
   0.57578210  0.89454811  0.59275062
   0.48100592  0.99330407  0.66599348
   0.41365503  0.08455590  0.75565435
   0.41447837  0.06290022  0.90822809
   0.34399984  0.17441026  0.99550490
   0.26495136  0.25458562  0.08606709
   0.15879483  0.33559935  0.16853965
   0.08292903  0.42070990  0.25282072
   0.99807492  0.52060942  0.32927897
   0.91776628  0.59540042  0.43692182
   0.83200812  0.67083511  0.50466583
   0.75537118  0.76737948  0.58749757
   0.65717512  0.83389930  0.68530082
   0.56932011  0.91291689  0.75376953
   0.50860171  0.00313602  0.84945741
   0.50630247  0.99342530  0.98535424
   0.41852366  0.08581133  0.07223758
   0.34519426  0.18286753  0.17438192
   0.24309588  0.25638269  0.24218712
   0.15022338  0.33892286  0.35061492
   0.07834814  0.42963193  0.43073342
   0.98800813  0.50122506  0.49596285
   0.92567069  0.58804369  0.58172144
   0.83794078  0.67592137  0.66361400
   0.76151976  0.76165826  0.75740482
   0.65614637  0.84378396  0.81767429
   0.59239888  0.92039306  0.91087790
   0.58329398  0.91233783  0.07300400
   0.50335982  0.99494868  0.16903545
   0.42854313  0.08004973  0.25101958
   0.33624836  0.16087981  0.32445541
   0.25624707  0.25979635  0.41024231
   0.17688163  0.33727827  0.50464842
   0.09453675  0.41742646  0.58513044
   0.98493706  0.49746000  0.66993426
   0.91078542  0.58342926  0.75692908
   0.82635836  0.67328203  0.83062426
   0.76206990  0.75690602  0.90704531
   0.66413480  0.83639718  0.98325771
   0.67460220  0.83168195  0.15381568
   0.59392916  0.91508260  0.25261895
   0.49491085  0.98163188  0.32808011
   0.42865428  0.08133647  0.41341963
   0.33937531  0.18118201  0.48772702
   0.26289507  0.23908519  0.59709501
   0.17450439  0.33659071  0.66756115
   0.09230865  0.41248667  0.73781828
   0.99294016  0.49741584  0.82796773
   0.92847487  0.57209292  0.92913505
   0.84054649  0.67201543  0.98704216
   0.75927987  0.75715982  0.05921823
   0.34512661  0.33868428  0.64413815
   0.25818475  0.40933819  0.74298280
   0.16486662  0.48505379  0.82869993
   0.10297752  0.57346906  0.91333023
   0.02591920  0.66136509  0.99730510
   0.93922813  0.73284832  0.05037673
   0.85321057  0.81676866  0.15299429
   0.75988208  0.91116349  0.25689371
   0.66156634  0.00199481  0.34084600
   0.57015575  0.09098909  0.43178951
   0.49848757  0.17073757  0.48744828
   0.41214387  0.24920613  0.57445795
   0.41473339  0.25664911  0.75617478
   0.33013344  0.32351908  0.83813775
   0.25077423  0.41896560  0.91737316
   0.15937610  0.48278622  0.00811934
   0.08745932  0.58015520  0.09008772
   0.98914448  0.66944497  0.15939608
   0.91147982  0.74516973  0.23373692
   0.85087991  0.83677529  0.34119885
   0.74245771  0.90031406  0.40565669
   0.66597401  0.97701265  0.48872437
   0.58050227  0.06957079  0.57661458
   0.49415153  0.15414888  0.66903384
   0.50186979  0.16551771  0.83823993
   0.43149609  0.24782252  0.92893164
   0.33006816  0.32803167  0.01794160
   0.24177021  0.41578374  0.08537845
   0.15600151  0.48973666  0.16520065
   0.08060104  0.59547716  0.25051186
   0.99342663  0.67778416  0.33793123
   0.92194542  0.74970425  0.42490460
   0.82259186  0.84449406  0.49979798
   0.74931327  0.91807768  0.58878088
   0.68143146  0.98453828  0.65300450
   0.58107818  0.07734072  0.74394567
   0.58873421  0.07874593  0.89591518
   0.50236815  0.15453663  0.00078884
   0.42585812  0.23488498  0.06486322
   0.34609395  0.32816047  0.17189007
   0.23294650  0.42307991  0.26706222
   0.15147578  0.51036977  0.34190393
   0.08761395  0.59809457  0.41898848
   0.00481025  0.67748494  0.50262928
   0.91278104  0.74567328  0.57186455
   0.84632153  0.83436946  0.67102126
   0.76825137  0.91774444  0.74554825
   0.67691354  0.98517535  0.83084378
   0.66324221  0.00486819  0.98373524
   0.58858820  0.06894549  0.09227445
   0.50064346  0.15317634  0.17363780
   0.40867488  0.24841509  0.26214671
   0.33282176  0.33469574  0.32667807
   0.24000927  0.42835853  0.43520566
   0.16817451  0.49549458  0.50417329
   0.07743934  0.57949425  0.58542639
   0.00343944  0.66628979  0.67223528
   0.92171503  0.73517775  0.75886820
   0.84717355  0.84695167  0.83466047
   0.75518594  0.90927452  0.92134921
   0.73168621  0.90774389  0.08411397
   0.66824573  0.98751143  0.15629735
   0.58869669  0.06981552  0.25585286
   0.49575899  0.16567630  0.34670748
   0.41212205  0.24744703  0.41229179
   0.31886234  0.31935960  0.51648181
   0.25991250  0.42466407  0.56142022
   0.16536979  0.49294227  0.66063877
   0.09662444  0.57399522  0.74368013
   0.00375769  0.65307646  0.83127809
   0.92503896  0.75054659  0.91334229
   0.85902454  0.85230312  0.00648447
   0.41658534  0.42896689  0.56655449
   0.33688019  0.49483809  0.65845744
   0.25657337  0.57910968  0.75690686
   0.17670537  0.65359384  0.82723354
   0.08278032  0.75341285  0.89612547
   0.01055146  0.84307686  0.98912045
   0.92316166  0.92041011  0.07398787
   0.83437110  0.99264640  0.16260934
   0.75257278  0.06096478  0.26312230
   0.66038650  0.17010308  0.33715485
   0.59593590  0.26202673  0.42747545
   0.48927741  0.33040103  0.48733861
   0.49348913  0.33992665  0.65892122
   0.41416503  0.42095117  0.76064967
   0.34510573  0.49861429  0.82950100
   0.25426924  0.55982883  0.92824895
   0.16567975  0.64326362  0.99473009
   0.08477223  0.73801731  0.07201922
   0.01235130  0.82199527  0.15811029
   0.91974599  0.92108508  0.26244899
   0.82413707  0.99037040  0.36213239
   0.74153133  0.08565536  0.43190331
   0.66473602  0.16889714  0.50986154
   0.58505711  0.25527404  0.58365385
   0.57420616  0.25795499  0.74102995
   0.49073929  0.33880005  0.81975268
   0.43420336  0.40324574  0.91242627
   0.35224271  0.47462145  0.99360642
   0.25763713  0.56430574  0.07441747
   0.17249363  0.66498809  0.16712639
   0.07722908  0.73967241  0.25827984
   0.99992207  0.82403664  0.33376189
   0.92183078  0.91616731  0.42798160
   0.81910872  0.99344974  0.49785417
   0.75142399  0.06848958  0.58354649
   0.66842189  0.15857750  0.66245201
   0.66000605  0.16902122  0.82807000
   0.59096814  0.23897496  0.93443785
   0.51628654  0.34545752  0.99827286
   0.41618319  0.42446163  0.09290481
   0.33434080  0.48794903  0.17659258
   0.24043519  0.57563690  0.25632667
   0.16160778  0.66652277  0.33936345
   0.10103651  0.74847991  0.41544087
   0.01073809  0.84662078  0.49528260
   0.89683408  0.90945745  0.57168336
   0.82902126  0.99115621  0.66474260
   0.75284176  0.07989265  0.74471307
   0.74862760  0.10389112  0.89905461
   0.67997097  0.16764138  0.00410655
   0.58111350  0.24713127  0.08649731
   0.50490822  0.33332440  0.17017041
   0.43185326  0.41827098  0.26007790
   0.33348268  0.51234118  0.33325941
   0.25088532  0.57842328  0.42304071
   0.16203571  0.65631242  0.50687436
   0.09083453  0.75655658  0.58560364
   0.00400836  0.81371532  0.66963535
   0.93114210  0.91824526  0.74979029
   0.82971501  0.00399551  0.81868312
   0.83435037  0.00762460  0.00248872
   0.76009223  0.07273803  0.08758307
   0.68069950  0.16970349  0.18075333
   0.57369429  0.25443549  0.25819849
   0.48893670  0.35163427  0.35885453
   0.39617076  0.43662972  0.42748935
   0.33663391  0.50549029  0.50152740
   0.25267857  0.57053087  0.58740954
   0.18500499  0.65323020  0.65845346
   0.09753000  0.73983568  0.75514299
   0.00503329  0.83762774  0.81612578
   0.92299777  0.92746754  0.91134349
