 432 432   0   0
  0.2159961E+02  0.2105280E-08  0.2105280E-08  0.2105280E-08  0.5000000E-15
  1.000000000000000E-004
  CAR 
 Li                                      
      3.40533729     -3.51523733  301      0.25435191      1.00000000
     -3.515  0.0000E+00  0.0000E+00
     -3.492  0.0000E+00  0.0000E+00
     -3.469  0.0000E+00  0.0000E+00
     -3.446  0.0000E+00  0.0000E+00
     -3.423  0.0000E+00  0.0000E+00
     -3.400  0.0000E+00  0.0000E+00
     -3.377  0.4813E-14  0.1110E-15
     -3.354  0.2248E-10  0.5186E-12
     -3.331  0.3739E-07  0.8631E-09
     -3.308  0.1958E-04  0.4525E-06
     -3.285  0.3257E-02  0.7559E-04
     -3.261  0.1744E+00  0.4098E-02
     -3.238  0.3055E+01  0.7458E-01
     -3.215  0.1786E+02  0.4867E+00
     -3.192  0.3547E+02  0.1305E+01
     -3.169  0.2411E+02  0.1861E+01
     -3.146  0.5696E+01  0.1992E+01
     -3.123  0.3238E+01  0.2067E+01
     -3.100  0.2460E+02  0.2635E+01
     -3.077  0.7971E+02  0.4473E+01
     -3.054  0.9808E+02  0.6736E+01
     -3.031  0.4612E+02  0.7800E+01
     -3.008  0.8696E+01  0.8001E+01
     -2.985  0.8806E+01  0.8204E+01
     -2.962  0.4588E+02  0.9262E+01
     -2.939  0.9674E+02  0.1149E+02
     -2.915  0.7974E+02  0.1333E+02
     -2.892  0.2576E+02  0.1393E+02
     -2.869  0.5996E+01  0.1407E+02
     -2.846  0.2572E+02  0.1466E+02
     -2.823  0.9069E+02  0.1675E+02
     -2.800  0.1315E+03  0.1979E+02
     -2.777  0.7708E+02  0.2156E+02
     -2.754  0.1858E+02  0.2199E+02
     -2.731  0.1576E+02  0.2236E+02
     -2.708  0.7347E+02  0.2405E+02
     -2.685  0.1674E+03  0.2791E+02
     -2.662  0.1726E+03  0.3189E+02
     -2.639  0.7672E+02  0.3366E+02
     -2.616  0.1459E+02  0.3400E+02
     -2.592  0.1274E+02  0.3429E+02
     -2.569  0.5670E+02  0.3560E+02
     -2.546  0.1020E+03  0.3795E+02
     -2.523  0.6942E+02  0.3956E+02
     -2.500  0.1842E+02  0.3998E+02
     -2.477  0.1257E+02  0.4027E+02
     -2.454  0.6145E+02  0.4169E+02
     -2.431  0.1531E+03  0.4522E+02
     -2.408  0.1781E+03  0.4933E+02
     -2.385  0.9372E+02  0.5149E+02
     -2.362  0.2527E+02  0.5207E+02
     -2.339  0.4141E+02  0.5303E+02
     -2.316  0.1409E+03  0.5628E+02
     -2.293  0.2444E+03  0.6192E+02
     -2.270  0.2237E+03  0.6708E+02
     -2.246  0.1034E+03  0.6946E+02
     -2.223  0.2318E+02  0.7000E+02
     -2.200  0.1917E+02  0.7044E+02
     -2.177  0.6689E+02  0.7198E+02
     -2.154  0.1004E+03  0.7430E+02
     -2.131  0.5930E+02  0.7567E+02
     -2.108  0.1631E+02  0.7604E+02
     -2.085  0.2782E+02  0.7669E+02
     -2.062  0.1052E+03  0.7911E+02
     -2.039  0.1969E+03  0.8365E+02
     -2.016  0.1813E+03  0.8784E+02
     -1.993  0.7871E+02  0.8965E+02
     -1.970  0.2190E+02  0.9016E+02
     -1.947  0.5350E+02  0.9139E+02
     -1.924  0.1669E+03  0.9524E+02
     -1.900  0.2583E+03  0.1012E+03
     -1.877  0.2026E+03  0.1059E+03
     -1.854  0.7839E+02  0.1077E+03
     -1.831  0.2117E+02  0.1082E+03
     -1.808  0.5106E+02  0.1094E+03
     -1.785  0.1394E+03  0.1126E+03
     -1.762  0.1799E+03  0.1167E+03
     -1.739  0.1094E+03  0.1192E+03
     -1.716  0.3746E+02  0.1201E+03
     -1.693  0.5715E+02  0.1214E+03
     -1.670  0.1658E+03  0.1252E+03
     -1.647  0.2513E+03  0.1310E+03
     -1.624  0.2008E+03  0.1357E+03
     -1.601  0.8433E+02  0.1376E+03
     -1.577  0.3316E+02  0.1384E+03
     -1.554  0.9230E+02  0.1405E+03
     -1.531  0.2193E+03  0.1456E+03
     -1.508  0.2578E+03  0.1515E+03
     -1.485  0.1494E+03  0.1550E+03
     -1.462  0.4206E+02  0.1559E+03
     -1.439  0.2544E+02  0.1565E+03
     -1.416  0.8857E+02  0.1586E+03
     -1.393  0.1682E+03  0.1624E+03
     -1.370  0.1551E+03  0.1660E+03
     -1.347  0.7023E+02  0.1676E+03
     -1.324  0.2044E+02  0.1681E+03
     -1.301  0.4036E+02  0.1690E+03
     -1.278  0.1127E+03  0.1717E+03
     -1.255  0.1654E+03  0.1755E+03
     -1.231  0.1341E+03  0.1786E+03
     -1.208  0.7374E+02  0.1803E+03
     -1.185  0.1093E+03  0.1828E+03
     -1.162  0.2351E+03  0.1882E+03
     -1.139  0.3278E+03  0.1958E+03
     -1.116  0.3205E+03  0.2032E+03
     -1.093  0.2079E+03  0.2080E+03
     -1.070  0.9171E+02  0.2101E+03
     -1.047  0.9660E+02  0.2123E+03
     -1.024  0.1933E+03  0.2168E+03
     -1.001  0.2335E+03  0.2221E+03
     -0.978  0.1691E+03  0.2260E+03
     -0.955  0.7114E+02  0.2277E+03
     -0.932  0.2971E+02  0.2284E+03
     -0.908  0.8403E+02  0.2303E+03
     -0.885  0.1845E+03  0.2346E+03
     -0.862  0.1947E+03  0.2391E+03
     -0.839  0.1031E+03  0.2414E+03
     -0.816  0.4811E+02  0.2425E+03
     -0.793  0.1160E+03  0.2452E+03
     -0.770  0.2508E+03  0.2510E+03
     -0.747  0.3064E+03  0.2581E+03
     -0.724  0.2309E+03  0.2634E+03
     -0.701  0.1226E+03  0.2662E+03
     -0.678  0.9863E+02  0.2685E+03
     -0.655  0.9593E+02  0.2707E+03
     -0.632  0.4627E+02  0.2718E+03
     -0.609  0.1502E+02  0.2721E+03
     -0.586  0.4504E+02  0.2732E+03
     -0.562  0.1436E+03  0.2765E+03
     -0.539  0.2491E+03  0.2822E+03
     -0.516  0.2766E+03  0.2886E+03
     -0.493  0.2254E+03  0.2938E+03
     -0.470  0.1647E+03  0.2976E+03
     -0.447  0.1483E+03  0.3010E+03
     -0.424  0.1692E+03  0.3049E+03
     -0.401  0.2193E+03  0.3100E+03
     -0.378  0.2590E+03  0.3160E+03
     -0.355  0.2719E+03  0.3222E+03
     -0.332  0.2419E+03  0.3278E+03
     -0.309  0.1512E+03  0.3313E+03
     -0.286  0.9686E+02  0.3335E+03
     -0.263  0.1155E+03  0.3362E+03
     -0.239  0.1309E+03  0.3392E+03
     -0.216  0.1286E+03  0.3422E+03
     -0.193  0.1070E+03  0.3447E+03
     -0.170  0.1546E+03  0.3482E+03
     -0.147  0.2601E+03  0.3542E+03
     -0.124  0.3291E+03  0.3618E+03
     -0.101  0.3412E+03  0.3697E+03
     -0.078  0.2751E+03  0.3760E+03
     -0.055  0.1431E+03  0.3793E+03
     -0.032  0.8361E+02  0.3813E+03
     -0.009  0.1546E+03  0.3848E+03
      0.014  0.2438E+03  0.3905E+03
      0.037  0.2630E+03  0.3965E+03
      0.060  0.2030E+03  0.4012E+03
      0.083  0.1073E+03  0.4037E+03
      0.107  0.7935E+02  0.4055E+03
      0.130  0.1165E+03  0.4082E+03
      0.153  0.1439E+03  0.4115E+03
      0.176  0.1990E+03  0.4161E+03
      0.199  0.2301E+03  0.4214E+03
      0.222  0.1985E+03  0.4260E+03
      0.245  0.1807E+03  0.4302E+03
      0.268  0.2048E+03  0.4349E+03
      0.291  0.2399E+03  0.4404E+03
      0.314  0.2656E+03  0.4466E+03
      0.337  0.2707E+03  0.4528E+03
      0.360  0.2347E+03  0.4582E+03
      0.383  0.1616E+03  0.4619E+03
      0.406  0.1086E+03  0.4645E+03
      0.429  0.1302E+03  0.4675E+03
      0.453  0.1909E+03  0.4719E+03
      0.476  0.2249E+03  0.4770E+03
      0.499  0.2291E+03  0.4823E+03
      0.522  0.2317E+03  0.4877E+03
      0.545  0.2626E+03  0.4937E+03
      0.568  0.3069E+03  0.5008E+03
      0.591  0.3200E+03  0.5082E+03
      0.614  0.3054E+03  0.5152E+03
      0.637  0.2810E+03  0.5217E+03
      0.660  0.2602E+03  0.5277E+03
      0.683  0.2443E+03  0.5334E+03
      0.706  0.2470E+03  0.5391E+03
      0.729  0.2624E+03  0.5451E+03
      0.752  0.2599E+03  0.5511E+03
      0.776  0.2487E+03  0.5568E+03
      0.799  0.2444E+03  0.5625E+03
      0.822  0.2373E+03  0.5680E+03
      0.845  0.2139E+03  0.5729E+03
      0.868  0.2088E+03  0.5777E+03
      0.891  0.2451E+03  0.5834E+03
      0.914  0.2675E+03  0.5895E+03
      0.937  0.2664E+03  0.5957E+03
      0.960  0.2602E+03  0.6017E+03
      0.983  0.2603E+03  0.6077E+03
      1.006  0.2453E+03  0.6133E+03
      1.029  0.2068E+03  0.6181E+03
      1.052  0.1644E+03  0.6219E+03
      1.075  0.1598E+03  0.6256E+03
      1.098  0.1980E+03  0.6302E+03
      1.122  0.2368E+03  0.6356E+03
      1.145  0.2508E+03  0.6414E+03
      1.168  0.2211E+03  0.6465E+03
      1.191  0.1509E+03  0.6500E+03
      1.214  0.7278E+02  0.6517E+03
      1.237  0.4784E+02  0.6528E+03
      1.260  0.1090E+03  0.6553E+03
      1.283  0.1744E+03  0.6593E+03
      1.306  0.1496E+03  0.6628E+03
      1.329  0.1014E+03  0.6651E+03
      1.352  0.1251E+03  0.6680E+03
      1.375  0.1714E+03  0.6719E+03
      1.398  0.2043E+03  0.6767E+03
      1.421  0.2272E+03  0.6819E+03
      1.445  0.2133E+03  0.6868E+03
      1.468  0.1667E+03  0.6907E+03
      1.491  0.1160E+03  0.6933E+03
      1.514  0.9589E+02  0.6955E+03
      1.537  0.1183E+03  0.6983E+03
      1.560  0.1539E+03  0.7018E+03
      1.583  0.1885E+03  0.7062E+03
      1.606  0.2073E+03  0.7110E+03
      1.629  0.2139E+03  0.7159E+03
      1.652  0.2027E+03  0.7206E+03
      1.675  0.1767E+03  0.7246E+03
      1.698  0.1839E+03  0.7289E+03
      1.721  0.2233E+03  0.7340E+03
      1.744  0.2444E+03  0.7397E+03
      1.767  0.2272E+03  0.7449E+03
      1.791  0.1854E+03  0.7492E+03
      1.814  0.1464E+03  0.7526E+03
      1.837  0.1437E+03  0.7559E+03
      1.860  0.1652E+03  0.7597E+03
      1.883  0.1764E+03  0.7638E+03
      1.906  0.1693E+03  0.7677E+03
      1.929  0.1533E+03  0.7712E+03
      1.952  0.1546E+03  0.7748E+03
      1.975  0.1632E+03  0.7785E+03
      1.998  0.1384E+03  0.7817E+03
      2.021  0.7797E+02  0.7835E+03
      2.044  0.4614E+02  0.7846E+03
      2.067  0.8520E+02  0.7866E+03
      2.090  0.1251E+03  0.7895E+03
      2.113  0.1199E+03  0.7922E+03
      2.137  0.9299E+02  0.7944E+03
      2.160  0.5235E+02  0.7956E+03
      2.183  0.1639E+02  0.7959E+03
      2.206  0.3823E+01  0.7960E+03
      2.229  0.1600E+02  0.7964E+03
      2.252  0.6047E+02  0.7978E+03
      2.275  0.9505E+02  0.8000E+03
      2.298  0.6505E+02  0.8015E+03
      2.321  0.1944E+02  0.8019E+03
      2.344  0.2405E+01  0.8020E+03
      2.367  0.1161E+00  0.8020E+03
      2.390  0.1226E+00  0.8020E+03
      2.413  0.2256E+01  0.8021E+03
      2.436  0.1648E+02  0.8024E+03
      2.460  0.5577E+02  0.8037E+03
      2.483  0.1042E+03  0.8061E+03
      2.506  0.1221E+03  0.8089E+03
      2.529  0.1136E+03  0.8116E+03
      2.552  0.1034E+03  0.8140E+03
      2.575  0.9007E+02  0.8160E+03
      2.598  0.7166E+02  0.8177E+03
      2.621  0.7303E+02  0.8194E+03
      2.644  0.1103E+03  0.8219E+03
      2.667  0.1528E+03  0.8254E+03
      2.690  0.1704E+03  0.8294E+03
      2.713  0.1665E+03  0.8332E+03
      2.736  0.1633E+03  0.8370E+03
      2.759  0.1375E+03  0.8401E+03
      2.782  0.9885E+02  0.8424E+03
      2.806  0.8540E+02  0.8444E+03
      2.829  0.8022E+02  0.8462E+03
      2.852  0.5517E+02  0.8475E+03
      2.875  0.2816E+02  0.8482E+03
      2.898  0.3460E+02  0.8490E+03
      2.921  0.6017E+02  0.8504E+03
      2.944  0.7815E+02  0.8522E+03
      2.967  0.9254E+02  0.8543E+03
      2.990  0.1023E+03  0.8567E+03
      3.013  0.1058E+03  0.8591E+03
      3.036  0.9928E+02  0.8614E+03
      3.059  0.7934E+02  0.8632E+03
      3.082  0.6199E+02  0.8646E+03
      3.105  0.4196E+02  0.8656E+03
      3.129  0.1465E+02  0.8660E+03
      3.152  0.2006E+01  0.8660E+03
      3.175  0.9793E-01  0.8660E+03
      3.198  0.1626E-02  0.8660E+03
      3.221  0.8915E-05  0.8660E+03
      3.244  0.1581E-07  0.8660E+03
      3.267  0.8947E-11  0.8660E+03
      3.290  0.0000E+00  0.8660E+03
      3.313  0.0000E+00  0.8660E+03
      3.336  0.0000E+00  0.8660E+03
      3.359  0.0000E+00  0.8660E+03
      3.382  0.0000E+00  0.8660E+03
      3.405  0.0000E+00  0.8660E+03
