       N       E                     dE             d eps       ncg     rms          rms(c)
DAV:   1    -0.282213072772E+03   -0.28221E+03   -0.10279E+05  3464   0.649E+02
DAV:   2    -0.772691352757E+03   -0.49048E+03   -0.44905E+03  3996   0.649E+01
DAV:   3    -0.807009862923E+03   -0.34319E+02   -0.31332E+02  4328   0.136E+01
DAV:   4    -0.808158959265E+03   -0.11491E+01   -0.11335E+01  3896   0.274E+00
DAV:   5    -0.808184342906E+03   -0.25384E-01   -0.25356E-01  4088   0.437E-01    0.649E+00
DAV:   6    -0.805911403195E+03    0.22729E+01   -0.48858E+00  3952   0.314E+00    0.495E+00
DAV:   7    -0.803177184437E+03    0.27342E+01   -0.43631E+00  3960   0.300E+00    0.315E+00
DAV:   8    -0.802155143867E+03    0.10220E+01   -0.21920E+00  3904   0.152E+00    0.169E+00
DAV:   9    -0.801977626477E+03    0.17752E+00   -0.11369E+00  3760   0.870E-01    0.901E-01
DAV:  10    -0.802000395543E+03   -0.22769E-01   -0.21084E-01  4024   0.501E-01    0.705E-01
DAV:  11    -0.801951084979E+03    0.49311E-01   -0.82879E-02  3920   0.357E-01    0.382E-01
DAV:  12    -0.801946282506E+03    0.48025E-02   -0.23502E-02  3720   0.139E-01    0.163E-01
DAV:  13    -0.801946154813E+03    0.12769E-03   -0.61064E-03  3808   0.793E-02    0.887E-02
DAV:  14    -0.801945888364E+03    0.26645E-03   -0.14024E-03  3848   0.512E-02    0.625E-02
DAV:  15    -0.801945494106E+03    0.39426E-03   -0.47888E-04  3808   0.309E-02    0.323E-02
DAV:  16    -0.801945407610E+03    0.86496E-04   -0.32703E-04  3696   0.159E-02    0.108E-02
DAV:  17    -0.801945412491E+03   -0.48805E-05   -0.50882E-05  4056   0.860E-03
   1 F= -.80194541E+03 E0= -.80190018E+03  d E =-.904712E-01
