Li                                      
           1
    21.052800    0.000000    0.000000
     0.000000   21.052800    0.000000
     0.000000    0.000000   21.052800
   Li
   432
Direct configuration=     1
   0.99462505  0.99567710  0.97879609
   0.90793251  0.09539276  0.07372424
   0.82464321  0.15669111  0.18459915
   0.75123987  0.23958559  0.24897943
   0.66535091  0.33471493  0.33120555
   0.58838624  0.41522704  0.43043982
   0.49100030  0.49754743  0.49862233
   0.41018529  0.57872299  0.59134615
   0.32791992  0.65563737  0.65438504
   0.24736374  0.73951848  0.74222249
   0.16955195  0.83983723  0.81840142
   0.07433691  0.91787190  0.90958187
   0.07402280  0.92749577  0.07208864
   0.00109562  0.99565664  0.15812080
   0.90721264  0.08383521  0.24728708
   0.82791346  0.16992053  0.32137088
   0.75309153  0.25459451  0.41235465
   0.68145963  0.33573211  0.50006308
   0.58682119  0.42461038  0.56900699
   0.51200899  0.48923138  0.66124719
   0.41591895  0.56809627  0.74288348
   0.33719543  0.65246474  0.82224525
   0.25590334  0.76012308  0.90986252
   0.17676369  0.82629132  0.01378338
   0.16081919  0.83446788  0.16985734
   0.07557303  0.91737675  0.25873715
   0.99702528  0.99966797  0.32791582
   0.91580256  0.08067152  0.41301046
   0.83128665  0.16522240  0.49087192
   0.76520728  0.25518922  0.58723549
   0.67170769  0.32698416  0.67255053
   0.58381058  0.42433347  0.75884314
   0.51239397  0.47248108  0.83819175
   0.42393428  0.57422269  0.92053674
   0.33396743  0.65794879  0.98590347
   0.24407240  0.74319785  0.09210288
   0.25189418  0.75322958  0.24346534
   0.15869843  0.83805285  0.31835481
   0.08349262  0.91936549  0.41100266
   0.98687630  0.99773665  0.51100108
   0.91215077  0.08473860  0.57255396
   0.82908892  0.16151120  0.66163513
   0.76256031  0.25721015  0.74358670
   0.67759008  0.33989313  0.83732242
   0.59021175  0.39727875  0.91313442
   0.49945720  0.48788045  0.97746505
   0.42781015  0.57633428  0.07746458
   0.32963077  0.65802782  0.15678882
   0.33420536  0.67546465  0.32395848
   0.23717767  0.74675066  0.41691552
   0.15658513  0.82420275  0.49779153
   0.09458878  0.92514074  0.59671525
   0.99712092  0.01571735  0.66681417
   0.91981763  0.08146335  0.74399299
   0.82938186  0.18086122  0.83495786
   0.75440916  0.25965544  0.91158489
   0.67102351  0.32935110  0.99142315
   0.60476345  0.42696498  0.07403202
   0.51798296  0.51569190  0.17215425
   0.40984856  0.58915966  0.23937671
   0.40635259  0.58763453  0.42105954
   0.32121425  0.66235335  0.51160142
   0.24121966  0.73775881  0.58229875
   0.18380104  0.82239926  0.66944836
   0.07998963  0.92611969  0.73913943
   0.00961899  0.00808379  0.83786717
   0.89233395  0.09183182  0.92094215
   0.82107594  0.18276714  0.00262912
   0.74112414  0.24932202  0.08170780
   0.67251130  0.34393513  0.16275820
   0.58702030  0.42833298  0.27042185
   0.51376805  0.51943581  0.33886035
   0.07662772  0.09459730  0.91879187
   0.99712245  0.17493300  0.99069210
   0.90594427  0.24752304  0.09727957
   0.81040734  0.33668185  0.15588593
   0.74719871  0.42168826  0.25984268
   0.65923547  0.51808241  0.33164887
   0.59424100  0.58170775  0.43221768
   0.49650915  0.67246915  0.50738376
   0.41970883  0.75353169  0.58680451
   0.33233752  0.83853819  0.66176228
   0.25432119  0.93304872  0.75117514
   0.16564772  0.00587223  0.83904553
   0.17488844  0.00591296  0.99459229
   0.07896380  0.08237452  0.07145628
   0.99054648  0.16750826  0.15749785
   0.90221637  0.25482241  0.23602910
   0.83948378  0.34331772  0.31547713
   0.74593777  0.43316921  0.41608655
   0.69983981  0.51034012  0.49365533
   0.58940318  0.58908156  0.57325809
   0.51349661  0.64415463  0.67158444
   0.41658274  0.74579224  0.73907627
   0.32298304  0.83713463  0.81873005
   0.24983883  0.92435202  0.91089686
   0.24867209  0.92536211  0.08312433
   0.17082961  0.00268658  0.15236535
   0.07264532  0.08419598  0.23007355
   0.98977993  0.17492210  0.31444964
   0.90590181  0.25930772  0.38849640
   0.83806512  0.33305910  0.49548086
   0.74901149  0.42366529  0.59129058
   0.66138529  0.49426078  0.66746063
   0.58348462  0.57696153  0.77292948
   0.49597378  0.66038251  0.82595536
   0.39227189  0.75942148  0.90189560
   0.32326415  0.84558495  0.00270160
   0.32302825  0.83313355  0.15620935
   0.24677684  0.92051714  0.26374438
   0.15822186  0.01152942  0.32218922
   0.08267485  0.08013246  0.40116558
   0.98668955  0.16639662  0.48315427
   0.91537561  0.25197932  0.58418804
   0.83155330  0.34270268  0.67436360
   0.75215309  0.42707852  0.74423675
   0.67463872  0.48080773  0.83939333
   0.59596013  0.59623569  0.91241208
   0.49664910  0.66882212  0.99375307
   0.40076827  0.75453942  0.07547708
   0.40863184  0.75367309  0.25398409
   0.32151701  0.83009247  0.33654241
   0.24356509  0.92070867  0.40402774
   0.16319500  0.01086060  0.48587787
   0.09277696  0.07029071  0.58101754
   0.00498460  0.15431097  0.66455767
   0.90364983  0.24384837  0.76030712
   0.81900229  0.35591703  0.82994465
   0.76988678  0.41831198  0.90842109
   0.66526109  0.50566402  0.99463032
   0.57769243  0.59155694  0.07492399
   0.50898777  0.68753094  0.16774044
   0.49774135  0.65993665  0.33018927
   0.40758016  0.74674315  0.42485082
   0.32435212  0.82648595  0.50582809
   0.22689479  0.90632538  0.57549210
   0.18394624  0.99950931  0.69001001
   0.09726515  0.08842707  0.73584300
   0.98281576  0.16554130  0.82498103
   0.92178464  0.25789095  0.91815310
   0.83081912  0.32641992  0.00368012
   0.74264065  0.42483318  0.08170602
   0.67226953  0.52233045  0.17119555
   0.56549490  0.59055923  0.24484560
   0.15937453  0.17995355  0.83637846
   0.07365265  0.25363299  0.91274968
   0.98287394  0.33015427  0.00059219
   0.92185698  0.41843111  0.09719817
   0.82105018  0.50526737  0.17571482
   0.76301509  0.58953622  0.25392008
   0.66535398  0.66646136  0.33734744
   0.57717693  0.74596231  0.43179573
   0.50714283  0.83741601  0.51337538
   0.43209457  0.91703080  0.59235176
   0.32011527  0.99193745  0.66722209
   0.25820978  0.08905972  0.76392287
   0.25749504  0.09222356  0.91941388
   0.18352264  0.16142382  0.99798365
   0.07457481  0.25216569  0.06964023
   0.99438100  0.33607528  0.16115122
   0.92898708  0.41785280  0.23753423
   0.82380978  0.49303480  0.33297982
   0.77473793  0.58947624  0.41028038
   0.68039445  0.65748245  0.49219376
   0.59280868  0.73731169  0.57596789
   0.50352033  0.82074343  0.65598876
   0.42750189  0.92355331  0.75698163
   0.34712735  0.98947231  0.84259145
   0.33057150  0.00704756  0.99006446
   0.26152782  0.08534947  0.07513694
   0.15039676  0.17572486  0.15494431
   0.08444986  0.25786140  0.25660145
   0.99894306  0.33072109  0.32703068
   0.91435734  0.41085877  0.40447276
   0.84431753  0.50587477  0.49762798
   0.75805744  0.58054838  0.58583986
   0.66136875  0.65319043  0.67332310
   0.58149270  0.73587644  0.75130829
   0.50145909  0.82807858  0.82932528
   0.42202514  0.91015532  0.90418767
   0.40650900  0.91919739  0.08241766
   0.33859376  0.99962764  0.17675059
   0.25177458  0.09803956  0.23572818
   0.16368503  0.15980881  0.31165193
   0.07861891  0.23833187  0.41546430
   0.98940021  0.33266732  0.49125984
   0.92317483  0.41960478  0.58402237
   0.83904748  0.50777340  0.65459588
   0.75504116  0.58480043  0.76249732
   0.68293177  0.67452749  0.83333271
   0.57758538  0.75804094  0.91653062
   0.49588420  0.82569863  0.01021148
   0.51255759  0.84695456  0.16265427
   0.41253592  0.90507216  0.26629555
   0.32798380  0.98951431  0.32046184
   0.25190353  0.07384200  0.42223136
   0.17682104  0.14117791  0.50304121
   0.08829848  0.23745691  0.56721098
   0.99202587  0.31878878  0.66338445
   0.90534864  0.43047849  0.74662410
   0.83367685  0.50181353  0.84780874
   0.75257985  0.58127405  0.92019635
   0.66906845  0.68736221  0.99813401
   0.58741409  0.74835176  0.08084711
   0.58290206  0.76622429  0.24240274
   0.50574966  0.82601062  0.35409546
   0.40786513  0.92516110  0.41893498
   0.31740280  0.98974175  0.51292071
   0.24122917  0.08642826  0.59548739
   0.15462574  0.16699067  0.66865037
   0.08242818  0.25987162  0.75727012
   0.98875118  0.33653358  0.81700501
   0.91004648  0.40568749  0.93242306
   0.83395244  0.50072112  0.00771388
   0.74192904  0.58590126  0.07538416
   0.66413155  0.66884283  0.18300860
   0.23504805  0.25567264  0.75023935
   0.17346496  0.33485688  0.83557782
   0.08044666  0.41877931  0.91359742
   0.01154205  0.51406122  0.99729996
   0.92318919  0.57463973  0.09267432
   0.83857654  0.67275974  0.19183686
   0.73154294  0.74318620  0.25803717
   0.66871594  0.82531859  0.35272415
   0.58578541  0.91262984  0.43158635
   0.48001977  0.00198877  0.50829819
   0.41366585  0.06725386  0.59807506
   0.31348747  0.16794345  0.66830342
   0.32327498  0.18685672  0.83122002
   0.24724579  0.24083932  0.90972034
   0.16733025  0.32703340  0.99415391
   0.07014439  0.41932390  0.07589620
   0.00463209  0.51901525  0.16722484
   0.91569412  0.58303667  0.25472787
   0.83803828  0.68205544  0.33795840
   0.73392156  0.74485025  0.42870791
   0.67911489  0.83086521  0.51370772
   0.57844080  0.90582945  0.59627718
   0.50250478  0.99721815  0.68712794
   0.40160131  0.06579594  0.74984770
   0.41109680  0.09108943  0.89833760
   0.34116786  0.18599619  0.00247151
   0.25790453  0.26348079  0.09585007
   0.15166019  0.34391110  0.16010765
   0.07821693  0.42559254  0.26348136
   0.01497381  0.51382772  0.32526486
   0.91191939  0.59471419  0.40410580
   0.83609083  0.66929198  0.51420303
   0.75217431  0.75004830  0.59698089
   0.66931294  0.82258093  0.65686823
   0.58987701  0.92239088  0.75856469
   0.51264965  0.00075183  0.83865536
   0.50551866  0.98237109  0.97930221
   0.43631742  0.07281775  0.06612382
   0.33643156  0.15853501  0.15804784
   0.23604362  0.25660299  0.23894922
   0.16200966  0.33006519  0.34308793
   0.08055330  0.41191635  0.41502485
   0.99228735  0.49414411  0.48775381
   0.92901226  0.57743788  0.57397886
   0.84244607  0.65977179  0.66751615
   0.75361868  0.74247904  0.73899451
   0.68523296  0.82772591  0.83438663
   0.60494155  0.91257322  0.91409783
   0.58923713  0.92636183  0.07652065
   0.49929739  0.98354849  0.17354357
   0.42776372  0.08176794  0.24699925
   0.32295364  0.15436024  0.32835533
   0.24683810  0.23128288  0.42424418
   0.16744548  0.34161442  0.49217601
   0.06910891  0.41639062  0.57859630
   0.00630935  0.50605319  0.67853779
   0.92177450  0.58988263  0.75102335
   0.84657953  0.66453671  0.83169591
   0.75654794  0.74297310  0.92144989
   0.66175730  0.82888660  0.00978049
   0.66734530  0.83461687  0.16771410
   0.59634244  0.92181000  0.26433132
   0.49824001  0.99706492  0.33918286
   0.40277221  0.06065395  0.43346715
   0.32897450  0.15358174  0.51169123
   0.24685939  0.24723852  0.59196414
   0.15711567  0.33639780  0.65060836
   0.09953987  0.40096122  0.75300623
   0.01029842  0.48378749  0.84983905
   0.92037014  0.57661678  0.92049313
   0.82722549  0.66948441  0.00208323
   0.74170451  0.76251669  0.07181594
   0.33854223  0.33103487  0.68244543
   0.24436956  0.42197787  0.74980484
   0.16192427  0.49079932  0.84683480
   0.08323961  0.59448354  0.91642173
   0.98695540  0.66164930  0.99941999
   0.91597873  0.74593676  0.09085471
   0.84750647  0.81269232  0.16626050
   0.74509770  0.91104941  0.25376529
   0.65589343  0.99536997  0.33518684
   0.58801817  0.08531169  0.41583805
   0.49477535  0.16510519  0.49650347
   0.42402861  0.24480174  0.58513803
   0.41137324  0.24978469  0.75006350
   0.32762796  0.33236067  0.81667860
   0.24610590  0.42038587  0.91045433
   0.16556728  0.51684086  0.00468831
   0.09094919  0.59803622  0.06512731
   0.00748290  0.66029952  0.18011780
   0.92445270  0.74469792  0.26630679
   0.83837744  0.82868310  0.34064746
   0.74642173  0.92774942  0.41842877
   0.67016254  0.00066647  0.50049408
   0.58032398  0.08098893  0.58092222
   0.50895646  0.16747118  0.66626881
   0.47778131  0.16139273  0.82369431
   0.40278835  0.26166976  0.91824471
   0.33346599  0.34078191  0.00353954
   0.24544778  0.42883233  0.07890347
   0.16774541  0.49464046  0.15777198
   0.10512786  0.59507965  0.25032875
   0.01772746  0.67012746  0.34367872
   0.92456045  0.75009369  0.42563067
   0.82997435  0.83841242  0.51119624
   0.74732137  0.92919569  0.59029658
   0.68003689  0.00073852  0.66593806
   0.58502028  0.08166574  0.74779497
   0.57531815  0.07396581  0.90566765
   0.49870709  0.18030457  0.99274939
   0.41123062  0.25749321  0.08982213
   0.34680374  0.33523290  0.16820366
   0.23127072  0.40939902  0.24665408
   0.17348674  0.49643704  0.33026558
   0.08263002  0.56936485  0.42582490
   0.01207047  0.66805732  0.50183863
   0.91829249  0.74947650  0.58268556
   0.83279603  0.84275426  0.67348209
   0.73962596  0.92063478  0.74816917
   0.67689306  0.01185378  0.83596562
   0.66731336  0.99954600  0.00737820
   0.56416106  0.07555844  0.07575530
   0.49779122  0.17369147  0.16378828
   0.41373063  0.24561442  0.26407380
   0.32183549  0.34279574  0.32344875
   0.25232977  0.42037768  0.42720153
   0.17701682  0.49676745  0.50669293
   0.09941982  0.58263167  0.59660467
   0.00540929  0.63811877  0.66904134
   0.92714528  0.73653096  0.75039823
   0.83109571  0.83504339  0.81160412
   0.76103941  0.91550448  0.93143108
   0.75458843  0.90418951  0.09793447
   0.67258050  0.01618056  0.17165211
   0.57151512  0.08172264  0.25638574
   0.49880073  0.16245914  0.34834182
   0.39793321  0.26195989  0.41629985
   0.32780850  0.32604691  0.50868220
   0.25947594  0.39485424  0.58027299
   0.17569679  0.48939641  0.66924707
   0.08863496  0.57053007  0.76443825
   0.00063247  0.65889681  0.83758707
   0.91117703  0.74516748  0.91080478
   0.83780564  0.82140792  0.00207578
   0.42930004  0.40215193  0.58409213
   0.34195294  0.48799747  0.66313674
   0.24889371  0.57809615  0.73717721
   0.16890641  0.67683776  0.82303753
   0.08173266  0.75372131  0.92049557
   0.98627282  0.83203290  0.99825228
   0.91204896  0.91433768  0.07948775
   0.81592874  0.99951083  0.17209397
   0.74740477  0.08487930  0.26257873
   0.66200251  0.17287483  0.33895215
   0.58990040  0.26023210  0.41952169
   0.49220103  0.31917068  0.50907695
   0.52302596  0.33245787  0.66002804
   0.42678545  0.40119695  0.75637599
   0.34231882  0.48299373  0.82169639
   0.26386810  0.58538331  0.89883991
   0.17762424  0.68556152  0.99448646
   0.06836314  0.75843348  0.08832907
   0.00599327  0.82492847  0.17182481
   0.92313820  0.91190802  0.25175423
   0.84154495  0.99490433  0.33351380
   0.75288926  0.07372744  0.42080304
   0.66842766  0.16003723  0.49458822
   0.58769033  0.25767639  0.55762652
   0.58145789  0.25526597  0.75975306
   0.49775966  0.32765319  0.84289713
   0.42059090  0.41386907  0.91210167
   0.33641668  0.49767033  0.98000971
   0.26850524  0.58166401  0.08331415
   0.16568689  0.67267034  0.15644166
   0.08401955  0.75431201  0.25896027
   0.99369723  0.82365423  0.34277377
   0.92629422  0.92599566  0.42610577
   0.83231445  0.99796026  0.49697344
   0.75124441  0.07776777  0.57933860
   0.66650508  0.17491513  0.66936777
   0.67673433  0.16527688  0.81885971
   0.57762057  0.25856640  0.91360489
   0.49438434  0.33242149  0.00470112
   0.44134544  0.42443976  0.08637566
   0.32521845  0.49070016  0.15748350
   0.24855734  0.60076869  0.25022634
   0.17279349  0.65972251  0.34630704
   0.08083037  0.74238391  0.41334713
   0.01024581  0.83482432  0.50999368
   0.93593282  0.90604676  0.59561595
   0.82630530  0.99755833  0.65130352
   0.75557906  0.08269824  0.74635164
   0.76023174  0.07640798  0.92172213
   0.66315193  0.16138381  0.00555670
   0.59037147  0.25063795  0.08275145
   0.50459124  0.33718325  0.17706696
   0.42744538  0.43037736  0.25381298
   0.32070825  0.50198253  0.33048806
   0.25646257  0.57588178  0.42396488
   0.16899070  0.66036138  0.51782423
   0.07442116  0.74825010  0.60296277
   0.00143055  0.83481042  0.68575990
   0.90353745  0.92619606  0.75794743
   0.83744290  0.99229244  0.83233780
   0.83891625  0.00131597  0.00537864
   0.74994042  0.08347891  0.08240385
   0.66176933  0.15637117  0.16812562
   0.56636224  0.24480938  0.24758399
   0.49027383  0.34269088  0.32793880
   0.40538212  0.42139072  0.40827493
   0.34754062  0.49694373  0.49759292
   0.26266077  0.55952464  0.59099316
   0.16846406  0.66355533  0.67276749
   0.07290589  0.74082064  0.75375304
   0.99599789  0.83070217  0.85198659
   0.90710005  0.91643691  0.90625876
