 504 504   0   0
  0.1982611E+02  0.2127286E-08  0.2105467E-08  0.2230970E-08  0.5000000E-15
  1.000000000000000E-004
  CAR 
 Li                                      
      3.47826162     -3.40490914  301      0.45094735      1.00000000
     -3.405  0.0000E+00  0.0000E+00
     -3.382  0.0000E+00  0.0000E+00
     -3.359  0.0000E+00  0.0000E+00
     -3.336  0.0000E+00  0.0000E+00
     -3.313  0.0000E+00  0.0000E+00
     -3.290  0.0000E+00  0.0000E+00
     -3.267  0.4839E-14  0.1110E-15
     -3.244  0.2777E-10  0.6373E-12
     -3.221  0.4320E-07  0.9918E-09
     -3.198  0.2142E-04  0.4925E-06
     -3.175  0.3418E-02  0.7891E-04
     -3.153  0.1776E+00  0.4155E-02
     -3.130  0.3058E+01  0.7432E-01
     -3.107  0.1777E+02  0.4820E+00
     -3.084  0.3543E+02  0.1295E+01
     -3.061  0.2452E+02  0.1857E+01
     -3.038  0.7502E+01  0.2030E+01
     -3.015  0.1415E+02  0.2354E+01
     -2.992  0.4651E+02  0.3421E+01
     -2.969  0.8030E+02  0.5264E+01
     -2.946  0.7636E+02  0.7016E+01
     -2.923  0.3636E+02  0.7850E+01
     -2.900  0.1610E+02  0.8219E+01
     -2.877  0.3892E+02  0.9112E+01
     -2.854  0.7568E+02  0.1085E+02
     -2.831  0.7868E+02  0.1265E+02
     -2.808  0.4667E+02  0.1372E+02
     -2.785  0.2695E+02  0.1434E+02
     -2.762  0.4616E+02  0.1540E+02
     -2.740  0.7825E+02  0.1720E+02
     -2.717  0.9917E+02  0.1947E+02
     -2.694  0.7941E+02  0.2129E+02
     -2.671  0.4680E+02  0.2237E+02
     -2.648  0.6576E+02  0.2388E+02
     -2.625  0.1075E+03  0.2634E+02
     -2.602  0.1263E+03  0.2924E+02
     -2.579  0.1157E+03  0.3190E+02
     -2.556  0.7068E+02  0.3352E+02
     -2.533  0.3391E+02  0.3430E+02
     -2.510  0.4961E+02  0.3544E+02
     -2.487  0.8290E+02  0.3734E+02
     -2.464  0.8141E+02  0.3920E+02
     -2.441  0.5446E+02  0.4045E+02
     -2.418  0.5659E+02  0.4175E+02
     -2.395  0.7861E+02  0.4356E+02
     -2.372  0.1010E+03  0.4587E+02
     -2.349  0.1195E+03  0.4861E+02
     -2.327  0.1199E+03  0.5136E+02
     -2.304  0.1050E+03  0.5377E+02
     -2.281  0.1081E+03  0.5625E+02
     -2.258  0.1371E+03  0.5940E+02
     -2.235  0.1663E+03  0.6322E+02
     -2.212  0.1560E+03  0.6679E+02
     -2.189  0.1135E+03  0.6940E+02
     -2.166  0.7094E+02  0.7103E+02
     -2.143  0.4573E+02  0.7207E+02
     -2.120  0.5351E+02  0.7330E+02
     -2.097  0.7114E+02  0.7493E+02
     -2.074  0.6509E+02  0.7643E+02
     -2.051  0.8815E+02  0.7845E+02
     -2.028  0.1270E+03  0.8137E+02
     -2.005  0.1370E+03  0.8451E+02
     -1.982  0.1272E+03  0.8743E+02
     -1.959  0.1188E+03  0.9015E+02
     -1.936  0.1155E+03  0.9280E+02
     -1.914  0.1246E+03  0.9566E+02
     -1.891  0.1408E+03  0.9889E+02
     -1.868  0.1608E+03  0.1026E+03
     -1.845  0.1694E+03  0.1065E+03
     -1.822  0.1424E+03  0.1097E+03
     -1.799  0.8206E+02  0.1116E+03
     -1.776  0.5448E+02  0.1129E+03
     -1.753  0.8886E+02  0.1149E+03
     -1.730  0.1295E+03  0.1179E+03
     -1.707  0.1349E+03  0.1210E+03
     -1.684  0.1327E+03  0.1240E+03
     -1.661  0.1460E+03  0.1274E+03
     -1.638  0.1537E+03  0.1309E+03
     -1.615  0.1623E+03  0.1346E+03
     -1.592  0.1633E+03  0.1384E+03
     -1.569  0.1419E+03  0.1416E+03
     -1.546  0.1230E+03  0.1444E+03
     -1.524  0.1231E+03  0.1473E+03
     -1.501  0.1392E+03  0.1505E+03
     -1.478  0.1625E+03  0.1542E+03
     -1.455  0.1541E+03  0.1577E+03
     -1.432  0.1170E+03  0.1604E+03
     -1.409  0.1002E+03  0.1627E+03
     -1.386  0.1047E+03  0.1651E+03
     -1.363  0.1046E+03  0.1675E+03
     -1.340  0.9980E+02  0.1698E+03
     -1.317  0.1151E+03  0.1724E+03
     -1.294  0.1415E+03  0.1757E+03
     -1.271  0.1540E+03  0.1792E+03
     -1.248  0.1533E+03  0.1827E+03
     -1.225  0.1570E+03  0.1863E+03
     -1.202  0.1574E+03  0.1900E+03
     -1.179  0.1645E+03  0.1937E+03
     -1.156  0.1871E+03  0.1980E+03
     -1.133  0.2071E+03  0.2028E+03
     -1.111  0.2108E+03  0.2076E+03
     -1.088  0.2004E+03  0.2122E+03
     -1.065  0.1862E+03  0.2165E+03
     -1.042  0.1692E+03  0.2204E+03
     -1.019  0.1571E+03  0.2240E+03
     -0.996  0.1488E+03  0.2274E+03
     -0.973  0.1305E+03  0.2304E+03
     -0.950  0.1099E+03  0.2329E+03
     -0.927  0.1260E+03  0.2358E+03
     -0.904  0.1538E+03  0.2393E+03
     -0.881  0.1591E+03  0.2430E+03
     -0.858  0.1584E+03  0.2466E+03
     -0.835  0.1589E+03  0.2502E+03
     -0.812  0.1722E+03  0.2542E+03
     -0.789  0.1905E+03  0.2586E+03
     -0.766  0.1850E+03  0.2628E+03
     -0.743  0.1628E+03  0.2665E+03
     -0.720  0.1351E+03  0.2696E+03
     -0.698  0.1138E+03  0.2723E+03
     -0.675  0.1367E+03  0.2754E+03
     -0.652  0.1730E+03  0.2794E+03
     -0.629  0.1707E+03  0.2833E+03
     -0.606  0.1627E+03  0.2870E+03
     -0.583  0.1693E+03  0.2909E+03
     -0.560  0.1919E+03  0.2953E+03
     -0.537  0.2153E+03  0.3002E+03
     -0.514  0.2267E+03  0.3054E+03
     -0.491  0.2184E+03  0.3105E+03
     -0.468  0.2066E+03  0.3152E+03
     -0.445  0.2083E+03  0.3200E+03
     -0.422  0.2139E+03  0.3249E+03
     -0.399  0.2061E+03  0.3296E+03
     -0.376  0.1973E+03  0.3341E+03
     -0.353  0.1873E+03  0.3384E+03
     -0.330  0.1635E+03  0.3422E+03
     -0.307  0.1542E+03  0.3457E+03
     -0.285  0.1695E+03  0.3496E+03
     -0.262  0.1846E+03  0.3538E+03
     -0.239  0.1828E+03  0.3580E+03
     -0.216  0.1790E+03  0.3621E+03
     -0.193  0.1781E+03  0.3662E+03
     -0.170  0.1800E+03  0.3704E+03
     -0.147  0.1828E+03  0.3746E+03
     -0.124  0.1853E+03  0.3788E+03
     -0.101  0.2025E+03  0.3835E+03
     -0.078  0.2168E+03  0.3884E+03
     -0.055  0.2180E+03  0.3934E+03
     -0.032  0.2216E+03  0.3985E+03
     -0.009  0.2293E+03  0.4038E+03
      0.014  0.2334E+03  0.4091E+03
      0.037  0.2336E+03  0.4145E+03
      0.060  0.2207E+03  0.4196E+03
      0.083  0.2128E+03  0.4244E+03
      0.106  0.2154E+03  0.4294E+03
      0.128  0.2086E+03  0.4342E+03
      0.151  0.2078E+03  0.4389E+03
      0.174  0.2144E+03  0.4438E+03
      0.197  0.2167E+03  0.4488E+03
      0.220  0.2034E+03  0.4535E+03
      0.243  0.1804E+03  0.4576E+03
      0.266  0.1741E+03  0.4616E+03
      0.289  0.1798E+03  0.4657E+03
      0.312  0.1950E+03  0.4702E+03
      0.335  0.2140E+03  0.4751E+03
      0.358  0.2269E+03  0.4803E+03
      0.381  0.2383E+03  0.4858E+03
      0.404  0.2476E+03  0.4915E+03
      0.427  0.2600E+03  0.4974E+03
      0.450  0.2704E+03  0.5037E+03
      0.473  0.2639E+03  0.5097E+03
      0.496  0.2593E+03  0.5157E+03
      0.518  0.2698E+03  0.5218E+03
      0.541  0.2800E+03  0.5283E+03
      0.564  0.2790E+03  0.5347E+03
      0.587  0.2629E+03  0.5407E+03
      0.610  0.2496E+03  0.5464E+03
      0.633  0.2486E+03  0.5521E+03
      0.656  0.2509E+03  0.5579E+03
      0.679  0.2399E+03  0.5634E+03
      0.702  0.2231E+03  0.5685E+03
      0.725  0.2220E+03  0.5736E+03
      0.748  0.2296E+03  0.5789E+03
      0.771  0.2328E+03  0.5842E+03
      0.794  0.2246E+03  0.5894E+03
      0.817  0.2129E+03  0.5943E+03
      0.840  0.2057E+03  0.5990E+03
      0.863  0.2067E+03  0.6037E+03
      0.886  0.2029E+03  0.6084E+03
      0.909  0.2010E+03  0.6130E+03
      0.931  0.2065E+03  0.6177E+03
      0.954  0.2049E+03  0.6224E+03
      0.977  0.2026E+03  0.6271E+03
      1.000  0.2148E+03  0.6320E+03
      1.023  0.2293E+03  0.6373E+03
      1.046  0.2280E+03  0.6425E+03
      1.069  0.2233E+03  0.6476E+03
      1.092  0.2245E+03  0.6528E+03
      1.115  0.2246E+03  0.6579E+03
      1.138  0.2232E+03  0.6630E+03
      1.161  0.2337E+03  0.6684E+03
      1.184  0.2450E+03  0.6740E+03
      1.207  0.2451E+03  0.6797E+03
      1.230  0.2344E+03  0.6850E+03
      1.253  0.2227E+03  0.6901E+03
      1.276  0.2194E+03  0.6952E+03
      1.299  0.2242E+03  0.7003E+03
      1.322  0.2251E+03  0.7055E+03
      1.344  0.2186E+03  0.7105E+03
      1.367  0.2149E+03  0.7154E+03
      1.390  0.2188E+03  0.7205E+03
      1.413  0.2170E+03  0.7254E+03
      1.436  0.1941E+03  0.7299E+03
      1.459  0.1846E+03  0.7341E+03
      1.482  0.2007E+03  0.7387E+03
      1.505  0.2075E+03  0.7435E+03
      1.528  0.2003E+03  0.7481E+03
      1.551  0.2080E+03  0.7529E+03
      1.574  0.2193E+03  0.7579E+03
      1.597  0.2261E+03  0.7631E+03
      1.620  0.2267E+03  0.7683E+03
      1.643  0.2170E+03  0.7733E+03
      1.666  0.2113E+03  0.7781E+03
      1.689  0.2176E+03  0.7831E+03
      1.712  0.2240E+03  0.7882E+03
      1.735  0.2251E+03  0.7934E+03
      1.757  0.2164E+03  0.7984E+03
      1.780  0.2092E+03  0.8032E+03
      1.803  0.2059E+03  0.8079E+03
      1.826  0.2000E+03  0.8125E+03
      1.849  0.2032E+03  0.8171E+03
      1.872  0.2174E+03  0.8221E+03
      1.895  0.2153E+03  0.8271E+03
      1.918  0.1983E+03  0.8316E+03
      1.941  0.1962E+03  0.8361E+03
      1.964  0.2035E+03  0.8408E+03
      1.987  0.1998E+03  0.8454E+03
      2.010  0.1949E+03  0.8498E+03
      2.033  0.1988E+03  0.8544E+03
      2.056  0.1966E+03  0.8589E+03
      2.079  0.1937E+03  0.8634E+03
      2.102  0.1898E+03  0.8677E+03
      2.125  0.1875E+03  0.8720E+03
      2.148  0.1899E+03  0.8764E+03
      2.170  0.1847E+03  0.8806E+03
      2.193  0.1742E+03  0.8846E+03
      2.216  0.1655E+03  0.8884E+03
      2.239  0.1633E+03  0.8922E+03
      2.262  0.1655E+03  0.8959E+03
      2.285  0.1660E+03  0.8998E+03
      2.308  0.1638E+03  0.9035E+03
      2.331  0.1634E+03  0.9073E+03
      2.354  0.1619E+03  0.9110E+03
      2.377  0.1535E+03  0.9145E+03
      2.400  0.1472E+03  0.9179E+03
      2.423  0.1532E+03  0.9214E+03
      2.446  0.1519E+03  0.9249E+03
      2.469  0.1390E+03  0.9281E+03
      2.492  0.1369E+03  0.9312E+03
      2.515  0.1459E+03  0.9346E+03
      2.538  0.1497E+03  0.9380E+03
      2.561  0.1473E+03  0.9414E+03
      2.583  0.1366E+03  0.9445E+03
      2.606  0.1344E+03  0.9476E+03
      2.629  0.1485E+03  0.9510E+03
      2.652  0.1558E+03  0.9546E+03
      2.675  0.1555E+03  0.9581E+03
      2.698  0.1411E+03  0.9614E+03
      2.721  0.1226E+03  0.9642E+03
      2.744  0.1237E+03  0.9670E+03
      2.767  0.1296E+03  0.9700E+03
      2.790  0.1255E+03  0.9729E+03
      2.813  0.1212E+03  0.9757E+03
      2.836  0.1368E+03  0.9788E+03
      2.859  0.1500E+03  0.9822E+03
      2.882  0.1308E+03  0.9852E+03
      2.905  0.1083E+03  0.9877E+03
      2.928  0.1060E+03  0.9902E+03
      2.951  0.1077E+03  0.9926E+03
      2.973  0.1062E+03  0.9951E+03
      2.996  0.1012E+03  0.9974E+03
      3.019  0.9801E+02  0.9996E+03
      3.042  0.9749E+02  0.1002E+04
      3.065  0.7404E+02  0.1004E+04
      3.088  0.5465E+02  0.1005E+04
      3.111  0.6269E+02  0.1006E+04
      3.134  0.6649E+02  0.1008E+04
      3.157  0.5346E+02  0.1009E+04
      3.180  0.3139E+02  0.1010E+04
      3.203  0.1010E+02  0.1010E+04
      3.226  0.1355E+01  0.1010E+04
      3.249  0.6710E-01  0.1010E+04
      3.272  0.1161E-02  0.1010E+04
      3.295  0.6801E-05  0.1010E+04
      3.318  0.1317E-07  0.1010E+04
      3.341  0.8279E-11  0.1010E+04
      3.364  0.0000E+00  0.1010E+04
      3.386  0.0000E+00  0.1010E+04
      3.409  0.0000E+00  0.1010E+04
      3.432  0.0000E+00  0.1010E+04
      3.455  0.0000E+00  0.1010E+04
      3.478  0.0000E+00  0.1010E+04
