Li                                      
           1
   -10.636430   18.422837    0.000000
   -18.233880  -10.527336    0.000000
    -0.000000    0.000000   22.309700
   Li
   504
Direct configuration=     1
   0.99992016  0.99830522  0.99342168
   0.92416925  0.04465271  0.65967362
   0.85967399  0.07314290  0.33549996
   0.79792071  0.12676073  0.00214511
   0.72443411  0.16981207  0.66053875
   0.65043286  0.21409441  0.35569798
   0.56395434  0.25350578  0.00052146
   0.50012500  0.29640656  0.68083758
   0.43002708  0.34810443  0.34956731
   0.35929231  0.38223619  0.98699902
   0.27659091  0.42402123  0.65202569
   0.23015222  0.46421790  0.32803688
   0.06315874  0.06307231  0.65177528
   0.00834115  0.08591832  0.32650810
   0.93138897  0.13155517  0.00560902
   0.86115079  0.16899208  0.65199041
   0.79177124  0.20836775  0.34880186
   0.71716450  0.23581049  0.99117573
   0.64467834  0.29213762  0.67580539
   0.57416123  0.32242525  0.35182868
   0.50268800  0.37256190  0.00811997
   0.42134171  0.41339401  0.67338122
   0.33256363  0.45476793  0.35556836
   0.28385798  0.50378287  0.98556344
   0.13870780  0.08643199  0.33290872
   0.06409063  0.13780558  0.98548759
   0.01368367  0.17282826  0.66238759
   0.93577155  0.21255485  0.32887268
   0.85030737  0.23623848  0.00741711
   0.80281884  0.29215281  0.67768994
   0.72337825  0.32659694  0.33030472
   0.64292528  0.37806658  0.97472903
   0.56799472  0.41541314  0.66119513
   0.49880794  0.45091785  0.36770615
   0.41764913  0.50550830  0.00829623
   0.35987707  0.53669078  0.65343668
   0.22329267  0.12172003  0.99365476
   0.14762122  0.17038578  0.68843895
   0.07973057  0.21198376  0.33220716
   0.00550833  0.25603299  0.98490072
   0.92192069  0.28436515  0.67384032
   0.86366556  0.34545892  0.33377597
   0.79194871  0.37279919  0.00310710
   0.71645591  0.40851265  0.69392909
   0.63940040  0.45883443  0.35218026
   0.56666338  0.49897210  0.98368961
   0.49185192  0.54608815  0.66510736
   0.43106347  0.58866206  0.35134115
   0.28916279  0.16499354  0.68006983
   0.22097688  0.20249131  0.33314630
   0.15087956  0.25431242  0.99244042
   0.07380028  0.28811111  0.66804460
   0.00495033  0.33592897  0.29356927
   0.93735568  0.38384951  0.98526947
   0.86072254  0.41935439  0.68277394
   0.79413570  0.46089866  0.37140854
   0.71624242  0.50094847  0.99336228
   0.63901896  0.54941902  0.67299382
   0.56847040  0.59448471  0.29693391
   0.49777340  0.62854128  0.00450544
   0.36247971  0.21100556  0.36410916
   0.28929648  0.24092660  0.97750104
   0.22182391  0.28926438  0.68809851
   0.15277586  0.33632611  0.29885450
   0.07671614  0.36997505  0.99832812
   0.01260994  0.41042365  0.69116701
   0.93266664  0.45669045  0.32436211
   0.87335623  0.49898515  0.00364830
   0.79150850  0.54768625  0.65764424
   0.70808850  0.58400415  0.29379432
   0.64961361  0.62947316  0.00509442
   0.57681530  0.67333535  0.67142126
   0.44002745  0.24761167  0.99372281
   0.36426323  0.28633407  0.68317384
   0.29360500  0.32496198  0.34780492
   0.21773742  0.38301654  0.98977988
   0.14078687  0.41411366  0.66993041
   0.07159640  0.45952900  0.32722175
   0.00733843  0.49669290  0.99845168
   0.93399985  0.53557650  0.65546830
   0.85974378  0.58796166  0.33314515
   0.79615181  0.62321190  0.97352448
   0.71366661  0.67043012  0.68437818
   0.64378199  0.71499699  0.33279646
   0.14876218  0.50728563  0.00433896
   0.08469242  0.54280152  0.65211822
   0.00508387  0.59572014  0.34170441
   0.91658912  0.62851019  0.99385859
   0.85304089  0.66624573  0.67594416
   0.79102725  0.70651102  0.33134404
   0.71771116  0.74807226  0.02094867
   0.21601056  0.53348557  0.65184132
   0.14760277  0.58615739  0.32205419
   0.07838711  0.62339135  0.00052801
   0.00759134  0.66216941  0.65375859
   0.92825286  0.70988348  0.34120933
   0.85637176  0.74500354  0.00192945
   0.79456833  0.78989378  0.61695082
   0.29006323  0.58953510  0.32051395
   0.22633824  0.61868327  0.02555624
   0.14917979  0.65843383  0.66604005
   0.08107848  0.69090617  0.30991490
   0.00210166  0.75187855  0.98102467
   0.93461912  0.79050844  0.67371285
   0.86581210  0.83597623  0.34202808
   0.36987907  0.62577523  0.00739430
   0.29470078  0.67209000  0.64092835
   0.22066551  0.70605863  0.32766776
   0.14561204  0.73103991  0.02950791
   0.07708202  0.78757525  0.66851571
   0.00274593  0.82159798  0.32976371
   0.92225042  0.86576857  0.97070276
   0.42528709  0.67467057  0.66136239
   0.35909926  0.71528366  0.32955799
   0.28847963  0.75217807  0.01031267
   0.21968257  0.78988437  0.66166718
   0.14842378  0.83613886  0.30481693
   0.07931944  0.88361767  0.00081092
   0.00381862  0.90800608  0.66763807
   0.92493241  0.95932338  0.36223366
   0.85457545  0.99070337  0.00697742
   0.79474610  0.04342592  0.65875025
   0.72416439  0.08614358  0.33110755
   0.65444140  0.12134194  0.98513103
   0.56797559  0.16254275  0.68270027
   0.49522086  0.20546880  0.33510981
   0.07438460  0.95801505  0.33785786
   0.13918443  0.99670472  0.00926021
   0.21289670  0.04932160  0.66209488
   0.29323124  0.08208141  0.35547722
   0.35897509  0.13107561  0.01857918
   0.43336438  0.15837003  0.66740494
   0.86349416  0.91077619  0.64474232
   0.78922335  0.95851241  0.33492487
   0.72492426  0.00544434  0.00899625
   0.65038392  0.05438212  0.65314380
   0.57247431  0.08303705  0.34538342
   0.49880726  0.13529911  0.00526218
   0.14257063  0.91516956  0.65882710
   0.21875717  0.96432072  0.31946929
   0.29191635  0.01509387  0.00022771
   0.37274924  0.04408959  0.65665830
   0.43088689  0.07348967  0.34110364
   0.79066010  0.87331027  0.00964386
   0.71983973  0.92372661  0.62967555
   0.62981669  0.95660620  0.31520651
   0.57364954  0.99043067  0.98947254
   0.49920342  0.04306041  0.64821252
   0.21144484  0.88458820  0.99552297
   0.29517539  0.91851199  0.64437657
   0.36043911  0.96262011  0.34064589
   0.43250970  0.99516388  0.01346568
   0.71574206  0.83492426  0.32098119
   0.63581472  0.87704905  0.02543321
   0.57567873  0.91897639  0.67304301
   0.49660427  0.95628162  0.35145759
   0.28582417  0.83839494  0.34582022
   0.35669120  0.87264886  0.99204925
   0.43357136  0.91978757  0.67119923
   0.65193543  0.80079053  0.66942503
   0.56512343  0.83488888  0.33425495
   0.50198091  0.88072368  0.00001707
   0.36252600  0.79320575  0.66295308
   0.43584024  0.84317094  0.33814097
   0.57222101  0.75273907  0.98025408
   0.49992058  0.79930930  0.64853289
   0.43874916  0.75875520  0.97422066
   0.50401903  0.70870945  0.35729784
   0.97474738  0.01593498  0.75483824
   0.93588861  0.04404821  0.45942200
   0.83302170  0.09239544  0.12692503
   0.77718152  0.13869563  0.77596106
   0.72555810  0.16901794  0.46333152
   0.62172434  0.20207322  0.11256225
   0.56336734  0.23088063  0.77412653
   0.50248267  0.29929952  0.43548254
   0.40291733  0.32992300  0.09641215
   0.34962018  0.38570586  0.77995831
   0.29510157  0.41337055  0.43755627
   0.19836144  0.48427872  0.11459577
   0.08229497  0.04794729  0.45929920
   0.98719284  0.08104467  0.09158908
   0.93085405  0.11890776  0.76165535
   0.85409978  0.16638710  0.47597072
   0.76945678  0.20515572  0.10252577
   0.71614064  0.24860242  0.77938106
   0.63320747  0.28629708  0.44375645
   0.54892356  0.33854747  0.12020958
   0.51117497  0.37948799  0.78745895
   0.42210084  0.41448833  0.47014321
   0.33433698  0.45371707  0.08490932
   0.28788018  0.53020615  0.75904088
   0.12977774  0.07089747  0.12009058
   0.06843791  0.11367461  0.76910636
   0.00219068  0.16254955  0.44168965
   0.92350631  0.20213942  0.09825443
   0.84604705  0.25325254  0.78923722
   0.79188030  0.30785083  0.43829042
   0.68194217  0.34220136  0.10006674
   0.63041194  0.36957743  0.77585592
   0.56327002  0.43161002  0.47900594
   0.49635825  0.45557091  0.10562747
   0.44783715  0.51290755  0.76311240
   0.35077987  0.53987084  0.46715699
   0.22075000  0.13402898  0.78566313
   0.13798416  0.16188333  0.44578345
   0.06934255  0.19580002  0.10204554
   0.01482652  0.24132078  0.78775924
   0.91791743  0.29169968  0.44486924
   0.85275416  0.33425722  0.11024826
   0.77362525  0.36229756  0.78253875
   0.71825682  0.42479949  0.45675658
   0.62567471  0.45179855  0.09644002
   0.57696442  0.50362435  0.78045204
   0.48881717  0.55315617  0.45207478
   0.42113718  0.56017066  0.11515760
   0.27392452  0.15729554  0.45083035
   0.21623105  0.20244819  0.10491873
   0.12906639  0.23680573  0.77695309
   0.07076169  0.27663265  0.41530946
   0.00949020  0.32755432  0.11575138
   0.93093133  0.37557939  0.80231524
   0.88142836  0.42979146  0.42923216
   0.77097601  0.44008978  0.11187710
   0.72178499  0.48262500  0.77880525
   0.63517209  0.54212523  0.43092565
   0.55717271  0.59302037  0.13191293
   0.50199593  0.62272407  0.77543704
   0.35374189  0.20574781  0.10909807
   0.27876627  0.25507871  0.79066741
   0.21637999  0.28312352  0.43644260
   0.15357864  0.34140809  0.09242270
   0.05912432  0.39563477  0.77343747
   0.02006100  0.40867178  0.43931640
   0.92997463  0.44602400  0.14404675
   0.86711150  0.51367995  0.78257264
   0.79773419  0.53781586  0.45760539
   0.69609791  0.58522035  0.11553540
   0.64932489  0.63450647  0.80440580
   0.55615075  0.66064556  0.46708789
   0.43585216  0.25261006  0.79547310
   0.37300059  0.27354223  0.46613429
   0.27781609  0.33778605  0.11275986
   0.21019305  0.38579609  0.79093459
   0.14587838  0.41846595  0.43734415
   0.06134705  0.46693434  0.10829223
   0.99692766  0.50852404  0.79259837
   0.95029817  0.52215828  0.45119585
   0.85068415  0.57920876  0.11102033
   0.79455994  0.63046499  0.78763327
   0.70406513  0.65591514  0.43656683
   0.62583911  0.71675122  0.09854288
   0.15593376  0.51719981  0.78337936
   0.08396356  0.54522678  0.44346008
   0.00664388  0.59160037  0.10019368
   0.92778004  0.63428113  0.77366973
   0.86969860  0.65790286  0.46130004
   0.77655932  0.70895555  0.12063138
   0.73032121  0.76630865  0.77640387
   0.20336240  0.53253005  0.43462416
   0.15460183  0.59215488  0.10831389
   0.08012564  0.62501225  0.74661955
   0.99028982  0.68077106  0.42750807
   0.92588045  0.70152944  0.09665691
   0.85871108  0.75491738  0.78741573
   0.78377631  0.78792850  0.43983649
   0.28613352  0.57933745  0.12060321
   0.21225993  0.64784941  0.77982703
   0.12236588  0.66570541  0.43522101
   0.07472863  0.71962622  0.10477088
   0.02024850  0.75054950  0.77677553
   0.93844440  0.77599339  0.44505352
   0.85688001  0.82296744  0.12974184
   0.35239562  0.62642899  0.77267180
   0.27110651  0.66281223  0.43204731
   0.21957553  0.70069203  0.13226430
   0.15814537  0.73906480  0.78994187
   0.07989047  0.79798403  0.42814578
   0.00275398  0.82564802  0.09377221
   0.93242924  0.87733199  0.77042700
   0.42698255  0.66639052  0.46183892
   0.36610117  0.70561174  0.12645862
   0.27871855  0.76012050  0.76221522
   0.21750466  0.79090118  0.43281649
   0.12809489  0.82003214  0.10893438
   0.08217273  0.87968682  0.79871580
   0.00322780  0.91744723  0.44282362
   0.92301176  0.97266637  0.12454165
   0.84458852  0.00528263  0.75999622
   0.79662386  0.04517196  0.46773802
   0.71077363  0.08110999  0.12064274
   0.64505833  0.12380202  0.76576798
   0.56760202  0.15559735  0.45488708
   0.48292300  0.21874779  0.11839097
   0.06493670  0.93929922  0.11777970
   0.16097390  0.97953141  0.77650245
   0.22569682  0.03795102  0.45171994
   0.27760516  0.07919723  0.11665703
   0.34939129  0.10892781  0.77311023
   0.41950814  0.14612245  0.46524086
   0.87651323  0.91085421  0.45557180
   0.78087576  0.94310376  0.10886802
   0.70816167  0.01578395  0.77956258
   0.64619760  0.03500933  0.44906683
   0.55444979  0.09314096  0.09874485
   0.48649965  0.12005660  0.77615156
   0.16015512  0.91862628  0.44728381
   0.20827596  0.95422666  0.11376944
   0.27700669  0.98244308  0.75311654
   0.36808898  0.02920634  0.45128528
   0.41963611  0.08763788  0.11038650
   0.79243004  0.88410261  0.74544531
   0.72835160  0.91835853  0.43875750
   0.62501438  0.96136011  0.10755527
   0.57311742  0.02413237  0.78526828
   0.50771915  0.02180081  0.45698010
   0.22028562  0.87053915  0.76461243
   0.31060658  0.91637628  0.44722428
   0.35434097  0.96586200  0.09989895
   0.44277381  0.99676668  0.78906596
   0.70915456  0.83715298  0.12315395
   0.63402630  0.89080514  0.76346115
   0.57998198  0.90781246  0.46018481
   0.47476377  0.98752453  0.07708836
   0.26441009  0.82825959  0.10783619
   0.35957870  0.86021139  0.77629312
   0.44876940  0.91095391  0.45083501
   0.66394186  0.78707770  0.42798605
   0.56278614  0.83720275  0.11588193
   0.50505212  0.87937378  0.77237271
   0.34303028  0.79520936  0.43114657
   0.41676501  0.85964434  0.11428778
   0.56960260  0.75157957  0.78784771
   0.50387915  0.77910750  0.44830694
   0.43258861  0.73757222  0.77042347
   0.49715867  0.71396422  0.10533108
   0.00718553  0.99067499  0.22352203
   0.91784125  0.03819495  0.88221965
   0.89009273  0.06980946  0.56218608
   0.77457753  0.12319347  0.24601703
   0.70702749  0.17321462  0.87610496
   0.64218507  0.23131379  0.56727957
   0.54786980  0.27736947  0.24869127
   0.50759263  0.29775104  0.90090857
   0.43892477  0.33182749  0.58725377
   0.35074589  0.36649068  0.24560658
   0.26943186  0.43367626  0.88950748
   0.23004820  0.44132607  0.54347901
   0.07140072  0.04430852  0.89276469
   0.01242576  0.08522715  0.56487101
   0.93293239  0.12041811  0.20767834
   0.86365003  0.15973693  0.90037959
   0.79631866  0.21643628  0.56887420
   0.69882189  0.25712810  0.21683379
   0.63467971  0.28185512  0.86587615
   0.58119428  0.34963205  0.57608669
   0.47753441  0.37151060  0.23756818
   0.44141904  0.41998568  0.90322033
   0.35841201  0.45301096  0.53340781
   0.28119433  0.48623004  0.21950866
   0.15026069  0.07831378  0.55835921
   0.07259621  0.13180203  0.20357098
   0.01497665  0.16944659  0.86041616
   0.93060943  0.22052084  0.53853161
   0.85499093  0.22108604  0.20596129
   0.78616264  0.28417047  0.88975587
   0.72496760  0.33479542  0.59616835
   0.64441491  0.39825003  0.22070805
   0.57188356  0.41768407  0.90326778
   0.48428000  0.46528690  0.54835284
   0.40198389  0.49145583  0.23262878
   0.36049802  0.53856858  0.89528752
   0.20564561  0.10502039  0.23026942
   0.15011744  0.16313788  0.87047384
   0.08150706  0.21733305  0.55740324
   0.98797068  0.25410697  0.22400045
   0.91316445  0.28787560  0.88831010
   0.86051262  0.35085859  0.57758702
   0.78486628  0.35589504  0.22609620
   0.69838620  0.42054584  0.89139348
   0.63106257  0.47366425  0.56659731
   0.54669368  0.50055871  0.23797687
   0.51225898  0.54001617  0.89806576
   0.40729110  0.58935474  0.55223596
   0.28223125  0.17082869  0.87501683
   0.21450045  0.20810905  0.56539724
   0.14242263  0.25013723  0.21119698
   0.07666282  0.30355999  0.88188715
   0.98436464  0.32304466  0.54502154
   0.92468543  0.37963986  0.21825288
   0.83924476  0.41866335  0.86773816
   0.77410265  0.46432239  0.56997229
   0.70602607  0.50875027  0.21411983
   0.64578313  0.54727658  0.88454863
   0.56180966  0.57024400  0.57114261
   0.47120971  0.62011317  0.21194546
   0.35708391  0.19281243  0.58464164
   0.27954923  0.24884014  0.21164488
   0.20366741  0.29506149  0.88067807
   0.13207596  0.32730353  0.56479276
   0.07438933  0.38249669  0.20163322
   0.98508691  0.43302342  0.87709312
   0.93295052  0.44033860  0.57196042
   0.84053917  0.48553838  0.22564132
   0.77996813  0.53958713  0.89893824
   0.71920444  0.58195174  0.56813808
   0.64467861  0.62570420  0.21633382
   0.58228333  0.67110096  0.87345799
   0.41637881  0.24072176  0.24600882
   0.35200688  0.30356042  0.87819291
   0.29693923  0.33463923  0.57504876
   0.20680976  0.38818383  0.22448151
   0.14155536  0.43348479  0.89263850
   0.07958277  0.45780499  0.56848611
   0.99335208  0.50072804  0.23070354
   0.91091404  0.55374732  0.89091172
   0.86204394  0.56529795  0.55729867
   0.78056197  0.61483341  0.22331354
   0.72773647  0.67772657  0.88637435
   0.64116450  0.68866059  0.55135195
   0.13133426  0.50794362  0.20605843
   0.06244051  0.53992672  0.88994011
   0.00512812  0.57564090  0.54589292
   0.91982999  0.61933213  0.21875040
   0.84131019  0.67756023  0.87298038
   0.78169282  0.71223499  0.52230029
   0.68913943  0.76956347  0.22776625
   0.20988298  0.55024407  0.88997516
   0.13784228  0.57860051  0.52862348
   0.08180380  0.63429059  0.21526592
   0.00413334  0.66274058  0.89054063
   0.91651703  0.69882962  0.57258452
   0.85606447  0.75255160  0.22072079
   0.80684803  0.79259773  0.89191976
   0.27866381  0.56334229  0.57190643
   0.22401956  0.61668610  0.21239498
   0.15140306  0.65608481  0.90094656
   0.04740978  0.69414512  0.54285748
   0.98092360  0.74987109  0.22069717
   0.94042211  0.79128607  0.89104538
   0.87318902  0.83425707  0.53284983
   0.35133187  0.61593754  0.22090168
   0.30566909  0.67194870  0.89812693
   0.20852968  0.70739047  0.55341085
   0.15060576  0.74493726  0.21579728
   0.07015113  0.78341531  0.90324487
   0.01580246  0.82189386  0.56696381
   0.92527615  0.87595073  0.23746941
   0.41242718  0.65773997  0.89376065
   0.34719964  0.72399455  0.51807544
   0.28526249  0.73668475  0.24481851
   0.21990859  0.79995006  0.91443277
   0.14843849  0.83346877  0.53435572
   0.05915076  0.85459221  0.18820481
   0.98859997  0.93089984  0.89185081
   0.94535304  0.94897060  0.53873142
   0.84054252  0.99100720  0.24485157
   0.77249530  0.04574154  0.88534924
   0.70302079  0.09661003  0.55759548
   0.63045295  0.12714976  0.22664183
   0.56653906  0.17559327  0.86318992
   0.50719701  0.20860191  0.57210445
   0.08091164  0.96252945  0.54087487
   0.11679982  0.98928222  0.21946334
   0.22416415  0.03526091  0.89638899
   0.29153596  0.08361960  0.57375673
   0.35308641  0.13045650  0.23285655
   0.42637507  0.16327607  0.87609726
   0.85090156  0.93145744  0.86106774
   0.79943304  0.95474140  0.54775409
   0.70769646  0.98884967  0.22284892
   0.65888430  0.06092792  0.87905487
   0.59055226  0.05663846  0.55640616
   0.49654932  0.12698998  0.22704795
   0.15403971  0.91723525  0.88319928
   0.23567355  0.96233974  0.56386042
   0.28613844  0.01647933  0.23102023
   0.35855150  0.02888428  0.87967180
   0.43586101  0.05733493  0.56317024
   0.78361981  0.86779181  0.23421970
   0.72579977  0.92789699  0.90059591
   0.65651850  0.93912905  0.56443141
   0.54368175  0.98874213  0.21141849
   0.49940271  0.04496247  0.90525696
   0.19825197  0.87155977  0.20810354
   0.28054780  0.91076305  0.87197494
   0.36154737  0.95655571  0.55385717
   0.41375404  0.98908534  0.25139980
   0.72295639  0.81698815  0.55456944
   0.62814911  0.86512909  0.22279309
   0.57950460  0.91666487  0.89590236
   0.52470644  0.94162455  0.54426863
   0.29316737  0.83976919  0.52784351
   0.33133543  0.89785307  0.22997502
   0.41639123  0.91871556  0.89724851
   0.64597235  0.78994883  0.88453245
   0.58214193  0.81970351  0.54544727
   0.50504934  0.88841340  0.22173537
   0.36946413  0.78919593  0.86998956
   0.43933180  0.82077192  0.55170286
   0.56412250  0.74318674  0.22495578
   0.50444070  0.79231349  0.88571632
   0.43412808  0.76725908  0.21441372
   0.48745302  0.69887814  0.55271769
