 504 504   0   0
  0.1922536E+02  0.2105579E-08  0.2083983E-08  0.2208205E-08  0.5000000E-15
  1.000000000000000E-004
  CAR 
 Li                                      
      3.62465079     -3.35767060  301      0.53271564      1.00000000
     -3.358  0.0000E+00  0.0000E+00
     -3.334  0.0000E+00  0.0000E+00
     -3.311  0.0000E+00  0.0000E+00
     -3.288  0.0000E+00  0.0000E+00
     -3.265  0.0000E+00  0.0000E+00
     -3.241  0.0000E+00  0.0000E+00
     -3.218  0.0000E+00  0.0000E+00
     -3.195  0.1366E-10  0.3179E-12
     -3.171  0.2593E-07  0.6038E-09
     -3.148  0.1518E-04  0.3538E-06
     -3.125  0.2763E-02  0.6466E-04
     -3.102  0.1586E+00  0.3756E-02
     -3.078  0.2921E+01  0.7173E-01
     -3.055  0.1761E+02  0.4817E+00
     -3.032  0.3542E+02  0.1306E+01
     -3.009  0.2399E+02  0.1865E+01
     -2.985  0.6258E+01  0.2010E+01
     -2.962  0.1042E+02  0.2253E+01
     -2.939  0.4580E+02  0.3319E+01
     -2.915  0.8759E+02  0.5357E+01
     -2.892  0.7689E+02  0.7147E+01
     -2.869  0.3155E+02  0.7881E+01
     -2.846  0.1219E+02  0.8165E+01
     -2.822  0.3777E+02  0.9044E+01
     -2.799  0.8298E+02  0.1097E+02
     -2.776  0.8326E+02  0.1291E+02
     -2.753  0.4059E+02  0.1386E+02
     -2.729  0.2283E+02  0.1439E+02
     -2.706  0.4742E+02  0.1549E+02
     -2.683  0.8182E+02  0.1740E+02
     -2.659  0.9987E+02  0.1972E+02
     -2.636  0.7239E+02  0.2141E+02
     -2.613  0.3983E+02  0.2233E+02
     -2.590  0.6454E+02  0.2383E+02
     -2.566  0.1151E+03  0.2651E+02
     -2.543  0.1354E+03  0.2966E+02
     -2.520  0.1121E+03  0.3227E+02
     -2.497  0.5975E+02  0.3367E+02
     -2.473  0.3038E+02  0.3437E+02
     -2.450  0.5400E+02  0.3563E+02
     -2.427  0.8581E+02  0.3763E+02
     -2.403  0.7776E+02  0.3944E+02
     -2.380  0.5390E+02  0.4069E+02
     -2.357  0.5515E+02  0.4197E+02
     -2.334  0.7526E+02  0.4373E+02
     -2.310  0.1048E+03  0.4617E+02
     -2.287  0.1224E+03  0.4901E+02
     -2.264  0.1182E+03  0.5177E+02
     -2.240  0.1071E+03  0.5426E+02
     -2.217  0.1091E+03  0.5680E+02
     -2.194  0.1364E+03  0.5997E+02
     -2.171  0.1608E+03  0.6371E+02
     -2.147  0.1494E+03  0.6719E+02
     -2.124  0.1075E+03  0.6969E+02
     -2.101  0.6682E+02  0.7125E+02
     -2.078  0.4792E+02  0.7236E+02
     -2.054  0.5799E+02  0.7371E+02
     -2.031  0.6714E+02  0.7528E+02
     -2.008  0.6660E+02  0.7683E+02
     -1.984  0.9051E+02  0.7893E+02
     -1.961  0.1201E+03  0.8173E+02
     -1.938  0.1378E+03  0.8493E+02
     -1.915  0.1446E+03  0.8830E+02
     -1.891  0.1229E+03  0.9116E+02
     -1.868  0.9817E+02  0.9345E+02
     -1.845  0.1129E+03  0.9607E+02
     -1.822  0.1449E+03  0.9945E+02
     -1.798  0.1819E+03  0.1037E+03
     -1.775  0.1823E+03  0.1079E+03
     -1.752  0.1234E+03  0.1108E+03
     -1.728  0.5249E+02  0.1120E+03
     -1.705  0.4829E+02  0.1131E+03
     -1.682  0.1003E+03  0.1155E+03
     -1.659  0.1368E+03  0.1187E+03
     -1.635  0.1372E+03  0.1219E+03
     -1.612  0.1379E+03  0.1251E+03
     -1.589  0.1455E+03  0.1284E+03
     -1.566  0.1516E+03  0.1320E+03
     -1.542  0.1620E+03  0.1357E+03
     -1.519  0.1598E+03  0.1395E+03
     -1.496  0.1347E+03  0.1426E+03
     -1.472  0.1197E+03  0.1454E+03
     -1.449  0.1266E+03  0.1483E+03
     -1.426  0.1461E+03  0.1517E+03
     -1.403  0.1612E+03  0.1555E+03
     -1.379  0.1454E+03  0.1589E+03
     -1.356  0.1114E+03  0.1615E+03
     -1.333  0.9656E+02  0.1637E+03
     -1.310  0.1079E+03  0.1662E+03
     -1.286  0.1048E+03  0.1687E+03
     -1.263  0.1029E+03  0.1711E+03
     -1.240  0.1284E+03  0.1740E+03
     -1.216  0.1436E+03  0.1774E+03
     -1.193  0.1379E+03  0.1806E+03
     -1.170  0.1468E+03  0.1840E+03
     -1.147  0.1611E+03  0.1878E+03
     -1.123  0.1642E+03  0.1916E+03
     -1.100  0.1715E+03  0.1956E+03
     -1.077  0.1877E+03  0.1999E+03
     -1.054  0.2040E+03  0.2047E+03
     -1.030  0.2074E+03  0.2095E+03
     -1.007  0.2028E+03  0.2142E+03
     -0.984  0.1895E+03  0.2187E+03
     -0.960  0.1691E+03  0.2226E+03
     -0.937  0.1539E+03  0.2262E+03
     -0.914  0.1393E+03  0.2294E+03
     -0.891  0.1080E+03  0.2319E+03
     -0.867  0.1070E+03  0.2344E+03
     -0.844  0.1381E+03  0.2376E+03
     -0.821  0.1515E+03  0.2412E+03
     -0.797  0.1528E+03  0.2447E+03
     -0.774  0.1523E+03  0.2483E+03
     -0.751  0.1651E+03  0.2521E+03
     -0.728  0.1920E+03  0.2566E+03
     -0.704  0.1994E+03  0.2612E+03
     -0.681  0.1760E+03  0.2653E+03
     -0.658  0.1493E+03  0.2688E+03
     -0.635  0.1303E+03  0.2718E+03
     -0.611  0.1410E+03  0.2751E+03
     -0.588  0.1682E+03  0.2790E+03
     -0.565  0.1624E+03  0.2828E+03
     -0.541  0.1431E+03  0.2861E+03
     -0.518  0.1543E+03  0.2897E+03
     -0.495  0.1793E+03  0.2939E+03
     -0.472  0.2039E+03  0.2986E+03
     -0.448  0.2235E+03  0.3038E+03
     -0.425  0.2207E+03  0.3090E+03
     -0.402  0.2010E+03  0.3136E+03
     -0.379  0.1983E+03  0.3183E+03
     -0.355  0.2155E+03  0.3233E+03
     -0.332  0.2201E+03  0.3284E+03
     -0.309  0.2058E+03  0.3332E+03
     -0.285  0.1844E+03  0.3375E+03
     -0.262  0.1667E+03  0.3414E+03
     -0.239  0.1604E+03  0.3451E+03
     -0.216  0.1679E+03  0.3490E+03
     -0.192  0.1784E+03  0.3532E+03
     -0.169  0.1706E+03  0.3571E+03
     -0.146  0.1666E+03  0.3610E+03
     -0.123  0.1881E+03  0.3654E+03
     -0.099  0.2035E+03  0.3701E+03
     -0.076  0.1900E+03  0.3745E+03
     -0.053  0.1798E+03  0.3787E+03
     -0.029  0.1920E+03  0.3832E+03
     -0.006  0.2071E+03  0.3880E+03
      0.017  0.2221E+03  0.3932E+03
      0.040  0.2330E+03  0.3986E+03
      0.064  0.2400E+03  0.4042E+03
      0.087  0.2354E+03  0.4097E+03
      0.110  0.2182E+03  0.4147E+03
      0.133  0.2046E+03  0.4195E+03
      0.157  0.2009E+03  0.4242E+03
      0.180  0.2174E+03  0.4292E+03
      0.203  0.2188E+03  0.4343E+03
      0.227  0.2037E+03  0.4391E+03
      0.250  0.1900E+03  0.4435E+03
      0.273  0.1871E+03  0.4479E+03
      0.296  0.1938E+03  0.4524E+03
      0.320  0.1945E+03  0.4569E+03
      0.343  0.1922E+03  0.4614E+03
      0.366  0.1972E+03  0.4660E+03
      0.390  0.2014E+03  0.4706E+03
      0.413  0.2071E+03  0.4755E+03
      0.436  0.2158E+03  0.4805E+03
      0.459  0.2259E+03  0.4857E+03
      0.483  0.2392E+03  0.4913E+03
      0.506  0.2495E+03  0.4971E+03
      0.529  0.2555E+03  0.5031E+03
      0.552  0.2651E+03  0.5092E+03
      0.576  0.2627E+03  0.5154E+03
      0.599  0.2536E+03  0.5213E+03
      0.622  0.2563E+03  0.5272E+03
      0.646  0.2653E+03  0.5334E+03
      0.669  0.2665E+03  0.5396E+03
      0.692  0.2567E+03  0.5456E+03
      0.715  0.2487E+03  0.5514E+03
      0.739  0.2409E+03  0.5570E+03
      0.762  0.2276E+03  0.5623E+03
      0.785  0.2192E+03  0.5674E+03
      0.808  0.2165E+03  0.5724E+03
      0.832  0.2186E+03  0.5775E+03
      0.855  0.2227E+03  0.5827E+03
      0.878  0.2154E+03  0.5877E+03
      0.902  0.2054E+03  0.5925E+03
      0.925  0.1973E+03  0.5971E+03
      0.948  0.2022E+03  0.6018E+03
      0.971  0.2085E+03  0.6066E+03
      0.995  0.2035E+03  0.6114E+03
      1.018  0.1975E+03  0.6160E+03
      1.041  0.1955E+03  0.6205E+03
      1.064  0.1995E+03  0.6252E+03
      1.088  0.2051E+03  0.6299E+03
      1.111  0.2084E+03  0.6348E+03
      1.134  0.2138E+03  0.6398E+03
      1.158  0.2136E+03  0.6447E+03
      1.181  0.2179E+03  0.6498E+03
      1.204  0.2252E+03  0.6550E+03
      1.227  0.2322E+03  0.6604E+03
      1.251  0.2343E+03  0.6659E+03
      1.274  0.2273E+03  0.6712E+03
      1.297  0.2114E+03  0.6761E+03
      1.320  0.2069E+03  0.6809E+03
      1.344  0.2242E+03  0.6861E+03
      1.367  0.2192E+03  0.6912E+03
      1.390  0.1997E+03  0.6959E+03
      1.414  0.2014E+03  0.7006E+03
      1.437  0.2054E+03  0.7054E+03
      1.460  0.2007E+03  0.7100E+03
      1.483  0.1982E+03  0.7146E+03
      1.507  0.1962E+03  0.7192E+03
      1.530  0.1941E+03  0.7237E+03
      1.553  0.1958E+03  0.7283E+03
      1.577  0.1997E+03  0.7329E+03
      1.600  0.1990E+03  0.7376E+03
      1.623  0.1955E+03  0.7421E+03
      1.646  0.1953E+03  0.7467E+03
      1.670  0.1969E+03  0.7512E+03
      1.693  0.2066E+03  0.7560E+03
      1.716  0.2047E+03  0.7608E+03
      1.739  0.2019E+03  0.7655E+03
      1.763  0.2072E+03  0.7703E+03
      1.786  0.2009E+03  0.7750E+03
      1.809  0.1931E+03  0.7795E+03
      1.833  0.2041E+03  0.7843E+03
      1.856  0.2071E+03  0.7891E+03
      1.879  0.1968E+03  0.7937E+03
      1.902  0.2037E+03  0.7984E+03
      1.926  0.2120E+03  0.8033E+03
      1.949  0.2032E+03  0.8081E+03
      1.972  0.1891E+03  0.8125E+03
      1.995  0.1865E+03  0.8168E+03
      2.019  0.1907E+03  0.8212E+03
      2.042  0.1908E+03  0.8257E+03
      2.065  0.1996E+03  0.8303E+03
      2.089  0.2058E+03  0.8351E+03
      2.112  0.1946E+03  0.8396E+03
      2.135  0.1866E+03  0.8440E+03
      2.158  0.1876E+03  0.8484E+03
      2.182  0.1836E+03  0.8526E+03
      2.205  0.1800E+03  0.8568E+03
      2.228  0.1822E+03  0.8611E+03
      2.251  0.1817E+03  0.8653E+03
      2.275  0.1794E+03  0.8695E+03
      2.298  0.1745E+03  0.8735E+03
      2.321  0.1715E+03  0.8775E+03
      2.345  0.1692E+03  0.8815E+03
      2.368  0.1616E+03  0.8852E+03
      2.391  0.1590E+03  0.8889E+03
      2.414  0.1614E+03  0.8927E+03
      2.438  0.1663E+03  0.8965E+03
      2.461  0.1722E+03  0.9005E+03
      2.484  0.1740E+03  0.9046E+03
      2.507  0.1592E+03  0.9083E+03
      2.531  0.1474E+03  0.9117E+03
      2.554  0.1478E+03  0.9152E+03
      2.577  0.1481E+03  0.9186E+03
      2.601  0.1415E+03  0.9219E+03
      2.624  0.1338E+03  0.9250E+03
      2.647  0.1399E+03  0.9283E+03
      2.670  0.1467E+03  0.9317E+03
      2.694  0.1424E+03  0.9350E+03
      2.717  0.1490E+03  0.9385E+03
      2.740  0.1551E+03  0.9421E+03
      2.763  0.1538E+03  0.9457E+03
      2.787  0.1512E+03  0.9492E+03
      2.810  0.1498E+03  0.9527E+03
      2.833  0.1461E+03  0.9561E+03
      2.857  0.1427E+03  0.9594E+03
      2.880  0.1432E+03  0.9627E+03
      2.903  0.1377E+03  0.9659E+03
      2.926  0.1287E+03  0.9689E+03
      2.950  0.1315E+03  0.9720E+03
      2.973  0.1273E+03  0.9750E+03
      2.996  0.1206E+03  0.9778E+03
      3.020  0.1197E+03  0.9805E+03
      3.043  0.1231E+03  0.9834E+03
      3.066  0.1231E+03  0.9863E+03
      3.089  0.1165E+03  0.9890E+03
      3.113  0.1193E+03  0.9918E+03
      3.136  0.1223E+03  0.9946E+03
      3.159  0.1127E+03  0.9972E+03
      3.182  0.1041E+03  0.9997E+03
      3.206  0.8785E+02  0.1002E+04
      3.229  0.7702E+02  0.1003E+04
      3.252  0.7765E+02  0.1005E+04
      3.276  0.7991E+02  0.1007E+04
      3.299  0.7127E+02  0.1009E+04
      3.322  0.3895E+02  0.1010E+04
      3.345  0.1040E+02  0.1010E+04
      3.369  0.1189E+01  0.1010E+04
      3.392  0.5233E-01  0.1010E+04
      3.415  0.8144E-03  0.1010E+04
      3.438  0.4219E-05  0.1010E+04
      3.462  0.7003E-08  0.1010E+04
      3.485  0.3640E-11  0.1010E+04
      3.508  0.0000E+00  0.1010E+04
      3.532  0.0000E+00  0.1010E+04
      3.555  0.0000E+00  0.1010E+04
      3.578  0.0000E+00  0.1010E+04
      3.601  0.0000E+00  0.1010E+04
      3.625  0.0000E+00  0.1010E+04
