       N       E                     dE             d eps       ncg     rms          rms(c)
DAV:   1    -0.237517616999E+03   -0.23752E+03   -0.12440E+05  4040   0.662E+02
DAV:   2    -0.864043949642E+03   -0.62653E+03   -0.57299E+03  4636   0.690E+01
DAV:   3    -0.909046799363E+03   -0.45003E+02   -0.41085E+02  5256   0.146E+01
DAV:   4    -0.910578351365E+03   -0.15316E+01   -0.15080E+01  4792   0.293E+00
DAV:   5    -0.910615345952E+03   -0.36995E-01   -0.36918E-01  4936   0.475E-01    0.109E+01
DAV:   6    -0.905266245549E+03    0.53491E+01   -0.14924E+01  4768   0.533E+00    0.873E+00
DAV:   7    -0.897559565759E+03    0.77067E+01   -0.11852E+01  4952   0.500E+00    0.580E+00
DAV:   8    -0.893820987568E+03    0.37386E+01   -0.65009E+00  4744   0.283E+00    0.318E+00
DAV:   9    -0.893533302503E+03    0.28769E+00   -0.33919E+00  4712   0.184E+00    0.245E+00
DAV:  10    -0.892962127254E+03    0.57118E+00   -0.15566E+00  4728   0.127E+00    0.137E+00
DAV:  11    -0.892879755039E+03    0.82372E-01   -0.48462E-01  4552   0.599E-01    0.801E-01
DAV:  12    -0.892868439542E+03    0.11315E-01   -0.14372E-01  4752   0.414E-01    0.634E-01
DAV:  13    -0.892836964954E+03    0.31475E-01   -0.53261E-02  4672   0.256E-01    0.309E-01
DAV:  14    -0.892835106447E+03    0.18585E-02   -0.20364E-02  4648   0.143E-01    0.190E-01
DAV:  15    -0.892834662240E+03    0.44421E-03   -0.88448E-03  4856   0.109E-01    0.150E-01
DAV:  16    -0.892832361389E+03    0.23009E-02   -0.32713E-03  4736   0.665E-02    0.649E-02
DAV:  17    -0.892832295477E+03    0.65912E-04   -0.10623E-03  4552   0.320E-02    0.397E-02
DAV:  18    -0.892832193446E+03    0.10203E-03   -0.41002E-04  4672   0.232E-02    0.261E-02
DAV:  19    -0.892832129543E+03    0.63903E-04   -0.13093E-04  4576   0.127E-02    0.137E-02
DAV:  20    -0.892832108979E+03    0.20563E-04   -0.52057E-05  4464   0.691E-03    0.655E-03
DAV:  21    -0.892832104985E+03    0.39947E-05   -0.13446E-05  2472   0.378E-03
   1 F= -.89283210E+03 E0= -.89277310E+03  d E =-.118009E+00
