Li                                      
           1
   -10.527895   18.234849   -0.000000
   -18.047820  -10.419914    0.000000
    -0.000000    0.000000   22.082050
   Li
   504
Direct configuration=     1
   0.99390513  0.97113713  0.99547845
   0.93646627  0.03495581  0.67459849
   0.86311047  0.04229860  0.35160885
   0.79412684  0.09351751  0.01309221
   0.72830396  0.19310784  0.65706460
   0.65555344  0.21913651  0.32623446
   0.58631068  0.25330312  0.02412491
   0.50994459  0.29190211  0.67374158
   0.41847665  0.36013989  0.34471939
   0.36404695  0.38608406  0.99524031
   0.28211874  0.41470398  0.67089142
   0.19600593  0.47056174  0.33571333
   0.08567798  0.05478889  0.67076357
   0.99485344  0.05318907  0.33798190
   0.91859494  0.09467437  0.00097102
   0.88051561  0.17640989  0.68793890
   0.79151226  0.19471766  0.33096944
   0.73496547  0.23118459  0.00974829
   0.65310103  0.33060191  0.67810932
   0.57749848  0.35993268  0.34177954
   0.53246491  0.37559598  0.01407333
   0.44504809  0.43107383  0.65381429
   0.34935685  0.48630189  0.34013014
   0.28548504  0.51690350  0.97487446
   0.11581796  0.05355860  0.34085224
   0.06060707  0.10525052  0.99515398
   0.03347542  0.17031599  0.68131546
   0.94313933  0.17039182  0.33596956
   0.86634853  0.24194994  0.01045948
   0.82143647  0.32666966  0.68966463
   0.73055483  0.34830780  0.34011829
   0.66763631  0.37405606  0.99188142
   0.57631774  0.43655258  0.68007991
   0.50130140  0.46711879  0.36903767
   0.44483334  0.50784453  0.00311297
   0.34395694  0.53782425  0.65875373
   0.21083712  0.10963245  0.03295955
   0.16060653  0.17001886  0.65820364
   0.09395402  0.20515875  0.34805972
   0.00025646  0.25370975  0.01512073
   0.92595171  0.32282041  0.65529437
   0.88114196  0.29206153  0.33423442
   0.81423796  0.38238632  0.98226266
   0.73778372  0.43702540  0.70189241
   0.64789383  0.48251650  0.35341966
   0.59138571  0.48574477  0.01467754
   0.48410602  0.54838961  0.66151640
   0.40373003  0.59300431  0.31098654
   0.32367899  0.16606857  0.67802760
   0.22421466  0.19027237  0.32582288
   0.13955837  0.25197617  0.01426737
   0.06128203  0.29753530  0.66086663
   0.00176923  0.30250048  0.32359398
   0.94223501  0.39677301  0.00108518
   0.88096210  0.44237547  0.66595173
   0.79964273  0.45567545  0.33904438
   0.71637137  0.48451195  0.01455049
   0.63632048  0.52866815  0.65296515
   0.54177686  0.60121584  0.34079864
   0.52694013  0.65090445  0.97979569
   0.36126254  0.21091331  0.35686319
   0.31237248  0.24082877  0.99770361
   0.24829345  0.30190311  0.66315726
   0.15172654  0.31763601  0.34253495
   0.07559704  0.37077694  0.01531415
   0.03025152  0.41566807  0.64881751
   0.93077003  0.43040430  0.31941954
   0.86948599  0.50187897  0.00743852
   0.77900229  0.56044928  0.69063316
   0.69738453  0.59491533  0.33376077
   0.65423561  0.61698733  0.99287270
   0.57528154  0.65537133  0.68018893
   0.44921674  0.26798126  0.98459486
   0.38654249  0.31159260  0.65300616
   0.28596098  0.35745970  0.34597552
   0.22710261  0.36815927  0.98464686
   0.15530064  0.42544047  0.65775841
   0.06318049  0.45392705  0.33473216
   0.01361541  0.50019200  0.00997853
   0.92820059  0.53543895  0.67071402
   0.85047293  0.58402249  0.31453023
   0.78966491  0.61071671  0.00052510
   0.70471924  0.65056548  0.69515996
   0.59559113  0.71454705  0.32926280
   0.15161471  0.46010450  0.97678085
   0.06230245  0.53261983  0.66450788
   0.96510849  0.57179226  0.32950010
   0.92595624  0.62500556  0.00918958
   0.84163961  0.67352807  0.67413946
   0.78111484  0.72984142  0.30999252
   0.68960161  0.75514089  0.98892192
   0.22874601  0.55943821  0.66209987
   0.10335151  0.59765653  0.30991507
   0.08016165  0.57826878  0.97375716
   0.97387165  0.66160371  0.65848528
   0.90740733  0.71471613  0.32036328
   0.85391337  0.73658679  0.99100294
   0.78720437  0.77358173  0.67171111
   0.25049234  0.56793464  0.28351539
   0.20693633  0.62940628  0.95501521
   0.12969730  0.66491719  0.65228744
   0.03179506  0.71326779  0.31022859
   0.01783334  0.73236396  0.98739039
   0.91144564  0.77787463  0.67108556
   0.85924042  0.84195155  0.32036147
   0.39193159  0.63647197  0.00665856
   0.30092644  0.68626941  0.65992592
   0.16636579  0.69958192  0.30457362
   0.13453293  0.73514421  0.97479675
   0.05864767  0.78717052  0.63571455
   0.01401382  0.82213969  0.34160521
   0.93133193  0.85006877  0.98620374
   0.42440592  0.67358570  0.66133813
   0.33254299  0.70748082  0.32967937
   0.26337805  0.75195189  0.97649061
   0.20584858  0.79953795  0.64991835
   0.13158508  0.82720827  0.32993664
   0.06909740  0.88275408  0.98765222
   0.03507462  0.91738463  0.65482749
   0.93765182  0.96696822  0.33962713
   0.85100343  0.97111268  0.99327500
   0.77004281  0.04239165  0.66982922
   0.71142225  0.08826983  0.34060878
   0.64868224  0.10403043  0.01256533
   0.59430600  0.18461028  0.68874967
   0.50071859  0.23669350  0.31791772
   0.06525001  0.94512798  0.32823333
   0.11977990  0.00014259  0.00413374
   0.23238581  0.05441403  0.66514928
   0.29283640  0.08315356  0.33597566
   0.38217140  0.13240223  0.01314700
   0.44711094  0.14713537  0.67087649
   0.86771048  0.91042595  0.65073317
   0.76032438  0.94851108  0.33154409
   0.71988142  0.98047528  0.00512060
   0.63640055  0.05583836  0.68554089
   0.58283256  0.08803811  0.33240097
   0.49384303  0.16365274  0.03087495
   0.14144510  0.93156258  0.64718761
   0.20092628  0.94094092  0.30992984
   0.29450301  0.01504025  0.03026535
   0.36453996  0.04290555  0.68229927
   0.43004652  0.10736638  0.34875856
   0.77134269  0.85815557  0.00537620
   0.72875708  0.93082433  0.65203452
   0.62034108  0.96269961  0.36048344
   0.55103501  0.00778344  0.99365460
   0.51860344  0.02202568  0.67848669
   0.19530846  0.87725030  0.95814773
   0.29562270  0.93361090  0.65392297
   0.36568283  0.96843063  0.32467794
   0.42326008  0.02873765  0.00369597
   0.69831317  0.83048342  0.34144224
   0.62658908  0.87761465  0.00919611
   0.56424543  0.91565998  0.67547235
   0.51704743  0.98431393  0.33272737
   0.26223065  0.82400381  0.33705947
   0.35224992  0.86999915  0.99971708
   0.41382513  0.92688293  0.65508294
   0.63367809  0.79344990  0.68992787
   0.56204935  0.83741500  0.34841434
   0.49573488  0.89181657  0.99044026
   0.35125217  0.82799666  0.65871345
   0.42620004  0.85036338  0.33009637
   0.56752409  0.77013668  0.98218401
   0.50585031  0.80047497  0.67207053
   0.38781814  0.76934392  0.00752601
   0.45015177  0.71688582  0.35604300
   0.99510151  0.00587341  0.76500728
   0.92701454  0.04572333  0.45524355
   0.85411598  0.06435895  0.13172585
   0.79685335  0.15019077  0.79709760
   0.71046294  0.15493719  0.44604714
   0.64131387  0.22326296  0.12284564
   0.56819049  0.24956099  0.78632711
   0.51168512  0.27006672  0.44286746
   0.44581738  0.32693921  0.12196052
   0.36348085  0.37992550  0.75776566
   0.28690853  0.42787401  0.45493069
   0.21631331  0.44713036  0.08834744
   0.05546665  0.04858311  0.45322075
   0.00454768  0.07331616  0.09875801
   0.92239175  0.14709734  0.76857504
   0.85629495  0.15775170  0.45279737
   0.78477255  0.22480653  0.12162008
   0.73219969  0.25481954  0.79109835
   0.68279253  0.30188615  0.44911230
   0.62017720  0.34688371  0.14630699
   0.48741575  0.39531635  0.79508390
   0.42802952  0.41462786  0.44411073
   0.36017724  0.45452027  0.10001909
   0.28401291  0.49651756  0.78866347
   0.12847969  0.05917783  0.11119794
   0.10271156  0.10513191  0.78412255
   0.00273850  0.15721256  0.42846263
   0.90689007  0.20516742  0.11640964
   0.86689320  0.28198458  0.81100476
   0.81280732  0.28058031  0.43938430
   0.76995444  0.33898396  0.11347102
   0.65303277  0.38061477  0.78433502
   0.59197522  0.40531772  0.45453982
   0.50681184  0.44813326  0.12598428
   0.41612125  0.50171443  0.79695315
   0.31723357  0.54196493  0.42830552
   0.22677580  0.14666999  0.77896148
   0.16629771  0.15590769  0.42512635
   0.06331914  0.20795062  0.10698465
   0.98792857  0.27803451  0.78222956
   0.95368794  0.27794779  0.43853917
   0.86572251  0.36732666  0.11005950
   0.81053475  0.39226901  0.79278781
   0.75063027  0.41425158  0.46658925
   0.65762438  0.44697809  0.13065609
   0.55272150  0.52652515  0.79658209
   0.50253686  0.52192511  0.43272303
   0.42875640  0.58848710  0.10262409
   0.30021831  0.15560399  0.46896834
   0.20980162  0.20943029  0.13872816
   0.14790521  0.27479269  0.75862616
   0.08764487  0.27445606  0.44912850
   0.01625917  0.32882012  0.11710635
   0.94365426  0.39323755  0.78297607
   0.86999902  0.41890712  0.44484609
   0.80147775  0.49585109  0.12220879
   0.71046826  0.49904444  0.79591857
   0.64857986  0.55021824  0.45341674
   0.57492842  0.54587371  0.08460948
   0.48222142  0.61692184  0.77794900
   0.38169726  0.22370767  0.12432099
   0.27952661  0.24324396  0.78548179
   0.22264336  0.29791914  0.43731518
   0.16604662  0.33030899  0.10243871
   0.08975872  0.39425153  0.77591566
   0.01303068  0.40672522  0.44624040
   0.94782388  0.48159844  0.12925694
   0.84221264  0.50747044  0.81495631
   0.79267549  0.54148647  0.44532697
   0.68349842  0.54849289  0.12815067
   0.64707542  0.61829366  0.77788151
   0.57694445  0.65732749  0.45356190
   0.42940543  0.23634394  0.78483005
   0.36763042  0.30453964  0.46931264
   0.29326219  0.31488299  0.12978860
   0.20548616  0.37356560  0.76750495
   0.13958058  0.42200988  0.43718934
   0.07489046  0.46114553  0.10910368
   0.99248929  0.48977955  0.79163959
   0.93344659  0.52577000  0.44699163
   0.86011078  0.60228927  0.14230167
   0.77736105  0.63275807  0.79500151
   0.71688558  0.69227616  0.42932978
   0.59680158  0.67389442  0.11373931
   0.14838204  0.50780346  0.77542927
   0.06047616  0.53241601  0.43674264
   0.01794618  0.57752005  0.09820480
   0.91160351  0.61117087  0.77210320
   0.86144149  0.65269520  0.42857560
   0.76044243  0.69175077  0.09460993
   0.70971501  0.75901578  0.78634276
   0.19697145  0.55747820  0.43068074
   0.15276348  0.58475390  0.06568819
   0.03453054  0.62055833  0.76940745
   0.02252947  0.64968654  0.43541581
   0.90860421  0.68372189  0.10219342
   0.85631687  0.74404633  0.76673750
   0.79584563  0.80839522  0.45267236
   0.29558035  0.57759862  0.07616543
   0.19443503  0.64421101  0.75986548
   0.13446583  0.65770695  0.41793364
   0.05293285  0.70343922  0.09122794
   0.99605791  0.76911544  0.74856365
   0.91025967  0.79683661  0.44008295
   0.83674343  0.82598869  0.10196843
   0.34233192  0.62624189  0.78065023
   0.27060907  0.65596150  0.42884883
   0.20274451  0.69472085  0.07912298
   0.15353345  0.77611070  0.73914158
   0.06633119  0.77441968  0.45015178
   0.96680970  0.82257216  0.10094881
   0.93884760  0.85047520  0.75286580
   0.43430912  0.66156076  0.44052047
   0.35356121  0.72521621  0.08751823
   0.30622645  0.73833028  0.76008970
   0.19115645  0.76161932  0.45859611
   0.13279703  0.82312861  0.09034440
   0.07012387  0.88063710  0.75003267
   0.98364194  0.90729959  0.45205407
   0.93033694  0.96482934  0.12001987
   0.87081295  0.98943937  0.77607497
   0.77619683  0.03244292  0.44703210
   0.69849715  0.09298346  0.11881091
   0.67774328  0.15776935  0.78708669
   0.57671811  0.16267591  0.41198724
   0.49578589  0.21842564  0.11857663
   0.03616063  0.93117817  0.10599867
   0.15877590  0.98142501  0.77044532
   0.21501962  0.04206258  0.44538285
   0.28356790  0.07765496  0.13571489
   0.39216469  0.13359621  0.80183652
   0.42680880  0.15138595  0.46546753
   0.82898623  0.93441218  0.42978294
   0.78361612  0.93600774  0.11827885
   0.73835223  0.00158982  0.77280829
   0.65088397  0.03881008  0.46931899
   0.56087432  0.07758106  0.12521100
   0.52241005  0.11945383  0.80342454
   0.13156742  0.91103713  0.42909778
   0.18832383  0.94142853  0.09665533
   0.25972306  0.99067072  0.77152522
   0.33719452  0.02329534  0.44071047
   0.44163144  0.08203559  0.11825709
   0.79478295  0.88482036  0.76142101
   0.69811850  0.90331150  0.46319565
   0.64536338  0.93765186  0.11599006
   0.59229540  0.00810189  0.79560104
   0.49641683  0.04857736  0.45813193
   0.22413740  0.87727182  0.75431431
   0.27991103  0.92141003  0.43590578
   0.35391261  0.93648397  0.12003893
   0.42891560  0.00302865  0.77163330
   0.69284114  0.81780409  0.09931612
   0.65502264  0.89368428  0.76862816
   0.57341557  0.93097443  0.45621332
   0.49934616  0.95983877  0.10846045
   0.27979554  0.83964694  0.07052736
   0.35511317  0.90555489  0.76426735
   0.43319016  0.91805876  0.42334373
   0.63601871  0.79969349  0.45373883
   0.54579053  0.81898569  0.11926605
   0.51822598  0.89384210  0.77912278
   0.34885547  0.79536386  0.43254519
   0.41377322  0.84390742  0.10906326
   0.56318825  0.74069147  0.78714023
   0.49655743  0.78305661  0.45515943
   0.42883902  0.77225654  0.76329858
   0.47714243  0.68478423  0.08848299
   0.99710489  0.00312171  0.21662648
   0.92213989  0.05195130  0.89308201
   0.82913320  0.07953355  0.57173553
   0.77115782  0.11669361  0.23203087
   0.70296975  0.17509675  0.90986259
   0.63812868  0.23795101  0.55091680
   0.57485990  0.26936905  0.25036437
   0.51247120  0.28243490  0.89619804
   0.43201278  0.33514710  0.56987307
   0.36085792  0.35720536  0.23869178
   0.29777684  0.43018493  0.87451837
   0.24055020  0.47187678  0.53794906
   0.06121385  0.05662937  0.86997353
   0.99156889  0.10068812  0.55975561
   0.92105943  0.10284181  0.23266060
   0.83494855  0.18376409  0.89533989
   0.79277774  0.23578798  0.57754398
   0.74038395  0.26889022  0.22268318
   0.62611344  0.27274916  0.90000878
   0.58691112  0.34662014  0.55110747
   0.52354800  0.37485265  0.24476515
   0.44025894  0.40518557  0.91273039
   0.35879758  0.48117125  0.55590661
   0.28995092  0.48605846  0.18161257
   0.15218133  0.08810643  0.56906870
   0.06818936  0.13517655  0.22736790
   0.98862458  0.16281394  0.89828269
   0.93013341  0.20814906  0.57612874
   0.87540667  0.21900969  0.21734383
   0.77606010  0.29873660  0.90460771
   0.73736522  0.34129859  0.56879456
   0.68696774  0.35500294  0.23899706
   0.58250972  0.39130821  0.88462692
   0.53423551  0.45604515  0.57140195
   0.43214713  0.49190555  0.24944515
   0.37304390  0.55820824  0.89984392
   0.21050924  0.09877006  0.22698488
   0.14757983  0.18962584  0.90745489
   0.07001687  0.20195165  0.54720126
   0.00105546  0.25043632  0.22894450
   0.92818065  0.31637336  0.90043608
   0.85219798  0.32587324  0.54843818
   0.80171711  0.38261575  0.23162761
   0.72062824  0.42332982  0.89791979
   0.67648248  0.46751051  0.56029850
   0.58366674  0.47469115  0.24552733
   0.48634448  0.53966947  0.91036334
   0.43957457  0.57000969  0.54326762
   0.28957855  0.15152320  0.89837825
   0.20140315  0.21052694  0.56445421
   0.14807905  0.25368368  0.23908664
   0.08223711  0.30075086  0.87138644
   0.00867345  0.31117749  0.55537964
   0.91311239  0.36222442  0.22041865
   0.87502212  0.42454720  0.89994746
   0.80346473  0.49055292  0.57752090
   0.72677758  0.49748625  0.24522177
   0.63116563  0.54259859  0.89875897
   0.57773191  0.56828203  0.56441095
   0.52432597  0.62034743  0.22855888
   0.38501951  0.19143978  0.56545189
   0.29048013  0.25448462  0.23848082
   0.22952267  0.29807415  0.87923821
   0.17181055  0.34377252  0.54201749
   0.08496920  0.39713052  0.22340380
   0.00318443  0.40653855  0.88814331
   0.94337033  0.42383107  0.54708096
   0.85827686  0.49526261  0.23878664
   0.77777925  0.54307759  0.90471004
   0.71562104  0.60510968  0.56337754
   0.62132030  0.60541710  0.20780765
   0.57623692  0.66254437  0.87677662
   0.42392803  0.25530826  0.24723962
   0.36786412  0.30083397  0.88212845
   0.31320580  0.34583955  0.55233900
   0.22035688  0.39432561  0.23739844
   0.15952908  0.40521999  0.88014126
   0.08369354  0.44657726  0.53402822
   0.99924910  0.48894507  0.21478730
   0.92370327  0.54148303  0.89220633
   0.88193147  0.58719986  0.55253843
   0.78970199  0.61771881  0.21518640
   0.71377695  0.68867688  0.88974969
   0.66052099  0.68621835  0.55694320
   0.15564338  0.50927234  0.20450072
   0.06084534  0.52625917  0.87692167
   0.01569749  0.53976906  0.55783970
   0.94291741  0.63968638  0.21861894
   0.84334799  0.65260062  0.88840534
   0.79268106  0.69596339  0.54336885
   0.66743821  0.73839116  0.20963148
   0.21088190  0.54586300  0.86045169
   0.15070380  0.56984460  0.57796435
   0.07977092  0.62912613  0.20064143
   0.00587682  0.67908859  0.86618152
   0.95473636  0.68223109  0.52387608
   0.82776369  0.74709389  0.19499514
   0.79530089  0.78711155  0.87835413
   0.29909147  0.62884319  0.53933996
   0.22469675  0.62146666  0.17000617
   0.14267737  0.66160896  0.85938394
   0.08609469  0.67618026  0.53264023
   0.98067812  0.76443168  0.19696903
   0.90504794  0.80817437  0.85776555
   0.85445267  0.82561725  0.55943350
   0.37186630  0.63313641  0.20289050
   0.29287665  0.67321080  0.87236347
   0.21207477  0.70322749  0.56591055
   0.10255800  0.73982675  0.20668036
   0.08014134  0.79168956  0.87557334
   0.97648982  0.82049764  0.56219411
   0.91275353  0.88420097  0.23892733
   0.43361968  0.67768858  0.89773968
   0.35452890  0.71701879  0.54622461
   0.25353375  0.72643824  0.21895908
   0.19396447  0.77183459  0.84724925
   0.11698963  0.80737149  0.56280214
   0.05699110  0.85978320  0.19737179
   0.98868082  0.90727312  0.85489908
   0.92095340  0.97133114  0.55573253
   0.83908423  0.00229160  0.23046511
   0.78002014  0.04301288  0.88663214
   0.67582060  0.12384130  0.55489398
   0.62838444  0.13598054  0.22059601
   0.55492854  0.15526064  0.91352643
   0.51145733  0.18702452  0.54907386
   0.05894766  0.94556827  0.54596763
   0.10776191  0.96827587  0.21368287
   0.18976016  0.05863135  0.90848218
   0.26892486  0.08721730  0.55993186
   0.36149194  0.13329827  0.23152828
   0.42818062  0.16273975  0.90906215
   0.83571877  0.92997489  0.87077555
   0.76635114  0.97109979  0.57801079
   0.69847057  0.00226726  0.22193538
   0.65758270  0.04018415  0.89423798
   0.57126742  0.08762009  0.56299891
   0.50669313  0.13555783  0.24930968
   0.09912928  0.92266546  0.85550653
   0.18505260  0.94849170  0.56860073
   0.28861927  0.99781487  0.22232241
   0.34978869  0.02306986  0.88423304
   0.42356515  0.06525328  0.55903637
   0.76086504  0.86554915  0.22225701
   0.73020486  0.91162252  0.88181632
   0.63802703  0.96691178  0.57476973
   0.59139648  0.00517159  0.22245883
   0.48952153  0.06302133  0.90261081
   0.19625605  0.89068600  0.19683831
   0.24721526  0.92877258  0.87667718
   0.34961411  0.94499900  0.56215576
   0.43138894  0.01868336  0.22473848
   0.69525400  0.81814196  0.55763506
   0.62848016  0.85566568  0.23150512
   0.58168048  0.91968648  0.89306460
   0.50257615  0.94832730  0.54199356
   0.27784394  0.84199733  0.54394039
   0.32482292  0.84693481  0.23686586
   0.42989617  0.90309526  0.89522754
   0.62696656  0.81081366  0.89762490
   0.57997824  0.83328855  0.56763284
   0.46570081  0.89015898  0.21994686
   0.34718173  0.79419830  0.86991896
   0.43663737  0.81500908  0.54531533
   0.52983027  0.75244256  0.23241577
   0.48648168  0.79020746  0.91387857
   0.41565485  0.74166390  0.20249565
   0.50728565  0.69414173  0.58741331
