 432 432   0   0
  0.2159961E+02  0.2105280E-08  0.2105280E-08  0.2105280E-08  0.5000000E-15
  1.000000000000000E-004
  CAR 
 Li                                      
      3.26553013     -3.50577105  301      0.23940345      1.00000000
     -3.506  0.0000E+00  0.0000E+00
     -3.483  0.0000E+00  0.0000E+00
     -3.461  0.0000E+00  0.0000E+00
     -3.438  0.0000E+00  0.0000E+00
     -3.415  0.0000E+00  0.0000E+00
     -3.393  0.0000E+00  0.0000E+00
     -3.370  0.1968E-13  0.4441E-15
     -3.348  0.7018E-10  0.1584E-11
     -3.325  0.8580E-07  0.1938E-08
     -3.303  0.3472E-04  0.7857E-06
     -3.280  0.4691E-02  0.1067E-03
     -3.257  0.2142E+00  0.4940E-02
     -3.235  0.3355E+01  0.8066E-01
     -3.212  0.1834E+02  0.4947E+00
     -3.190  0.3554E+02  0.1297E+01
     -3.167  0.2459E+02  0.1852E+01
     -3.145  0.6427E+01  0.1997E+01
     -3.122  0.5916E+01  0.2130E+01
     -3.099  0.2930E+02  0.2792E+01
     -3.077  0.7006E+02  0.4373E+01
     -3.054  0.8548E+02  0.6302E+01
     -3.032  0.5558E+02  0.7557E+01
     -3.009  0.1844E+02  0.7973E+01
     -2.987  0.1301E+02  0.8267E+01
     -2.964  0.4191E+02  0.9213E+01
     -2.941  0.7834E+02  0.1098E+02
     -2.919  0.8026E+02  0.1279E+02
     -2.896  0.4275E+02  0.1376E+02
     -2.874  0.1397E+02  0.1407E+02
     -2.851  0.2549E+02  0.1465E+02
     -2.829  0.6980E+02  0.1622E+02
     -2.806  0.1074E+03  0.1865E+02
     -2.783  0.9459E+02  0.2078E+02
     -2.761  0.4499E+02  0.2180E+02
     -2.738  0.2266E+02  0.2231E+02
     -2.716  0.6036E+02  0.2367E+02
     -2.693  0.1248E+03  0.2649E+02
     -2.671  0.1484E+03  0.2984E+02
     -2.648  0.1151E+03  0.3244E+02
     -2.626  0.5485E+02  0.3367E+02
     -2.603  0.1871E+02  0.3410E+02
     -2.580  0.3360E+02  0.3485E+02
     -2.558  0.8138E+02  0.3669E+02
     -2.535  0.9110E+02  0.3875E+02
     -2.513  0.4556E+02  0.3978E+02
     -2.490  0.1555E+02  0.4013E+02
     -2.468  0.3597E+02  0.4094E+02
     -2.445  0.1000E+03  0.4320E+02
     -2.422  0.1551E+03  0.4670E+02
     -2.400  0.1387E+03  0.4983E+02
     -2.377  0.7507E+02  0.5152E+02
     -2.355  0.4228E+02  0.5248E+02
     -2.332  0.8614E+02  0.5442E+02
     -2.310  0.1618E+03  0.5807E+02
     -2.287  0.1950E+03  0.6247E+02
     -2.264  0.1753E+03  0.6643E+02
     -2.242  0.1121E+03  0.6896E+02
     -2.219  0.4750E+02  0.7003E+02
     -2.197  0.3797E+02  0.7089E+02
     -2.174  0.6348E+02  0.7232E+02
     -2.152  0.7874E+02  0.7410E+02
     -2.129  0.5969E+02  0.7545E+02
     -2.106  0.2896E+02  0.7610E+02
     -2.084  0.4627E+02  0.7715E+02
     -2.061  0.1153E+03  0.7975E+02
     -2.039  0.1694E+03  0.8357E+02
     -2.016  0.1594E+03  0.8717E+02
     -1.994  0.9499E+02  0.8931E+02
     -1.971  0.4509E+02  0.9033E+02
     -1.948  0.7614E+02  0.9205E+02
     -1.926  0.1535E+03  0.9552E+02
     -1.903  0.2004E+03  0.1000E+03
     -1.881  0.1880E+03  0.1043E+03
     -1.858  0.1177E+03  0.1069E+03
     -1.836  0.4915E+02  0.1081E+03
     -1.813  0.5407E+02  0.1093E+03
     -1.790  0.1180E+03  0.1119E+03
     -1.768  0.1569E+03  0.1155E+03
     -1.745  0.1286E+03  0.1184E+03
     -1.723  0.6835E+02  0.1199E+03
     -1.700  0.6502E+02  0.1214E+03
     -1.678  0.1382E+03  0.1245E+03
     -1.655  0.2078E+03  0.1292E+03
     -1.632  0.2035E+03  0.1338E+03
     -1.610  0.1319E+03  0.1368E+03
     -1.587  0.6633E+02  0.1383E+03
     -1.565  0.8462E+02  0.1402E+03
     -1.542  0.1505E+03  0.1436E+03
     -1.520  0.1865E+03  0.1478E+03
     -1.497  0.1838E+03  0.1519E+03
     -1.474  0.1263E+03  0.1548E+03
     -1.452  0.6045E+02  0.1561E+03
     -1.429  0.6712E+02  0.1577E+03
     -1.407  0.1171E+03  0.1603E+03
     -1.384  0.1417E+03  0.1635E+03
     -1.362  0.1216E+03  0.1662E+03
     -1.339  0.6522E+02  0.1677E+03
     -1.316  0.4032E+02  0.1686E+03
     -1.294  0.8451E+02  0.1705E+03
     -1.271  0.1418E+03  0.1737E+03
     -1.249  0.1455E+03  0.1770E+03
     -1.226  0.1040E+03  0.1794E+03
     -1.204  0.9426E+02  0.1815E+03
     -1.181  0.1706E+03  0.1853E+03
     -1.158  0.2579E+03  0.1912E+03
     -1.136  0.2862E+03  0.1976E+03
     -1.113  0.2561E+03  0.2034E+03
     -1.091  0.1876E+03  0.2076E+03
     -1.068  0.1185E+03  0.2103E+03
     -1.046  0.1223E+03  0.2131E+03
     -1.023  0.1761E+03  0.2171E+03
     -1.000  0.2009E+03  0.2216E+03
     -0.978  0.1678E+03  0.2254E+03
     -0.955  0.9601E+02  0.2275E+03
     -0.933  0.6356E+02  0.2290E+03
     -0.910  0.1054E+03  0.2314E+03
     -0.888  0.1575E+03  0.2349E+03
     -0.865  0.1636E+03  0.2386E+03
     -0.842  0.1151E+03  0.2412E+03
     -0.820  0.8476E+02  0.2431E+03
     -0.797  0.1467E+03  0.2464E+03
     -0.775  0.2243E+03  0.2515E+03
     -0.752  0.2428E+03  0.2570E+03
     -0.730  0.2115E+03  0.2617E+03
     -0.707  0.1493E+03  0.2651E+03
     -0.684  0.1085E+03  0.2676E+03
     -0.662  0.1002E+03  0.2698E+03
     -0.639  0.6995E+02  0.2714E+03
     -0.617  0.3668E+02  0.2722E+03
     -0.594  0.6598E+02  0.2737E+03
     -0.572  0.1496E+03  0.2771E+03
     -0.549  0.2194E+03  0.2820E+03
     -0.526  0.2434E+03  0.2875E+03
     -0.504  0.2244E+03  0.2926E+03
     -0.481  0.1925E+03  0.2969E+03
     -0.459  0.1758E+03  0.3009E+03
     -0.436  0.1727E+03  0.3048E+03
     -0.414  0.1855E+03  0.3090E+03
     -0.391  0.2215E+03  0.3140E+03
     -0.368  0.2587E+03  0.3198E+03
     -0.346  0.2559E+03  0.3256E+03
     -0.323  0.1975E+03  0.3301E+03
     -0.301  0.1253E+03  0.3329E+03
     -0.278  0.1074E+03  0.3353E+03
     -0.256  0.1335E+03  0.3383E+03
     -0.233  0.1492E+03  0.3417E+03
     -0.210  0.1420E+03  0.3449E+03
     -0.188  0.1649E+03  0.3486E+03
     -0.165  0.2142E+03  0.3535E+03
     -0.143  0.2579E+03  0.3593E+03
     -0.120  0.2765E+03  0.3655E+03
     -0.098  0.2543E+03  0.3713E+03
     -0.075  0.2086E+03  0.3760E+03
     -0.052  0.1626E+03  0.3797E+03
     -0.030  0.1571E+03  0.3832E+03
     -0.007  0.1869E+03  0.3874E+03
      0.015  0.2095E+03  0.3921E+03
      0.038  0.2119E+03  0.3969E+03
      0.060  0.1844E+03  0.4011E+03
      0.083  0.1457E+03  0.4044E+03
      0.106  0.1326E+03  0.4074E+03
      0.128  0.1345E+03  0.4104E+03
      0.151  0.1567E+03  0.4139E+03
      0.173  0.1964E+03  0.4184E+03
      0.196  0.2143E+03  0.4232E+03
      0.218  0.2052E+03  0.4278E+03
      0.241  0.1981E+03  0.4323E+03
      0.264  0.2031E+03  0.4369E+03
      0.286  0.2123E+03  0.4417E+03
      0.309  0.2153E+03  0.4466E+03
      0.331  0.2106E+03  0.4513E+03
      0.354  0.2040E+03  0.4559E+03
      0.376  0.1880E+03  0.4602E+03
      0.399  0.1780E+03  0.4642E+03
      0.422  0.1845E+03  0.4683E+03
      0.444  0.1967E+03  0.4728E+03
      0.467  0.1961E+03  0.4772E+03
      0.489  0.2026E+03  0.4818E+03
      0.512  0.2335E+03  0.4870E+03
      0.534  0.2592E+03  0.4929E+03
      0.557  0.2610E+03  0.4988E+03
      0.580  0.2601E+03  0.5047E+03
      0.602  0.2608E+03  0.5105E+03
      0.625  0.2629E+03  0.5165E+03
      0.647  0.2603E+03  0.5224E+03
      0.670  0.2520E+03  0.5280E+03
      0.692  0.2512E+03  0.5337E+03
      0.715  0.2527E+03  0.5394E+03
      0.738  0.2544E+03  0.5452E+03
      0.760  0.2413E+03  0.5506E+03
      0.783  0.2229E+03  0.5556E+03
      0.805  0.2177E+03  0.5606E+03
      0.828  0.2249E+03  0.5656E+03
      0.850  0.2305E+03  0.5708E+03
      0.873  0.2340E+03  0.5761E+03
      0.896  0.2352E+03  0.5814E+03
      0.918  0.2387E+03  0.5868E+03
      0.941  0.2419E+03  0.5923E+03
      0.963  0.2349E+03  0.5976E+03
      0.986  0.2119E+03  0.6024E+03
      1.008  0.1951E+03  0.6068E+03
      1.031  0.1967E+03  0.6112E+03
      1.054  0.1948E+03  0.6156E+03
      1.076  0.1847E+03  0.6198E+03
      1.099  0.1823E+03  0.6239E+03
      1.121  0.1895E+03  0.6282E+03
      1.144  0.2007E+03  0.6327E+03
      1.166  0.2057E+03  0.6373E+03
      1.189  0.2009E+03  0.6419E+03
      1.212  0.1864E+03  0.6461E+03
      1.234  0.1585E+03  0.6496E+03
      1.257  0.1277E+03  0.6525E+03
      1.279  0.1257E+03  0.6554E+03
      1.302  0.1480E+03  0.6587E+03
      1.324  0.1521E+03  0.6621E+03
      1.347  0.1429E+03  0.6654E+03
      1.370  0.1445E+03  0.6686E+03
      1.392  0.1609E+03  0.6723E+03
      1.415  0.1783E+03  0.6763E+03
      1.437  0.1861E+03  0.6805E+03
      1.460  0.1831E+03  0.6846E+03
      1.482  0.1815E+03  0.6887E+03
      1.505  0.1838E+03  0.6929E+03
      1.528  0.1793E+03  0.6969E+03
      1.550  0.1688E+03  0.7007E+03
      1.573  0.1694E+03  0.7045E+03
      1.595  0.1787E+03  0.7086E+03
      1.618  0.1829E+03  0.7127E+03
      1.640  0.1918E+03  0.7170E+03
      1.663  0.2009E+03  0.7216E+03
      1.686  0.1938E+03  0.7259E+03
      1.708  0.1818E+03  0.7300E+03
      1.731  0.1813E+03  0.7341E+03
      1.753  0.1873E+03  0.7384E+03
      1.776  0.1821E+03  0.7425E+03
      1.798  0.1748E+03  0.7464E+03
      1.821  0.1747E+03  0.7504E+03
      1.844  0.1679E+03  0.7542E+03
      1.866  0.1503E+03  0.7575E+03
      1.889  0.1414E+03  0.7607E+03
      1.911  0.1431E+03  0.7640E+03
      1.934  0.1399E+03  0.7671E+03
      1.956  0.1360E+03  0.7702E+03
      1.979  0.1312E+03  0.7732E+03
      2.002  0.1290E+03  0.7761E+03
      2.024  0.1242E+03  0.7789E+03
      2.047  0.1136E+03  0.7814E+03
      2.069  0.1079E+03  0.7839E+03
      2.092  0.1141E+03  0.7864E+03
      2.114  0.1186E+03  0.7891E+03
      2.137  0.1108E+03  0.7916E+03
      2.160  0.9163E+02  0.7937E+03
      2.182  0.6108E+02  0.7951E+03
      2.205  0.2989E+02  0.7957E+03
      2.227  0.1323E+02  0.7960E+03
      2.250  0.1755E+02  0.7964E+03
      2.272  0.4181E+02  0.7974E+03
      2.295  0.7414E+02  0.7991E+03
      2.318  0.7765E+02  0.8008E+03
      2.340  0.4212E+02  0.8018E+03
      2.363  0.1720E+02  0.8021E+03
      2.385  0.2973E+02  0.8028E+03
      2.408  0.5631E+02  0.8041E+03
      2.430  0.7348E+02  0.8057E+03
      2.453  0.8532E+02  0.8077E+03
      2.476  0.9637E+02  0.8098E+03
      2.498  0.1061E+03  0.8122E+03
      2.521  0.1140E+03  0.8148E+03
      2.543  0.1215E+03  0.8176E+03
      2.566  0.1299E+03  0.8205E+03
      2.588  0.1373E+03  0.8236E+03
      2.611  0.1380E+03  0.8267E+03
      2.634  0.1362E+03  0.8298E+03
      2.656  0.1424E+03  0.8330E+03
      2.679  0.1457E+03  0.8363E+03
      2.701  0.1363E+03  0.8394E+03
      2.724  0.1192E+03  0.8420E+03
      2.746  0.1052E+03  0.8444E+03
      2.769  0.8381E+02  0.8463E+03
      2.792  0.6374E+02  0.8478E+03
      2.814  0.6513E+02  0.8492E+03
      2.837  0.8039E+02  0.8510E+03
      2.859  0.9492E+02  0.8532E+03
      2.882  0.1165E+03  0.8558E+03
      2.904  0.1337E+03  0.8588E+03
      2.927  0.1294E+03  0.8617E+03
      2.950  0.1073E+03  0.8642E+03
      2.972  0.6101E+02  0.8655E+03
      2.995  0.1784E+02  0.8659E+03
      3.017  0.2249E+01  0.8660E+03
      3.040  0.1109E+00  0.8660E+03
      3.062  0.2019E-02  0.8660E+03
      3.085  0.1306E-04  0.8660E+03
      3.108  0.2929E-07  0.8660E+03
      3.130  0.2235E-10  0.8660E+03
      3.153  0.4919E-14  0.8660E+03
      3.175  0.0000E+00  0.8660E+03
      3.198  0.0000E+00  0.8660E+03
      3.220  0.0000E+00  0.8660E+03
      3.243  0.0000E+00  0.8660E+03
      3.266  0.0000E+00  0.8660E+03
