       N       E                     dE             d eps       ncg     rms          rms(c)
DAV:   1    -0.261336177284E+03   -0.26134E+03   -0.10289E+05  3464   0.649E+02
DAV:   2    -0.760102391778E+03   -0.49877E+03   -0.45565E+03  4012   0.653E+01
DAV:   3    -0.795841246522E+03   -0.35739E+02   -0.32766E+02  4440   0.138E+01
DAV:   4    -0.797043286154E+03   -0.12020E+01   -0.11862E+01  3976   0.280E+00
DAV:   5    -0.797071109929E+03   -0.27824E-01   -0.27789E-01  4176   0.451E-01    0.864E+00
DAV:   6    -0.790992741435E+03    0.60784E+01   -0.92608E+00  3968   0.414E+00    0.598E+00
DAV:   7    -0.787812138173E+03    0.31806E+01   -0.78254E+00  4032   0.392E+00    0.414E+00
DAV:   8    -0.785820751317E+03    0.19914E+01   -0.36628E+00  4008   0.229E+00    0.228E+00
DAV:   9    -0.785411579226E+03    0.40917E+00   -0.22495E+00  3752   0.122E+00    0.105E+00
DAV:  10    -0.785476333860E+03   -0.64755E-01   -0.45985E-01  4048   0.708E-01    0.919E-01
DAV:  11    -0.785387735923E+03    0.88598E-01   -0.17924E-01  3968   0.485E-01    0.465E-01
DAV:  12    -0.785381629545E+03    0.61064E-02   -0.44876E-02  3752   0.182E-01    0.218E-01
DAV:  13    -0.785381497773E+03    0.13177E-03   -0.98760E-03  3936   0.103E-01    0.125E-01
DAV:  14    -0.785380952547E+03    0.54523E-03   -0.27781E-03  3912   0.711E-02    0.855E-02
DAV:  15    -0.785380235875E+03    0.71667E-03   -0.98699E-04  3904   0.418E-02    0.397E-02
DAV:  16    -0.785380153864E+03    0.82011E-04   -0.56022E-04  3696   0.206E-02    0.147E-02
DAV:  17    -0.785380158680E+03   -0.48156E-05   -0.76612E-05  4144   0.104E-02
   1 F= -.78538016E+03 E0= -.78533547E+03  d E =-.893779E-01
