Li                                      
           1
    21.052800    0.000000    0.000000
     0.000000   21.052800    0.000000
     0.000000    0.000000   21.052800
   Li
   432
Direct configuration=     1
   0.00297167  0.98561705  0.99267489
   0.95319071  0.07154183  0.07213375
   0.85110963  0.15149172  0.18771044
   0.75311212  0.24145526  0.26801821
   0.64743434  0.31789925  0.33635244
   0.58565199  0.42678737  0.42943344
   0.50273031  0.48769342  0.51723082
   0.42071911  0.58728367  0.58725684
   0.31783117  0.67638019  0.67813046
   0.24215073  0.72639289  0.73869314
   0.17601707  0.82097716  0.81690048
   0.09109030  0.90870679  0.90165379
   0.07173845  0.91181563  0.07895352
   0.00482701  0.97872067  0.17540843
   0.95535352  0.07664336  0.23133306
   0.82677073  0.15255873  0.32268749
   0.75337357  0.23737258  0.41368081
   0.66025582  0.31650199  0.48671533
   0.58611676  0.40344512  0.57809323
   0.51482637  0.47627137  0.66290829
   0.42800995  0.57359363  0.74237620
   0.33766459  0.67355169  0.83559608
   0.22480546  0.73665032  0.90600183
   0.17000497  0.83208174  0.00281392
   0.16829815  0.82689220  0.16326752
   0.06839028  0.90451786  0.21400822
   0.01888719  0.99547988  0.34206321
   0.93956377  0.11646530  0.40646133
   0.84702937  0.16102386  0.50051141
   0.73997247  0.23314290  0.59575523
   0.65262197  0.30235324  0.65969750
   0.58460031  0.39359472  0.74303971
   0.49002853  0.49187960  0.83930133
   0.43973451  0.58389957  0.92242250
   0.32438520  0.67524517  0.97910884
   0.25674724  0.72784716  0.06859330
   0.24685440  0.74312919  0.23882104
   0.13468979  0.81637535  0.33675954
   0.08540672  0.89978652  0.41930604
   0.01347086  0.99049383  0.49579547
   0.92329370  0.07780744  0.59343445
   0.83793131  0.15527957  0.65940731
   0.74643191  0.24707100  0.75358893
   0.64665260  0.29362926  0.81685642
   0.58910661  0.39794019  0.92170649
   0.49157149  0.50132041  0.99643531
   0.41930567  0.59266588  0.09638018
   0.33503175  0.68237511  0.16697715
   0.34402655  0.67968097  0.33964920
   0.23146940  0.74759840  0.41683665
   0.18042031  0.83528030  0.49811173
   0.09667601  0.93395618  0.57160269
   0.00695723  0.01988279  0.64311279
   0.93138228  0.09955967  0.73668322
   0.84096071  0.16998281  0.84150578
   0.76179963  0.24432700  0.92576538
   0.67786308  0.32126811  0.01347509
   0.58665709  0.42225403  0.09276710
   0.47911732  0.50529908  0.13781557
   0.40905607  0.59090298  0.25340713
   0.40241959  0.55498469  0.42388425
   0.32676844  0.64309849  0.47384181
   0.25218688  0.73758512  0.57859946
   0.17659363  0.83291382  0.65572792
   0.09053375  0.92701682  0.75328710
   0.99881458  0.01771856  0.83159073
   0.94839856  0.08902662  0.90830098
   0.84627956  0.17181958  0.97733684
   0.76445904  0.23695268  0.07941219
   0.66129443  0.31973341  0.15375258
   0.56847859  0.42324349  0.23723001
   0.49589552  0.51630067  0.34558428
   0.07987491  0.08180421  0.92758697
   0.01682021  0.16969877  0.01507812
   0.90544059  0.22116715  0.08290931
   0.83828413  0.33026515  0.17432471
   0.75136751  0.39442858  0.24878201
   0.65935209  0.50268135  0.33699044
   0.58748641  0.58119177  0.43017533
   0.48568777  0.66123960  0.50536156
   0.38771250  0.74987918  0.57631449
   0.31203675  0.83613837  0.68069741
   0.23951822  0.94297951  0.75138133
   0.13281301  0.00950058  0.84185423
   0.16876832  0.99523302  0.02375578
   0.08881655  0.08803233  0.09582222
   0.01204259  0.17570742  0.16161372
   0.91755987  0.25097978  0.26676494
   0.82000259  0.33408676  0.33169792
   0.74059634  0.40008180  0.41139963
   0.66887774  0.50966094  0.50836956
   0.55868964  0.57912023  0.59984385
   0.49817029  0.67122539  0.67974832
   0.42731399  0.78031510  0.73886743
   0.31820445  0.84521926  0.81638925
   0.21804955  0.91304924  0.91667612
   0.25337313  0.91288110  0.08756580
   0.17052224  0.98496407  0.16561775
   0.07717380  0.07777429  0.24906580
   0.01830182  0.17989168  0.32761866
   0.89489649  0.27164866  0.41212006
   0.81110631  0.31949425  0.51709732
   0.74678102  0.40696223  0.57346788
   0.66266456  0.49608738  0.65386729
   0.59192302  0.56458595  0.74226996
   0.49216496  0.67700763  0.83120722
   0.41256168  0.78860271  0.89972721
   0.31666492  0.84232665  0.97404211
   0.33670224  0.82538440  0.15969941
   0.24413224  0.89552588  0.24674818
   0.16542168  0.98337655  0.31003828
   0.08415301  0.08345992  0.41276456
   0.99158438  0.18265382  0.49409653
   0.91494501  0.26500208  0.55958330
   0.83664031  0.32554377  0.66019764
   0.72759986  0.39334462  0.73590377
   0.65635179  0.49414104  0.81633296
   0.58654339  0.58433480  0.91156865
   0.49479731  0.69973857  0.98886122
   0.38119577  0.76827467  0.08019289
   0.42139479  0.75633145  0.23477018
   0.31496895  0.82587844  0.34144567
   0.24080576  0.92680159  0.41990664
   0.16145289  0.01127587  0.51508753
   0.07854666  0.12319846  0.59128589
   0.00410249  0.21446450  0.64453102
   0.92685802  0.26724559  0.75111050
   0.84242012  0.30631538  0.81908046
   0.73803266  0.41576320  0.90580777
   0.66281943  0.50215062  0.98857482
   0.56311072  0.60304579  0.05204706
   0.48296117  0.67771857  0.13604427
   0.48752003  0.67055718  0.32251095
   0.41859277  0.76279326  0.44526663
   0.31456741  0.84759780  0.50240618
   0.25997806  0.93359555  0.57577974
   0.17444149  0.01759817  0.65310772
   0.08576614  0.09362706  0.74974739
   0.00861545  0.17948803  0.82623867
   0.92931259  0.25111822  0.93698751
   0.83659115  0.33326605  0.00894396
   0.73659541  0.42775503  0.08063666
   0.66216906  0.50408857  0.18385710
   0.55079422  0.57747992  0.22599901
   0.18869861  0.18309211  0.84779344
   0.07484804  0.27094289  0.92581081
   0.99282607  0.33107362  0.02568229
   0.91389004  0.43076212  0.06034982
   0.83592676  0.49955141  0.18443097
   0.74987606  0.57867040  0.25486391
   0.64195588  0.66034014  0.32840183
   0.58781294  0.75295951  0.42137938
   0.50606576  0.84783313  0.51590357
   0.39994178  0.92543005  0.58623873
   0.33807921  0.02417477  0.67134334
   0.21220412  0.09992491  0.74403351
   0.24501015  0.08574593  0.93338913
   0.17514243  0.16579770  0.01400951
   0.09628111  0.26962750  0.07613365
   0.96765601  0.32432374  0.14371964
   0.90004039  0.39498671  0.25174882
   0.82088048  0.48308412  0.33958882
   0.74132777  0.58169597  0.43543629
   0.64857125  0.64282734  0.50708367
   0.57754441  0.77363748  0.58830746
   0.46838004  0.84330797  0.65158758
   0.42107755  0.93090545  0.77265969
   0.29832172  0.01382971  0.81913499
   0.32888496  0.98543150  0.98974862
   0.25480950  0.06113156  0.07928481
   0.17208594  0.16273418  0.15104191
   0.08852181  0.25949762  0.23400003
   0.00010172  0.33964607  0.33062791
   0.91194555  0.41704796  0.41151011
   0.84068084  0.49303398  0.49071725
   0.74707342  0.57847962  0.58897750
   0.64466945  0.67141730  0.66458147
   0.56198072  0.75628702  0.75805961
   0.49934094  0.84172789  0.84696793
   0.40141678  0.94283413  0.92074668
   0.42040794  0.91740720  0.08327629
   0.35701544  0.97988221  0.16942899
   0.25751809  0.06780373  0.25006919
   0.18118136  0.17499856  0.31800613
   0.08848291  0.25973948  0.40325649
   0.01491603  0.32610694  0.49124023
   0.90165520  0.41750402  0.57690347
   0.81174682  0.47246800  0.66114609
   0.72628884  0.59339510  0.73682070
   0.64224520  0.67887241  0.84057384
   0.58813429  0.76630896  0.91974830
   0.50886513  0.83113115  0.99469933
   0.50555068  0.82260383  0.14509786
   0.42304939  0.90657438  0.25753002
   0.33302393  0.99669598  0.32933974
   0.24923604  0.09249659  0.40870929
   0.17642665  0.19196684  0.49467679
   0.10774882  0.27028284  0.58501547
   0.00125051  0.33205762  0.62577410
   0.91011299  0.39938138  0.73332580
   0.82510903  0.49429482  0.80968024
   0.73561159  0.59751282  0.90457578
   0.66320322  0.67891026  0.99301477
   0.56513912  0.75080988  0.08455006
   0.56419896  0.75713820  0.25257694
   0.50089283  0.81059299  0.35005018
   0.42600372  0.89811004  0.39076663
   0.33885005  0.00290627  0.48771408
   0.26274061  0.08946177  0.58019065
   0.17621219  0.20118655  0.65962000
   0.08975145  0.24957742  0.75627656
   0.97960102  0.33953427  0.82057999
   0.92167336  0.39975297  0.92052330
   0.80843867  0.51240773  0.98924407
   0.74303659  0.59987839  0.06483070
   0.65118138  0.65718479  0.17348309
   0.25375737  0.30151334  0.75919915
   0.16165139  0.35525660  0.85099839
   0.06988960  0.40872716  0.91464530
   0.99053054  0.50837001  0.00251089
   0.91011007  0.56496493  0.08103990
   0.85408105  0.64738181  0.17707586
   0.77125219  0.75196927  0.26901594
   0.69116449  0.81832862  0.31590074
   0.59103224  0.90026497  0.40238368
   0.51372574  0.00139331  0.48896618
   0.41830660  0.09718126  0.58819855
   0.32413751  0.16456108  0.69702435
   0.32222572  0.16016722  0.83254489
   0.24384583  0.25721192  0.93927575
   0.14916506  0.34621633  0.99830269
   0.09503362  0.41645288  0.08666561
   0.97588105  0.49842602  0.18451062
   0.91690646  0.58305101  0.29735140
   0.81047772  0.67613523  0.34589959
   0.73439446  0.74885607  0.43468896
   0.68233688  0.87191527  0.49703373
   0.57947907  0.92906225  0.58805009
   0.49412111  0.00259295  0.67515947
   0.42369177  0.08494500  0.76028514
   0.41913781  0.06840754  0.92045153
   0.35547074  0.15228795  0.01129961
   0.26231049  0.24619809  0.09087633
   0.18882538  0.32530456  0.14825655
   0.07522610  0.40200105  0.23420943
   0.00476648  0.48546230  0.32011030
   0.90533952  0.59276673  0.41263313
   0.83876813  0.66347397  0.51631505
   0.72727576  0.77577344  0.58872526
   0.66201971  0.87727167  0.68225395
   0.57027209  0.91911306  0.75251913
   0.52184466  0.01921942  0.83239514
   0.49798561  0.98884906  0.99718396
   0.40508973  0.04322141  0.09447210
   0.33821836  0.13853805  0.19202734
   0.26439101  0.25206164  0.24263129
   0.18213070  0.35588542  0.33128357
   0.09540659  0.44194499  0.41159690
   0.99692155  0.49596240  0.48766218
   0.92737831  0.56540032  0.60586992
   0.81578431  0.67934414  0.66223271
   0.73724369  0.76803249  0.75679884
   0.68081636  0.81177546  0.84026803
   0.58818095  0.91030427  0.90707211
   0.59673872  0.91639511  0.09378673
   0.50138990  0.97397629  0.17846783
   0.42739798  0.05209199  0.26394006
   0.34857181  0.14142357  0.31959641
   0.26919084  0.24665962  0.41207115
   0.19089958  0.32294229  0.48253506
   0.09652888  0.45086677  0.56669421
   0.01219164  0.47664926  0.69116002
   0.89119029  0.56764934  0.73397347
   0.84485364  0.66134811  0.83606243
   0.78043103  0.74218056  0.90650453
   0.67510841  0.83457504  0.99299473
   0.67709419  0.81587768  0.18332249
   0.57458928  0.88866486  0.23914676
   0.51248880  0.98156462  0.33460520
   0.41043261  0.06632982  0.40048928
   0.35161138  0.16185031  0.48132214
   0.26980142  0.25499022  0.59886632
   0.17117424  0.36064641  0.66177819
   0.07846256  0.40648951  0.74188056
   0.98324202  0.50416558  0.83141795
   0.91795541  0.58300955  0.92181227
   0.83791622  0.66549045  0.99493529
   0.76295979  0.74973571  0.09918512
   0.32109340  0.36128096  0.65888440
   0.26073304  0.43401232  0.77186913
   0.16723855  0.50415626  0.82506765
   0.06400307  0.56013113  0.92109170
   0.99148346  0.64725196  0.00917982
   0.90834415  0.74862748  0.07815561
   0.85516088  0.84107231  0.15941307
   0.76730548  0.91129992  0.24154677
   0.65826005  0.98125368  0.33226535
   0.58969171  0.07842546  0.39002677
   0.50121732  0.15516607  0.47665261
   0.41262019  0.23703193  0.58258808
   0.41786863  0.26881766  0.75411393
   0.33269328  0.35211421  0.87205433
   0.24242940  0.43454094  0.93154225
   0.16239609  0.50841243  0.01066029
   0.08710392  0.57275969  0.10135652
   0.98606692  0.66950289  0.17228745
   0.92681465  0.75103943  0.25741157
   0.83004421  0.82116020  0.33450819
   0.77664529  0.91574160  0.41103725
   0.67958640  0.00038048  0.49415576
   0.61257050  0.08612635  0.57726775
   0.49528728  0.15522121  0.66611202
   0.48362231  0.17782779  0.85102131
   0.42630554  0.24112855  0.93502704
   0.32218034  0.34371558  0.99941154
   0.25715070  0.44536527  0.10725289
   0.15838460  0.50747042  0.20141265
   0.07751891  0.59526281  0.26170449
   0.99286864  0.66227515  0.34247466
   0.92237022  0.75413428  0.41446180
   0.83654537  0.82034761  0.51337910
   0.74564982  0.91867039  0.58638210
   0.66392816  0.00475732  0.68191647
   0.57979781  0.12430311  0.75976449
   0.59320369  0.08413199  0.91739276
   0.50925598  0.14367130  0.02622981
   0.41464329  0.23601918  0.09640510
   0.35851545  0.32425955  0.17197442
   0.26444103  0.41391607  0.24703701
   0.17777338  0.49932695  0.33893216
   0.08088975  0.59598816  0.40029283
   0.99647176  0.66463158  0.52178575
   0.92159027  0.75996560  0.61608278
   0.84062649  0.84582241  0.66360411
   0.76687912  0.92680434  0.76079785
   0.66502843  0.00331805  0.81877172
   0.64074474  0.01277820  0.99435270
   0.59091277  0.07440372  0.07925847
   0.49825454  0.15099016  0.18582658
   0.41872253  0.25773487  0.26335639
   0.33023126  0.31610286  0.31296764
   0.27329691  0.39977477  0.41259409
   0.18154442  0.52021077  0.47713262
   0.06923814  0.56939370  0.56817264
   0.01408453  0.65605134  0.67394413
   0.92941786  0.76361762  0.75554947
   0.84834588  0.82662959  0.83153420
   0.75059262  0.96070912  0.90257603
   0.75823387  0.93363494  0.09232415
   0.66522046  0.99983300  0.16489875
   0.59938931  0.07939442  0.25956171
   0.50516932  0.16782709  0.32356022
   0.41729896  0.24388423  0.41165962
   0.33831984  0.33314951  0.51259665
   0.23501082  0.44457853  0.57484110
   0.15626171  0.51142853  0.67599918
   0.07688775  0.56076160  0.75212767
   0.01110210  0.66411229  0.83844371
   0.94558069  0.75589284  0.93987069
   0.84382174  0.86620042  0.98380122
   0.41786153  0.41982661  0.58436260
   0.33098657  0.48346848  0.67037360
   0.24626151  0.60265349  0.76304375
   0.15250084  0.65363450  0.83108345
   0.09112493  0.74538107  0.92964754
   0.99518951  0.82654374  0.00372162
   0.92369633  0.91424107  0.06380430
   0.86043537  0.01514848  0.17348988
   0.74535872  0.05553911  0.26494923
   0.67222705  0.16054594  0.33673835
   0.57020102  0.22719334  0.41061549
   0.47559543  0.32810538  0.50605984
   0.51602971  0.31017870  0.64483678
   0.43079753  0.38739747  0.76441591
   0.35178944  0.50160071  0.83515484
   0.25929318  0.56590504  0.91816357
   0.16433495  0.65274367  0.00087141
   0.07001761  0.71504468  0.07842777
   0.99495165  0.83439237  0.15047970
   0.92848839  0.92270928  0.27961034
   0.84649365  0.01179468  0.34079445
   0.74741758  0.07477480  0.40824518
   0.67233934  0.16858934  0.50199943
   0.59121103  0.24216570  0.56385094
   0.56404517  0.23446798  0.73814656
   0.49828037  0.31742647  0.86208701
   0.43803280  0.42388226  0.92356832
   0.33493540  0.49972349  0.98541380
   0.25664227  0.58577503  0.08719573
   0.17393562  0.64277227  0.16096104
   0.07571451  0.74730498  0.24768686
   0.00255863  0.82142631  0.32725720
   0.93295329  0.92454450  0.41172527
   0.84814129  0.00371621  0.48822609
   0.74152707  0.09216902  0.59255128
   0.65687518  0.15650698  0.67846632
   0.65892792  0.18787403  0.82613862
   0.57793933  0.24505349  0.93260813
   0.48009541  0.32429682  0.02602208
   0.40508137  0.43964427  0.09666681
   0.34143304  0.50924708  0.15643066
   0.25763766  0.58082741  0.24120823
   0.17063851  0.65626601  0.34447207
   0.08488777  0.72376677  0.41608094
   0.99209467  0.83726372  0.49860974
   0.90845560  0.92153648  0.58207198
   0.83303350  0.00514475  0.68086704
   0.75366045  0.10245933  0.77138764
   0.72854701  0.09259851  0.91253178
   0.66724066  0.17529275  0.00566663
   0.58962233  0.23938807  0.10218056
   0.49491672  0.33076089  0.14774944
   0.42400120  0.43289928  0.27179669
   0.32538453  0.51916063  0.33935095
   0.25684562  0.59000985  0.41798607
   0.16413283  0.66814146  0.50257775
   0.09463966  0.74162207  0.58745265
   0.01904425  0.84880682  0.66378115
   0.94324592  0.95001492  0.76079503
   0.84040949  0.03097247  0.83922133
   0.85209168  0.01488489  0.00706219
   0.75509287  0.07644750  0.07669679
   0.68764839  0.14205177  0.16794547
   0.57949916  0.23904299  0.21811605
   0.52442537  0.32085790  0.33708571
   0.41443590  0.42249194  0.41518954
   0.32725654  0.49158325  0.50170411
   0.23547811  0.59052696  0.57884692
   0.14746032  0.65460164  0.66840956
   0.06358455  0.74570395  0.74778119
   0.00106907  0.83936448  0.82869898
   0.93084913  0.92463965  0.90607378
