 504 504   0   0
  0.2301818E+02  0.2235821E-08  0.2212889E-08  0.2344795E-08  0.5000000E-15
  1.000000000000000E-004
  CAR 
 Li                                      
      2.94370577     -3.57180932  301      0.09377043      1.00000000
     -3.572  0.0000E+00  0.0000E+00
     -3.550  0.0000E+00  0.0000E+00
     -3.528  0.0000E+00  0.0000E+00
     -3.507  0.0000E+00  0.0000E+00
     -3.485  0.0000E+00  0.0000E+00
     -3.463  0.0000E+00  0.0000E+00
     -3.441  0.5623E-13  0.1221E-14
     -3.420  0.1371E-09  0.2980E-11
     -3.398  0.1197E-06  0.2603E-08
     -3.376  0.3754E-04  0.8178E-06
     -3.355  0.4261E-02  0.9335E-04
     -3.333  0.1768E+00  0.3934E-02
     -3.311  0.2717E+01  0.6294E-01
     -3.289  0.1567E+02  0.4033E+00
     -3.268  0.3434E+02  0.1149E+01
     -3.246  0.2881E+02  0.1775E+01
     -3.224  0.9857E+01  0.1989E+01
     -3.203  0.8738E+01  0.2179E+01
     -3.181  0.3863E+02  0.3018E+01
     -3.159  0.8767E+02  0.4922E+01
     -3.137  0.9103E+02  0.6899E+01
     -3.116  0.4219E+02  0.7815E+01
     -3.094  0.1260E+02  0.8089E+01
     -3.072  0.3010E+02  0.8742E+01
     -3.051  0.8026E+02  0.1049E+02
     -3.029  0.9553E+02  0.1256E+02
     -3.007  0.5302E+02  0.1371E+02
     -2.985  0.2241E+02  0.1420E+02
     -2.964  0.3813E+02  0.1503E+02
     -2.942  0.7908E+02  0.1674E+02
     -2.920  0.1122E+03  0.1918E+02
     -2.899  0.9118E+02  0.2116E+02
     -2.877  0.4254E+02  0.2209E+02
     -2.855  0.5036E+02  0.2318E+02
     -2.833  0.1097E+03  0.2556E+02
     -2.812  0.1549E+03  0.2893E+02
     -2.790  0.1407E+03  0.3198E+02
     -2.768  0.7394E+02  0.3359E+02
     -2.747  0.3015E+02  0.3424E+02
     -2.725  0.4675E+02  0.3526E+02
     -2.703  0.8449E+02  0.3709E+02
     -2.681  0.8637E+02  0.3897E+02
     -2.660  0.5663E+02  0.4020E+02
     -2.638  0.5289E+02  0.4135E+02
     -2.616  0.7633E+02  0.4301E+02
     -2.594  0.1069E+03  0.4533E+02
     -2.573  0.1281E+03  0.4811E+02
     -2.551  0.1275E+03  0.5088E+02
     -2.529  0.1128E+03  0.5333E+02
     -2.508  0.1150E+03  0.5583E+02
     -2.486  0.1389E+03  0.5885E+02
     -2.464  0.1800E+03  0.6275E+02
     -2.442  0.1832E+03  0.6673E+02
     -2.421  0.1250E+03  0.6945E+02
     -2.399  0.7023E+02  0.7097E+02
     -2.377  0.4695E+02  0.7199E+02
     -2.356  0.5412E+02  0.7317E+02
     -2.334  0.7354E+02  0.7476E+02
     -2.312  0.6832E+02  0.7625E+02
     -2.290  0.8053E+02  0.7800E+02
     -2.269  0.1151E+03  0.8050E+02
     -2.247  0.1454E+03  0.8365E+02
     -2.225  0.1571E+03  0.8707E+02
     -2.204  0.1406E+03  0.9012E+02
     -2.182  0.1141E+03  0.9260E+02
     -2.160  0.1106E+03  0.9500E+02
     -2.138  0.1361E+03  0.9796E+02
     -2.117  0.1883E+03  0.1020E+03
     -2.095  0.2155E+03  0.1067E+03
     -2.073  0.1610E+03  0.1102E+03
     -2.052  0.6952E+02  0.1117E+03
     -2.030  0.3378E+02  0.1125E+03
     -2.008  0.7608E+02  0.1141E+03
     -1.986  0.1381E+03  0.1171E+03
     -1.965  0.1521E+03  0.1204E+03
     -1.943  0.1407E+03  0.1235E+03
     -1.921  0.1511E+03  0.1268E+03
     -1.899  0.1648E+03  0.1303E+03
     -1.878  0.1768E+03  0.1342E+03
     -1.856  0.1849E+03  0.1382E+03
     -1.834  0.1526E+03  0.1415E+03
     -1.813  0.1222E+03  0.1442E+03
     -1.791  0.1317E+03  0.1470E+03
     -1.769  0.1562E+03  0.1504E+03
     -1.747  0.1816E+03  0.1544E+03
     -1.726  0.1628E+03  0.1579E+03
     -1.704  0.1120E+03  0.1603E+03
     -1.682  0.9593E+02  0.1624E+03
     -1.661  0.1120E+03  0.1648E+03
     -1.639  0.1192E+03  0.1674E+03
     -1.617  0.1014E+03  0.1696E+03
     -1.595  0.1059E+03  0.1719E+03
     -1.574  0.1458E+03  0.1751E+03
     -1.552  0.1506E+03  0.1784E+03
     -1.530  0.1474E+03  0.1816E+03
     -1.509  0.1749E+03  0.1854E+03
     -1.487  0.1830E+03  0.1893E+03
     -1.465  0.1697E+03  0.1930E+03
     -1.443  0.1735E+03  0.1968E+03
     -1.422  0.2065E+03  0.2013E+03
     -1.400  0.2493E+03  0.2067E+03
     -1.378  0.2494E+03  0.2121E+03
     -1.357  0.2077E+03  0.2166E+03
     -1.335  0.1807E+03  0.2205E+03
     -1.313  0.1740E+03  0.2243E+03
     -1.291  0.1563E+03  0.2277E+03
     -1.270  0.1253E+03  0.2304E+03
     -1.248  0.9850E+02  0.2326E+03
     -1.226  0.1222E+03  0.2352E+03
     -1.205  0.1600E+03  0.2387E+03
     -1.183  0.1627E+03  0.2422E+03
     -1.161  0.1575E+03  0.2457E+03
     -1.139  0.1601E+03  0.2491E+03
     -1.118  0.1758E+03  0.2530E+03
     -1.096  0.2078E+03  0.2575E+03
     -1.074  0.2140E+03  0.2621E+03
     -1.052  0.1890E+03  0.2662E+03
     -1.031  0.1515E+03  0.2695E+03
     -1.009  0.1152E+03  0.2720E+03
     -0.987  0.1319E+03  0.2749E+03
     -0.966  0.1803E+03  0.2788E+03
     -0.944  0.1789E+03  0.2827E+03
     -0.922  0.1579E+03  0.2861E+03
     -0.900  0.1548E+03  0.2895E+03
     -0.879  0.1787E+03  0.2934E+03
     -0.857  0.2214E+03  0.2982E+03
     -0.835  0.2501E+03  0.3036E+03
     -0.814  0.2483E+03  0.3090E+03
     -0.792  0.2217E+03  0.3138E+03
     -0.770  0.2055E+03  0.3183E+03
     -0.748  0.2218E+03  0.3231E+03
     -0.727  0.2470E+03  0.3284E+03
     -0.705  0.2466E+03  0.3338E+03
     -0.683  0.2130E+03  0.3384E+03
     -0.662  0.1548E+03  0.3418E+03
     -0.640  0.1400E+03  0.3448E+03
     -0.618  0.1779E+03  0.3487E+03
     -0.596  0.1908E+03  0.3528E+03
     -0.575  0.1631E+03  0.3564E+03
     -0.553  0.1536E+03  0.3597E+03
     -0.531  0.1836E+03  0.3637E+03
     -0.510  0.2083E+03  0.3682E+03
     -0.488  0.2057E+03  0.3727E+03
     -0.466  0.1943E+03  0.3769E+03
     -0.444  0.1970E+03  0.3812E+03
     -0.423  0.2081E+03  0.3857E+03
     -0.401  0.2244E+03  0.3906E+03
     -0.379  0.2539E+03  0.3961E+03
     -0.357  0.2870E+03  0.4023E+03
     -0.336  0.2913E+03  0.4087E+03
     -0.314  0.2608E+03  0.4143E+03
     -0.292  0.2181E+03  0.4191E+03
     -0.271  0.1853E+03  0.4231E+03
     -0.249  0.1938E+03  0.4273E+03
     -0.227  0.2178E+03  0.4320E+03
     -0.205  0.2220E+03  0.4369E+03
     -0.184  0.2292E+03  0.4418E+03
     -0.162  0.2252E+03  0.4467E+03
     -0.140  0.2092E+03  0.4513E+03
     -0.119  0.2030E+03  0.4557E+03
     -0.097  0.1949E+03  0.4599E+03
     -0.075  0.1792E+03  0.4638E+03
     -0.053  0.1860E+03  0.4678E+03
     -0.032  0.1971E+03  0.4721E+03
     -0.010  0.1960E+03  0.4764E+03
      0.012  0.2079E+03  0.4809E+03
      0.033  0.2394E+03  0.4861E+03
      0.055  0.2754E+03  0.4921E+03
      0.077  0.3009E+03  0.4986E+03
      0.099  0.3210E+03  0.5056E+03
      0.120  0.3260E+03  0.5127E+03
      0.142  0.3131E+03  0.5195E+03
      0.164  0.3104E+03  0.5262E+03
      0.185  0.3190E+03  0.5331E+03
      0.207  0.3219E+03  0.5401E+03
      0.229  0.3135E+03  0.5469E+03
      0.251  0.2920E+03  0.5533E+03
      0.272  0.2710E+03  0.5592E+03
      0.294  0.2574E+03  0.5647E+03
      0.316  0.2591E+03  0.5704E+03
      0.337  0.2760E+03  0.5764E+03
      0.359  0.2730E+03  0.5823E+03
      0.381  0.2320E+03  0.5873E+03
      0.403  0.1898E+03  0.5915E+03
      0.424  0.1908E+03  0.5956E+03
      0.446  0.2195E+03  0.6004E+03
      0.468  0.2451E+03  0.6057E+03
      0.490  0.2385E+03  0.6109E+03
      0.511  0.2092E+03  0.6154E+03
      0.533  0.1978E+03  0.6197E+03
      0.555  0.2047E+03  0.6242E+03
      0.576  0.1983E+03  0.6285E+03
      0.598  0.1792E+03  0.6324E+03
      0.620  0.1918E+03  0.6365E+03
      0.642  0.2372E+03  0.6417E+03
      0.663  0.2783E+03  0.6477E+03
      0.685  0.2990E+03  0.6542E+03
      0.707  0.2965E+03  0.6607E+03
      0.728  0.2828E+03  0.6668E+03
      0.750  0.2745E+03  0.6728E+03
      0.772  0.2642E+03  0.6785E+03
      0.794  0.2469E+03  0.6839E+03
      0.815  0.2378E+03  0.6890E+03
      0.837  0.2385E+03  0.6942E+03
      0.859  0.2348E+03  0.6993E+03
      0.880  0.2371E+03  0.7045E+03
      0.902  0.2452E+03  0.7098E+03
      0.924  0.2507E+03  0.7152E+03
      0.946  0.2581E+03  0.7208E+03
      0.967  0.2610E+03  0.7265E+03
      0.989  0.2324E+03  0.7315E+03
      1.011  0.1963E+03  0.7358E+03
      1.032  0.1894E+03  0.7399E+03
      1.054  0.1997E+03  0.7443E+03
      1.076  0.2186E+03  0.7490E+03
      1.098  0.2380E+03  0.7542E+03
      1.119  0.2440E+03  0.7595E+03
      1.141  0.2387E+03  0.7647E+03
      1.163  0.2400E+03  0.7699E+03
      1.185  0.2482E+03  0.7753E+03
      1.206  0.2536E+03  0.7808E+03
      1.228  0.2462E+03  0.7861E+03
      1.250  0.2403E+03  0.7913E+03
      1.271  0.2407E+03  0.7966E+03
      1.293  0.2416E+03  0.8018E+03
      1.315  0.2451E+03  0.8071E+03
      1.337  0.2529E+03  0.8126E+03
      1.358  0.2635E+03  0.8184E+03
      1.380  0.2707E+03  0.8242E+03
      1.402  0.2693E+03  0.8301E+03
      1.423  0.2580E+03  0.8357E+03
      1.445  0.2343E+03  0.8408E+03
      1.467  0.2127E+03  0.8454E+03
      1.489  0.2055E+03  0.8499E+03
      1.510  0.2008E+03  0.8542E+03
      1.532  0.2043E+03  0.8587E+03
      1.554  0.2153E+03  0.8633E+03
      1.575  0.2152E+03  0.8680E+03
      1.597  0.2159E+03  0.8727E+03
      1.619  0.2218E+03  0.8775E+03
      1.641  0.2204E+03  0.8823E+03
      1.662  0.2104E+03  0.8869E+03
      1.684  0.1975E+03  0.8912E+03
      1.706  0.1924E+03  0.8953E+03
      1.727  0.1839E+03  0.8993E+03
      1.749  0.1650E+03  0.9029E+03
      1.771  0.1494E+03  0.9062E+03
      1.793  0.1471E+03  0.9093E+03
      1.814  0.1579E+03  0.9128E+03
      1.836  0.1618E+03  0.9163E+03
      1.858  0.1454E+03  0.9194E+03
      1.880  0.1449E+03  0.9226E+03
      1.901  0.1663E+03  0.9262E+03
      1.923  0.1788E+03  0.9301E+03
      1.945  0.1612E+03  0.9336E+03
      1.966  0.1361E+03  0.9365E+03
      1.988  0.1403E+03  0.9396E+03
      2.010  0.1546E+03  0.9430E+03
      2.032  0.1574E+03  0.9464E+03
      2.053  0.1551E+03  0.9497E+03
      2.075  0.1507E+03  0.9530E+03
      2.097  0.1533E+03  0.9563E+03
      2.118  0.1571E+03  0.9598E+03
      2.140  0.1548E+03  0.9631E+03
      2.162  0.1557E+03  0.9665E+03
      2.184  0.1578E+03  0.9699E+03
      2.205  0.1488E+03  0.9732E+03
      2.227  0.1296E+03  0.9760E+03
      2.249  0.1215E+03  0.9786E+03
      2.270  0.1296E+03  0.9814E+03
      2.292  0.1314E+03  0.9843E+03
      2.314  0.1176E+03  0.9868E+03
      2.336  0.1148E+03  0.9893E+03
      2.357  0.1301E+03  0.9922E+03
      2.379  0.1352E+03  0.9951E+03
      2.401  0.1205E+03  0.9977E+03
      2.422  0.1019E+03  0.9999E+03
      2.444  0.9075E+02  0.1002E+04
      2.466  0.7669E+02  0.1004E+04
      2.488  0.5226E+02  0.1005E+04
      2.509  0.3524E+02  0.1005E+04
      2.531  0.3098E+02  0.1006E+04
      2.553  0.3202E+02  0.1007E+04
      2.574  0.2995E+02  0.1007E+04
      2.596  0.2104E+02  0.1008E+04
      2.618  0.2105E+02  0.1008E+04
      2.640  0.3286E+02  0.1009E+04
      2.661  0.2879E+02  0.1010E+04
      2.683  0.1074E+02  0.1010E+04
      2.705  0.1609E+01  0.1010E+04
      2.727  0.9362E-01  0.1010E+04
      2.748  0.2062E-02  0.1010E+04
      2.770  0.1685E-04  0.1010E+04
      2.792  0.5043E-07  0.1010E+04
      2.813  0.5471E-10  0.1010E+04
      2.835  0.2045E-13  0.1010E+04
      2.857  0.0000E+00  0.1010E+04
      2.879  0.0000E+00  0.1010E+04
      2.900  0.0000E+00  0.1010E+04
      2.922  0.0000E+00  0.1010E+04
      2.944  0.0000E+00  0.1010E+04
