 running on   64 total cores
 distrk:  each k-point on   32 cores,    2 groups
 distr:  one band on   32 cores,    1 groups
 vasp.6.2.1 16May21 (build Nov 23 2021 15:40:41) complex                        
  
 POSCAR found type information on POSCAR Li
 POSCAR found :  1 types and     504 ions
 scaLAPACK will be used
 -----------------------------------------------------------------------------
|                                                                             |
|           W    W    AA    RRRRR   N    N  II  N    N   GGGG   !!!           |
|           W    W   A  A   R    R  NN   N  II  NN   N  G    G  !!!           |
|           W    W  A    A  R    R  N N  N  II  N N  N  G       !!!           |
|           W WW W  AAAAAA  RRRRR   N  N N  II  N  N N  G  GGG   !            |
|           WW  WW  A    A  R   R   N   NN  II  N   NN  G    G                |
|           W    W  A    A  R    R  N    N  II  N    N   GGGG   !!!           |
|                                                                             |
|     For optimal performance we recommend to set                             |
|       NCORE = 2 up to number-of-cores-per-socket                            |
|     NCORE specifies how many cores store one orbital (NPAR=cpu/NCORE).      |
|     This setting can greatly improve the performance of VASP for DFT.       |
|     The default, NCORE=1 might be grossly inefficient on modern             |
|     multi-core architectures or massively parallel machines. Do your        |
|     own testing! More info at https://www.vasp.at/wiki/index.php/NCORE      |
|     Unfortunately you need to use the default for GW and RPA                |
|     calculations (for HF NCORE is supported but not extensively tested      |
|     yet).                                                                   |
|                                                                             |
 -----------------------------------------------------------------------------

 -----------------------------------------------------------------------------
|                                                                             |
|               ----> ADVICE to this user running VASP <----                  |
|                                                                             |
|     You have a (more or less) 'large supercell' and for larger cells it     |
|     might be more efficient to use real-space projection operators.         |
|     Therefore, try LREAL= Auto in the INCAR file.                           |
|     Mind: If you want to do very accurate calculations, keep the            |
|     reciprocal projection scheme (i.e. LREAL=.FALSE.).                      |
|                                                                             |
 -----------------------------------------------------------------------------

 LDA part: xc-table for Pade appr. of Perdew
 POSCAR found type information on POSCAR Li
 POSCAR found :  1 types and     504 ions
 POSCAR, INCAR and KPOINTS ok, starting setup
 FFT: planning ...
 WAVECAR not read
 entering main loop
       N       E                     dE             d eps       ncg     rms          rms(c)
DAV:   1    -0.346549539236E+03   -0.34655E+03   -0.11789E+05  4040   0.644E+02
DAV:   2    -0.900091244465E+03   -0.55354E+03   -0.50772E+03  4636   0.634E+01
DAV:   3    -0.939509172232E+03   -0.39418E+02   -0.35951E+02  5160   0.134E+01
DAV:   4    -0.940909983539E+03   -0.14008E+01   -0.13766E+01  4648   0.273E+00
DAV:   5    -0.940941336644E+03   -0.31353E-01   -0.31293E-01  4840   0.442E-01    0.623E+00
DAV:   6    -0.937719102981E+03    0.32222E+01   -0.43932E+00  4552   0.231E+00    0.419E+00
DAV:   7    -0.937636398811E+03    0.82704E-01   -0.34203E+00  4576   0.250E+00    0.390E+00
DAV:   8    -0.935851322658E+03    0.17851E+01   -0.24778E+00  4576   0.177E+00    0.222E+00
DAV:   9    -0.935538467610E+03    0.31286E+00   -0.12602E+00  4552   0.108E+00    0.143E+00
DAV:  10    -0.935384590517E+03    0.15388E+00   -0.61503E-01  4576   0.773E-01    0.918E-01
DAV:  11    -0.935338078898E+03    0.46512E-01   -0.21244E-01  4368   0.386E-01    0.490E-01
DAV:  12    -0.935352258804E+03   -0.14180E-01   -0.47577E-02  4680   0.245E-01    0.455E-01
DAV:  13    -0.935329851831E+03    0.22407E-01   -0.28386E-02  4648   0.198E-01    0.224E-01
DAV:  14    -0.935330360688E+03   -0.50886E-03   -0.86782E-03  4680   0.113E-01    0.170E-01
DAV:  15    -0.935327730951E+03    0.26297E-02   -0.53931E-03  4672   0.900E-02    0.962E-02
DAV:  16    -0.935326854824E+03    0.87613E-03   -0.20168E-03  4504   0.474E-02    0.468E-02
DAV:  17    -0.935326929793E+03   -0.74969E-04   -0.56906E-04  4576   0.285E-02    0.426E-02
DAV:  18    -0.935326699247E+03    0.23055E-03   -0.32630E-04  4512   0.213E-02    0.196E-02
DAV:  19    -0.935326667172E+03    0.32075E-04   -0.11863E-04  4408   0.104E-02    0.102E-02
DAV:  20    -0.935326659098E+03    0.80741E-05   -0.42169E-05  4280   0.600E-03
   1 F= -.93532666E+03 E0= -.93525337E+03  d E =-.146576E+00
