Li                                      
           1
   -11.179105   19.362778   -0.000000
   -19.164180  -11.064444   -0.000000
     0.000000   -0.000000   23.447950
   Li
   504
Direct configuration=     1
   0.99853035  0.00083464  0.98580225
   0.92901265  0.04560216  0.64230591
   0.86142499  0.09583342  0.33636289
   0.78388403  0.12647640  0.01266359
   0.71681898  0.16569966  0.68988234
   0.63989224  0.21152884  0.36119708
   0.57076688  0.25163121  0.01719497
   0.49478821  0.29014447  0.68000829
   0.42679523  0.33310442  0.33368078
   0.35159202  0.37976957  0.01204241
   0.28469292  0.42157602  0.68319522
   0.20574563  0.46280968  0.34586860
   0.07470953  0.04180251  0.65660997
   0.00528664  0.08849684  0.31790510
   0.93613978  0.12278968  0.99729972
   0.85214213  0.16542158  0.67718348
   0.78492062  0.22316283  0.34487791
   0.71432098  0.25342268  0.03493979
   0.64803422  0.29216086  0.67395092
   0.56998809  0.33483356  0.34998667
   0.49886847  0.37562807  0.01385854
   0.43418087  0.41777921  0.66929624
   0.35356274  0.44508363  0.34078559
   0.28278040  0.50108354  0.00023879
   0.14196330  0.07698742  0.32853857
   0.07401328  0.12186029  0.98004821
   0.01203584  0.16967521  0.67483259
   0.93053876  0.22443551  0.33827728
   0.87111725  0.25133144  0.00465498
   0.78791527  0.28167943  0.67688307
   0.71640620  0.33909594  0.34709595
   0.64177565  0.37472587  0.00758822
   0.57509411  0.41728320  0.68049405
   0.49696321  0.44960416  0.33746512
   0.43566920  0.50178267  0.99962900
   0.36638628  0.55324076  0.67110744
   0.21504988  0.12159022  0.99254270
   0.14540506  0.16541531  0.66126287
   0.07111645  0.21641263  0.32376138
   0.01243503  0.25517324  0.00260753
   0.93031737  0.28489781  0.66338522
   0.85482039  0.34531243  0.34017795
   0.78735402  0.37954203  0.01749471
   0.72215486  0.41483728  0.66784290
   0.64017211  0.45856499  0.35352646
   0.57220128  0.49468090  0.00289511
   0.50351829  0.54437629  0.67017566
   0.42722393  0.57751021  0.33200157
   0.28854463  0.15492547  0.66002652
   0.21231771  0.20807454  0.31662258
   0.14343997  0.25068887  0.99001040
   0.07657951  0.28922045  0.66158992
   0.99700055  0.35190968  0.33054828
   0.93049232  0.38264095  0.00227217
   0.85798596  0.40580561  0.65714233
   0.79102898  0.46666465  0.33129135
   0.70649441  0.49563531  0.99972378
   0.64712770  0.53900735  0.65855569
   0.57471523  0.57843128  0.33424263
   0.50091241  0.62687769  0.01771088
   0.35440339  0.20611284  0.34815121
   0.27155674  0.24761465  0.99986627
   0.21521940  0.29233260  0.66941719
   0.14270195  0.33471259  0.33823541
   0.07665313  0.37575962  0.01359176
   0.01348232  0.41126817  0.66443986
   0.92482152  0.46856974  0.31679466
   0.85702103  0.50524809  0.99627890
   0.79032689  0.54347445  0.66334064
   0.71624133  0.57697359  0.32632243
   0.64051177  0.62061409  0.00728669
   0.57229184  0.67626508  0.65769946
   0.42861452  0.25576235  0.00949750
   0.35069304  0.28761469  0.68261751
   0.27880972  0.32738034  0.34906827
   0.20988052  0.37778282  0.02260024
   0.14709279  0.41292056  0.66172165
   0.06267767  0.45157265  0.33739023
   0.99993225  0.49901788  0.00065379
   0.92810049  0.54261193  0.67066317
   0.86650012  0.58295338  0.33388775
   0.78009161  0.62138120  0.00068815
   0.72638028  0.66555392  0.65219990
   0.64557188  0.70551064  0.32027860
   0.14478799  0.50032859  0.99902786
   0.07267278  0.54256161  0.66151927
   0.00357164  0.59028908  0.32195448
   0.92184265  0.62404858  0.98238686
   0.86166819  0.66753399  0.67655667
   0.78271875  0.71172535  0.31816812
   0.70445576  0.74320061  0.00222531
   0.22102780  0.55280685  0.68932985
   0.14342410  0.58144727  0.34786725
   0.07996206  0.62872476  0.99777190
   0.00067969  0.66493792  0.66481872
   0.92960409  0.70828437  0.32358058
   0.85101009  0.74529639  0.98487093
   0.79059923  0.79657216  0.66031209
   0.28299301  0.57209888  0.33706134
   0.22544327  0.62444473  0.00193869
   0.14355203  0.66800641  0.66839276
   0.06488570  0.70923180  0.31532954
   0.99896903  0.75226697  0.98723973
   0.93377211  0.79591425  0.65594812
   0.86132961  0.84335342  0.32134814
   0.35900431  0.62653892  0.99874849
   0.28517250  0.66711349  0.66566669
   0.21031484  0.69607119  0.32779741
   0.14658942  0.75042365  0.00530115
   0.07272365  0.79802384  0.65848250
   0.99647910  0.82884560  0.32551450
   0.92331636  0.87098756  0.98819297
   0.42830491  0.66262304  0.66717814
   0.36163272  0.70851331  0.32566424
   0.28812604  0.74637741  0.00198904
   0.20900760  0.80631805  0.67058259
   0.13733649  0.82869258  0.31523987
   0.06769496  0.87635072  0.98676074
   0.00705306  0.91477206  0.65890484
   0.93382568  0.96079765  0.32462592
   0.86622287  0.00236651  0.99495303
   0.77416111  0.04586590  0.66306434
   0.71849564  0.08302685  0.33973974
   0.64026352  0.12518464  0.01085359
   0.56857965  0.16368880  0.68395488
   0.49501628  0.21400784  0.33335997
   0.06960234  0.95502646  0.31595724
   0.15110077  0.00220381  0.98791388
   0.21174628  0.03007624  0.64278743
   0.28417630  0.08352105  0.32350184
   0.34904916  0.12895041  0.00704888
   0.41996914  0.16244674  0.68525076
   0.86091038  0.92019892  0.66253975
   0.79411528  0.95643523  0.32632508
   0.71263442  0.99900265  0.99909465
   0.64397687  0.03280479  0.67637804
   0.56007874  0.07460827  0.34132768
   0.49591557  0.13038774  0.01309127
   0.14182383  0.91889678  0.65068795
   0.21498069  0.95112414  0.31272650
   0.28242890  0.99805861  0.98392034
   0.35613900  0.03268577  0.67734135
   0.42563749  0.08151177  0.33597052
   0.77633572  0.87383030  0.99133568
   0.71775371  0.91583709  0.67531485
   0.65022844  0.95283514  0.33714695
   0.57496770  0.99810736  0.01142442
   0.49462807  0.03149407  0.66745263
   0.21624194  0.87189866  0.99345532
   0.28209271  0.91679155  0.66753742
   0.36087207  0.95205025  0.33194071
   0.42702845  0.00174648  0.99396242
   0.72494491  0.83478522  0.32797729
   0.64492807  0.87147528  0.00707003
   0.57225217  0.91184622  0.65979050
   0.51262718  0.94750135  0.34341340
   0.28121624  0.82442344  0.32358143
   0.35195692  0.87447811  0.99335145
   0.42448806  0.91531400  0.67195138
   0.65453399  0.79785475  0.65964434
   0.58341776  0.81803772  0.33046885
   0.50301030  0.87828823  0.00345191
   0.35288295  0.78955273  0.67178224
   0.43365738  0.82580806  0.33772048
   0.56969754  0.74608462  0.99303347
   0.50204728  0.79327401  0.65696028
   0.43560041  0.75488425  0.99359856
   0.49473839  0.69955761  0.31771350
   0.99574817  0.00324836  0.76481146
   0.92716630  0.03459410  0.44569394
   0.87181621  0.09378909  0.12547380
   0.77207038  0.11970910  0.79690508
   0.70901807  0.16874167  0.46221958
   0.63738078  0.21170728  0.12716996
   0.56349603  0.24102143  0.79826015
   0.49521093  0.28453562  0.44680317
   0.42865085  0.34307038  0.12479232
   0.34953516  0.37124978  0.79740405
   0.29489136  0.41616673  0.45072331
   0.21208761  0.46566866  0.10901353
   0.06779683  0.04355397  0.44513196
   0.01866301  0.09222072  0.09131487
   0.91940748  0.12336034  0.77459388
   0.85350871  0.15685778  0.46149716
   0.77584606  0.20232260  0.12207827
   0.71356351  0.24390762  0.79449126
   0.63459338  0.29856833  0.45077063
   0.56636656  0.34284655  0.12754477
   0.50775721  0.37419790  0.77267010
   0.42736919  0.40476791  0.43518489
   0.35162095  0.46279391  0.12507618
   0.28025766  0.50344432  0.77233880
   0.15379449  0.07983663  0.09388069
   0.06654050  0.13200369  0.77388186
   0.99834750  0.16917334  0.44867272
   0.94533934  0.22023200  0.09584947
   0.85367379  0.25192331  0.78891720
   0.79627391  0.28627088  0.45782693
   0.71390440  0.32780931  0.12095962
   0.64310785  0.37837074  0.77988791
   0.56728663  0.41318223  0.45665581
   0.49384498  0.45985648  0.11152188
   0.43421782  0.50541912  0.76834440
   0.35952234  0.54726689  0.44867844
   0.19961238  0.12044486  0.77646094
   0.13615157  0.16710507  0.43680597
   0.08189344  0.21560395  0.10612870
   0.98495355  0.26598455  0.78158140
   0.94410888  0.29036502  0.43710593
   0.85791919  0.33224316  0.11221347
   0.77731741  0.37368108  0.77114912
   0.73285721  0.41984358  0.44152173
   0.63295401  0.45440041  0.11398587
   0.56616217  0.51345482  0.77536503
   0.49389139  0.54284708  0.44628152
   0.41925575  0.57094350  0.10840420
   0.28851086  0.16277384  0.43911098
   0.22311907  0.20685586  0.10884372
   0.13374840  0.24759865  0.78460304
   0.07659304  0.28513321  0.44091832
   0.00157153  0.35098361  0.11593245
   0.92937717  0.36936304  0.76492577
   0.87994355  0.41824577  0.44856473
   0.78899468  0.45522356  0.11876501
   0.71050482  0.50227456  0.77112413
   0.64664209  0.53637904  0.45212666
   0.55297861  0.58423360  0.11294049
   0.50403681  0.63322503  0.78215902
   0.35750633  0.20001347  0.11105107
   0.27416353  0.25276720  0.78264292
   0.22684011  0.28942345  0.44652279
   0.15637462  0.33400640  0.11497607
   0.07538501  0.38829593  0.76187141
   0.01972400  0.42348386  0.43951410
   0.92410045  0.46136193  0.09894530
   0.85456080  0.49385673  0.76837661
   0.78919468  0.53833084  0.44251177
   0.69828564  0.57660308  0.11330214
   0.63782211  0.63166131  0.77540228
   0.57536754  0.66127782  0.44722562
   0.41832024  0.25714337  0.79246954
   0.35604201  0.28755023  0.44328947
   0.29191350  0.33755594  0.12499531
   0.20283075  0.38109799  0.78762223
   0.14741183  0.41655838  0.44908653
   0.07080729  0.45359988  0.11096980
   0.99296056  0.51073714  0.77674108
   0.93532624  0.54892034  0.44225070
   0.84718879  0.57390594  0.10324805
   0.77827788  0.62566421  0.77022653
   0.70958798  0.68007868  0.43495837
   0.63048168  0.70934325  0.10547365
   0.13498914  0.50044969  0.78500024
   0.06943003  0.55050975  0.45529918
   0.99379662  0.59252629  0.09416278
   0.93228551  0.62151307  0.78151049
   0.85509050  0.67132702  0.44193870
   0.78247242  0.70416100  0.10803975
   0.71023321  0.75416884  0.78121782
   0.22378740  0.53502086  0.45660878
   0.14722418  0.58137242  0.11139812
   0.07768668  0.63073937  0.78021352
   0.01104408  0.68195881  0.44433771
   0.92188143  0.70950292  0.10095865
   0.85700163  0.74043396  0.77776181
   0.79157876  0.78440062  0.42838756
   0.28864684  0.58105800  0.11120158
   0.21834729  0.62942991  0.77381689
   0.15281510  0.67741397  0.44187502
   0.07061334  0.71881880  0.10010983
   0.00204138  0.75305545  0.76934256
   0.93576115  0.79832053  0.44727439
   0.85746471  0.82911778  0.09207813
   0.34705466  0.62733313  0.76913190
   0.28444149  0.67328488  0.43709424
   0.20127041  0.72314093  0.09721853
   0.14059738  0.75892621  0.78145685
   0.07053700  0.79136592  0.42901159
   0.00356535  0.84353051  0.10643230
   0.91181138  0.86946576  0.77339186
   0.42521148  0.66464135  0.43231371
   0.33952790  0.71511963  0.11378076
   0.28309969  0.74858040  0.78743355
   0.21963925  0.79675260  0.43675598
   0.14690302  0.85097778  0.09668140
   0.08003278  0.87345171  0.76523754
   0.00922147  0.91662365  0.43919817
   0.93211624  0.96485758  0.10841022
   0.85190560  0.98834303  0.76520691
   0.78569416  0.03232852  0.45833303
   0.70797571  0.08774118  0.12630895
   0.63318095  0.12956501  0.79141279
   0.56736525  0.16505459  0.44741938
   0.48541024  0.20445076  0.10470878
   0.07545152  0.98135571  0.10681502
   0.14200945  0.00322277  0.75680578
   0.21585227  0.03881219  0.42753547
   0.28662103  0.08602339  0.11469434
   0.35438917  0.13830478  0.79256848
   0.42888062  0.16165728  0.44931449
   0.85251333  0.91182437  0.43082231
   0.76962276  0.96949648  0.10101749
   0.71440245  0.99590305  0.78151283
   0.64244736  0.04106113  0.45227697
   0.56963065  0.08723648  0.11808033
   0.49345987  0.11619723  0.80203725
   0.15928383  0.92539094  0.42822467
   0.21735449  0.95118398  0.10079179
   0.27174206  0.00591584  0.77999901
   0.36681851  0.03998363  0.45110055
   0.41960206  0.06943487  0.11707051
   0.77253761  0.87331935  0.77396365
   0.71636536  0.91122021  0.45171050
   0.64274779  0.95787184  0.10324963
   0.58922643  0.98372683  0.78629633
   0.50565934  0.04735075  0.46006388
   0.20116107  0.87844314  0.77389332
   0.29629673  0.91079463  0.45692875
   0.36017963  0.94737725  0.10656926
   0.43861808  0.01253470  0.78795920
   0.71077419  0.83450846  0.10347002
   0.65605923  0.87159178  0.77537044
   0.57677388  0.92177771  0.45041795
   0.50321705  0.95929239  0.11052863
   0.27562037  0.83897118  0.10475441
   0.36182260  0.88388128  0.77845110
   0.44636263  0.91227276  0.43977748
   0.64373227  0.79309080  0.43352100
   0.56962638  0.82965810  0.10270257
   0.51272785  0.87240962  0.78067823
   0.36131818  0.80212821  0.44928683
   0.41850274  0.82421423  0.11039167
   0.57196832  0.75097686  0.76800173
   0.50357866  0.78651072  0.44077065
   0.42945904  0.74164399  0.77808344
   0.47951808  0.72060660  0.12491982
   0.99302299  0.99894995  0.21016051
   0.92525740  0.04037684  0.88565745
   0.85472417  0.07553698  0.56125392
   0.77781288  0.11318602  0.23230574
   0.70727726  0.16759972  0.90439280
   0.62908448  0.21218403  0.56169078
   0.56206662  0.25059465  0.24108764
   0.48912271  0.29254037  0.90616232
   0.43968217  0.33481877  0.56786347
   0.35635569  0.37751031  0.23722464
   0.27147676  0.41009061  0.90184771
   0.22208756  0.45193580  0.57755508
   0.08117978  0.04810685  0.87956044
   0.00322380  0.08244552  0.54216352
   0.92619978  0.12410760  0.22033097
   0.84511665  0.16152885  0.89670855
   0.77767293  0.20497001  0.57483936
   0.71384615  0.24202408  0.24633552
   0.65318050  0.29622968  0.89033664
   0.57567267  0.32473054  0.55914597
   0.49812087  0.38073348  0.22195174
   0.42253273  0.41514502  0.88957451
   0.37096243  0.46322352  0.55977396
   0.28136864  0.49371220  0.23141049
   0.14918975  0.09549287  0.54939850
   0.07973269  0.12601296  0.21596506
   0.98021843  0.16214135  0.88447136
   0.92475225  0.21068616  0.57353852
   0.85439453  0.23665398  0.22621466
   0.78028702  0.29422381  0.90624534
   0.72194209  0.32641505  0.57201646
   0.65438881  0.36453726  0.23066606
   0.56214707  0.40472265  0.88157440
   0.49816461  0.46024844  0.57238705
   0.43500804  0.50393957  0.22831267
   0.35348993  0.53169819  0.88295490
   0.21132411  0.11615161  0.21436301
   0.13756862  0.16509554  0.88298540
   0.07307624  0.20693794  0.55838006
   0.99723066  0.24247478  0.22278928
   0.91750358  0.29896809  0.88843221
   0.85954463  0.32805929  0.55567441
   0.78134816  0.36273530  0.22883528
   0.71576120  0.41879283  0.88446788
   0.65535078  0.45690301  0.56836824
   0.57288253  0.50208958  0.22433222
   0.49979199  0.54986365  0.89995213
   0.43224027  0.58806037  0.56123006
   0.28208028  0.16798284  0.87921279
   0.22090152  0.21978158  0.54226508
   0.14614691  0.24947675  0.21375781
   0.05854685  0.28720040  0.88719391
   0.99930031  0.33278424  0.55368947
   0.91868151  0.37252559  0.22021295
   0.85646367  0.41813502  0.87770516
   0.79157250  0.44461453  0.55999199
   0.72405378  0.49696909  0.23818790
   0.63074585  0.53112513  0.89065642
   0.58319312  0.59091296  0.55366749
   0.49480068  0.63262983  0.22300885
   0.36628569  0.21265365  0.56670775
   0.27931642  0.25175399  0.22927717
   0.20575504  0.29429383  0.89755668
   0.15089719  0.33769239  0.55602672
   0.07761802  0.37188623  0.21130719
   0.00347114  0.42569478  0.86608847
   0.92608229  0.47005539  0.55916703
   0.85708223  0.48884162  0.21804942
   0.78578217  0.53196113  0.87819691
   0.73843027  0.57268337  0.54917551
   0.64213717  0.61928418  0.22713965
   0.57680013  0.67108406  0.88095393
   0.42906713  0.25345714  0.23002145
   0.35020714  0.29058760  0.89046617
   0.29146712  0.33430123  0.56399248
   0.21479324  0.37086061  0.23153060
   0.13415853  0.41464636  0.89514092
   0.08219248  0.45539794  0.54622728
   0.00973153  0.49247032  0.21231318
   0.92502481  0.54349977  0.88804465
   0.86063370  0.57542577  0.55312340
   0.78687742  0.61907184  0.21747455
   0.71952649  0.66002884  0.87552977
   0.65586752  0.69970076  0.55443460
   0.14847328  0.49403498  0.22823335
   0.07960524  0.53877743  0.89216693
   0.99472619  0.59346179  0.56061304
   0.93215690  0.61339058  0.21118801
   0.84345508  0.66463706  0.88085365
   0.80528662  0.70427803  0.54804155
   0.71015784  0.75001303  0.20837727
   0.20795594  0.54759058  0.89222238
   0.14531892  0.58135502  0.55777322
   0.07324755  0.62362806  0.20618862
   0.98885200  0.67418829  0.87724030
   0.92220723  0.70134750  0.54867490
   0.85394828  0.73906961  0.20991715
   0.78027124  0.78758412  0.89482967
   0.28966996  0.59618024  0.55606490
   0.21883459  0.61659199  0.21846072
   0.13904844  0.66123467  0.88688340
   0.06640228  0.70731070  0.52480200
   0.99133068  0.75009211  0.21880801
   0.92919810  0.79891255  0.88173930
   0.85029670  0.83760035  0.55509991
   0.35691983  0.62331838  0.22259183
   0.28968454  0.65758924  0.89438031
   0.22027231  0.70761787  0.56116167
   0.14580454  0.75458376  0.20458948
   0.07078621  0.78630184  0.88152157
   0.00874396  0.83574859  0.54916869
   0.92647942  0.87006496  0.21905123
   0.42714753  0.66761541  0.89269487
   0.35771565  0.70542581  0.55629861
   0.28418134  0.76264329  0.21912516
   0.20643187  0.78311244  0.89237649
   0.15175010  0.83493583  0.54424790
   0.07006467  0.87336234  0.20604918
   0.99743596  0.91573582  0.87367812
   0.93411971  0.94930457  0.54438330
   0.84322745  0.99074496  0.22218047
   0.78055514  0.04018497  0.90090144
   0.71385730  0.09564547  0.56085838
   0.63905337  0.12431141  0.24637896
   0.57150739  0.17238872  0.90128435
   0.51019658  0.19638150  0.56802073
   0.08252920  0.95894492  0.54309531
   0.14313381  0.00583039  0.21022858
   0.21341882  0.02896015  0.87773714
   0.29128785  0.08255953  0.54208081
   0.36335504  0.14179822  0.23726316
   0.42752272  0.15417502  0.90252276
   0.85230697  0.92937425  0.88440338
   0.77898996  0.96982954  0.54619745
   0.71281427  0.99303490  0.22658717
   0.64151030  0.04287276  0.88885122
   0.56995664  0.08417611  0.56308022
   0.50274797  0.12928066  0.23440762
   0.13482220  0.91727272  0.86993877
   0.21508389  0.96250969  0.53638331
   0.28298542  0.99679081  0.20007406
   0.35254823  0.03786620  0.88790123
   0.45202420  0.08453095  0.56872143
   0.77983926  0.86539512  0.20668979
   0.70932920  0.92079319  0.89440225
   0.65782570  0.96491278  0.55839982
   0.55704660  0.00332011  0.23278250
   0.51148039  0.04086656  0.88749093
   0.20061913  0.87411616  0.20769647
   0.30077730  0.90535393  0.88466765
   0.37700828  0.96348156  0.54447948
   0.41660002  0.00964480  0.22082192
   0.72430124  0.83241301  0.54942963
   0.62260920  0.87863255  0.20734264
   0.57653531  0.91743440  0.89166926
   0.51257656  0.96643318  0.56775865
   0.29258087  0.83655327  0.57328511
   0.34786290  0.87391973  0.22038413
   0.43447150  0.91793840  0.88932850
   0.64019638  0.79144342  0.88764246
   0.57137746  0.84479456  0.55664392
   0.49753308  0.87014269  0.22782395
   0.35094820  0.78267823  0.89267197
   0.43445731  0.84262610  0.55492697
   0.56888964  0.74440748  0.20585571
   0.48498209  0.78899384  0.87542532
   0.41443157  0.74835023  0.22474059
   0.50282795  0.70351096  0.55801138
