Li                                      
           1
   -10.527895   18.234849   -0.000000
   -18.047820  -10.419914    0.000000
    -0.000000    0.000000   22.082050
   Li
   504
Direct configuration=     1
   0.00275954  0.01203907  0.97960709
   0.93258775  0.05771240  0.66625066
   0.84407653  0.07334139  0.32089526
   0.79201532  0.12115269  0.00316152
   0.70569763  0.17365437  0.65399747
   0.64893775  0.20098376  0.32544196
   0.56891023  0.23722774  0.99868883
   0.48463855  0.27578091  0.65619557
   0.43778249  0.34729054  0.32561335
   0.35186742  0.37973527  0.98997205
   0.27044241  0.41816856  0.66978413
   0.20687430  0.46338930  0.32369140
   0.06783589  0.05440504  0.67400648
   0.01323965  0.09465234  0.33260195
   0.91802087  0.13188337  0.99688199
   0.85835033  0.18433545  0.66550280
   0.79160692  0.18039026  0.33256701
   0.71683191  0.25126664  0.99365972
   0.64448431  0.28858818  0.64766502
   0.58336865  0.32613285  0.33169947
   0.49396017  0.37879468  0.00650091
   0.42656153  0.41769640  0.67329802
   0.35775269  0.46251105  0.33233880
   0.28931971  0.50326497  0.00187725
   0.14929600  0.08864571  0.33512478
   0.06275786  0.13171605  0.99248686
   0.00922117  0.18105577  0.66832444
   0.92959688  0.20456953  0.33122958
   0.84364553  0.24151080  0.99977803
   0.78160701  0.29424598  0.66533303
   0.73004691  0.33234542  0.33057221
   0.63720342  0.35909159  0.00863806
   0.55684189  0.39992473  0.66687093
   0.50352648  0.44355654  0.34050243
   0.43571901  0.49207088  0.99459726
   0.33820560  0.54422779  0.67324016
   0.21502004  0.14230468  0.00062871
   0.14208905  0.15693793  0.68532025
   0.08253775  0.20780865  0.32189032
   0.99426602  0.25874511  0.99620613
   0.93262374  0.29488478  0.66458536
   0.85539324  0.31092918  0.32962306
   0.78914101  0.37527803  0.99714668
   0.71267046  0.39593181  0.66585785
   0.63036691  0.45030894  0.33640819
   0.56088030  0.49835022  0.00796167
   0.49420154  0.53671051  0.65466535
   0.43013507  0.58982260  0.33046087
   0.27818432  0.15515893  0.66690946
   0.23170057  0.20099321  0.34584989
   0.14127751  0.26463261  0.00040598
   0.07811449  0.28842019  0.67932858
   0.01448541  0.32605889  0.31963475
   0.94007086  0.37065181  0.00008172
   0.85214360  0.42525024  0.66189264
   0.78654095  0.46585583  0.34652690
   0.70827186  0.48562280  0.99356554
   0.64615250  0.52845076  0.66046100
   0.55605960  0.57742802  0.34481563
   0.51962388  0.60835531  0.00743827
   0.36899344  0.19877173  0.33575577
   0.29954937  0.24984836  0.00444020
   0.20868283  0.28406775  0.66909207
   0.15240736  0.32784646  0.34606999
   0.06636458  0.38735362  0.00726666
   0.98346837  0.41631566  0.66867456
   0.92241123  0.42938492  0.33552709
   0.85620561  0.49447287  0.00342706
   0.77521512  0.53485806  0.64696564
   0.72240473  0.58241204  0.33858876
   0.65569034  0.60966687  0.99196076
   0.56258781  0.66281163  0.67439409
   0.43129178  0.27426966  0.99498574
   0.33831604  0.30061515  0.67207410
   0.30785609  0.33122054  0.33054418
   0.20490240  0.37303222  0.01106811
   0.13503805  0.40668078  0.65787155
   0.07521026  0.46429370  0.33544219
   0.98535349  0.49956291  0.00177823
   0.92749544  0.54789761  0.67790614
   0.85134537  0.56818355  0.31189827
   0.78333516  0.61648812  0.99725662
   0.70969763  0.67409782  0.66741903
   0.65112580  0.69769855  0.33172477
   0.12791109  0.52041825  0.98448266
   0.06175060  0.54671989  0.66909592
   0.99571016  0.57835985  0.33847405
   0.92795288  0.62376054  0.99309823
   0.85350032  0.66915801  0.66270615
   0.79097492  0.71125357  0.33345690
   0.70585546  0.73911121  0.99999587
   0.18851790  0.54944035  0.66096848
   0.13995100  0.57685969  0.33583421
   0.06918016  0.62556443  0.00198846
   0.99916880  0.67444482  0.67362251
   0.94340604  0.70291555  0.32756436
   0.85416728  0.75541501  0.00174180
   0.78421822  0.80179118  0.67139334
   0.28453711  0.59898771  0.33296420
   0.21109262  0.63202563  0.00974310
   0.14107846  0.66288039  0.65762472
   0.08294802  0.69744992  0.32590367
   0.00011257  0.74942614  0.00043105
   0.92010742  0.79517274  0.67217108
   0.86831417  0.83825084  0.34150078
   0.35493312  0.62295723  0.99843118
   0.27391686  0.67068670  0.66225194
   0.22987208  0.71146504  0.33559870
   0.13936861  0.75857834  0.00510858
   0.06949499  0.79264302  0.65583978
   0.00400036  0.83364064  0.33613893
   0.92725754  0.87962177  0.00015842
   0.42241819  0.67186987  0.66777250
   0.36432934  0.69907160  0.33616781
   0.29200334  0.75663505  0.99302865
   0.21036876  0.80713344  0.67822234
   0.15260054  0.82648046  0.32398857
   0.07140489  0.86997967  0.99470866
   0.99326778  0.92061842  0.66535249
   0.93630189  0.97008423  0.32478478
   0.85476358  0.00263809  0.98481861
   0.78700587  0.05248665  0.65429560
   0.71540121  0.07366979  0.31562879
   0.64301261  0.12395684  0.00445190
   0.56745281  0.17250745  0.66488810
   0.49732619  0.20917524  0.33520306
   0.07137077  0.96284126  0.33854214
   0.14644659  0.00670229  0.99793002
   0.22223729  0.04959035  0.67776193
   0.29057358  0.07695191  0.33104310
   0.35123131  0.12460984  0.99660546
   0.41930029  0.15493876  0.66482446
   0.84849674  0.92485446  0.65972330
   0.78800791  0.94889658  0.32383276
   0.71739631  0.01410275  0.00229034
   0.62918452  0.04856735  0.66725816
   0.55929708  0.08058291  0.32672335
   0.47873093  0.12266375  0.98219891
   0.15463158  0.92543845  0.66801727
   0.20282885  0.95561202  0.33944355
   0.29599281  0.99854704  0.00077210
   0.35623492  0.03927772  0.67059594
   0.42720517  0.07477343  0.35202247
   0.78616996  0.87354754  0.98391248
   0.71163020  0.93137237  0.66213295
   0.64431930  0.95473581  0.33196672
   0.56979339  0.00241627  0.98368389
   0.48691350  0.05736886  0.65642999
   0.22566679  0.88631633  0.98992562
   0.28343329  0.92331068  0.66804493
   0.35309562  0.94167143  0.33925087
   0.42681268  0.99399394  0.00766576
   0.71769813  0.82646234  0.34071975
   0.64380273  0.86646526  0.99642396
   0.54991357  0.91331570  0.67371845
   0.51428171  0.95166361  0.33220057
   0.28498650  0.83472416  0.32204628
   0.36550735  0.86989349  0.02123850
   0.42807314  0.92202165  0.66310062
   0.62500931  0.78983009  0.68303213
   0.59241325  0.82342765  0.33560021
   0.50521223  0.87833357  0.99252694
   0.35549202  0.79668075  0.67271580
   0.43282652  0.82964307  0.34063546
   0.56690360  0.74304217  0.00285389
   0.48793289  0.77555961  0.66431501
   0.43228565  0.74420402  0.99541946
   0.51047591  0.69949853  0.34438172
   0.00921921  0.00274335  0.77272879
   0.94183106  0.05205212  0.44129191
   0.86327896  0.08350448  0.11339959
   0.77496115  0.12951460  0.76931226
   0.72332709  0.17201381  0.42581179
   0.64516696  0.20531826  0.09145310
   0.55730771  0.25699991  0.77373147
   0.51152453  0.28855755  0.44824751
   0.43301584  0.33345664  0.11470207
   0.35237275  0.38367364  0.78781573
   0.30182020  0.42081050  0.42994227
   0.20405249  0.45185869  0.10780774
   0.07831537  0.03205366  0.45823926
   0.99161173  0.07977691  0.11855892
   0.93286914  0.12582398  0.76382227
   0.86794030  0.17682023  0.45259664
   0.78601819  0.20683344  0.11710023
   0.72092444  0.24223802  0.77595495
   0.65541713  0.28468617  0.44433720
   0.57658858  0.33614811  0.11049401
   0.50151275  0.38125232  0.77810659
   0.43385231  0.41323244  0.46166027
   0.36187310  0.45889067  0.10652604
   0.28884302  0.51088733  0.77479689
   0.15540998  0.08257529  0.10227260
   0.05488907  0.13026745  0.78822985
   0.00431679  0.17253166  0.44690725
   0.92817976  0.21158382  0.11315762
   0.86879548  0.24169405  0.77715264
   0.78955163  0.29584423  0.43874683
   0.71900384  0.32881788  0.11455680
   0.64953778  0.35323881  0.77899425
   0.58200425  0.41923384  0.44801536
   0.51549918  0.46335622  0.12260902
   0.43630624  0.49703367  0.78261747
   0.35317398  0.55007159  0.43591804
   0.20723767  0.11443066  0.79418890
   0.14348841  0.15775698  0.44576738
   0.06797050  0.20059121  0.10993775
   0.01458929  0.26285303  0.78362502
   0.93607151  0.28025657  0.43259409
   0.86044487  0.33035118  0.10739623
   0.80693846  0.37401754  0.77118886
   0.71685677  0.42267329  0.43179965
   0.65146641  0.45954233  0.10935487
   0.56819232  0.48301642  0.76546321
   0.49783025  0.54175592  0.45718497
   0.42114774  0.57347000  0.11125563
   0.28979223  0.16204046  0.44723977
   0.21300580  0.20667347  0.10867849
   0.15157105  0.24932531  0.77768314
   0.08614966  0.29527405  0.44161162
   0.00003099  0.34193618  0.12424417
   0.94188550  0.37730508  0.78215113
   0.85769420  0.41038375  0.44224809
   0.77605425  0.45469378  0.10461179
   0.71686270  0.49876383  0.77245736
   0.64939338  0.54712763  0.45979988
   0.57935031  0.58083076  0.10708290
   0.49780285  0.59769014  0.78245345
   0.36236306  0.21018429  0.11660190
   0.28787533  0.24484604  0.77868303
   0.23404402  0.28304202  0.44150182
   0.13315027  0.33994943  0.12546256
   0.07966204  0.37961484  0.77058840
   0.00076056  0.41192354  0.44643573
   0.93048700  0.46491394  0.10580421
   0.86109036  0.49320624  0.77789664
   0.79784765  0.53751517  0.44501151
   0.71471619  0.59379876  0.11693122
   0.64710082  0.61375370  0.77564968
   0.57593663  0.66077413  0.45836424
   0.43664736  0.25983196  0.77967747
   0.37466608  0.29814224  0.43942866
   0.27454800  0.33178868  0.11633290
   0.21654305  0.37552597  0.76936349
   0.15344874  0.41560081  0.43604838
   0.07261358  0.45629315  0.11411367
   0.00738553  0.49280250  0.77653871
   0.93422747  0.53815438  0.43989653
   0.86796036  0.58470193  0.10933079
   0.79018557  0.61803191  0.77348659
   0.72506122  0.67930191  0.46249843
   0.64979212  0.70823838  0.11449598
   0.15518787  0.49511142  0.78619613
   0.06220323  0.52390442  0.45669081
   0.00780444  0.58331903  0.10829647
   0.92990343  0.62709873  0.78412533
   0.85838834  0.66616343  0.43539175
   0.79578879  0.71314831  0.11308908
   0.71893444  0.74628991  0.79486796
   0.21523797  0.53489039  0.43348959
   0.13033226  0.58528722  0.12146604
   0.06313152  0.61764769  0.78221865
   0.00345464  0.66054405  0.44921482
   0.91164528  0.69902268  0.10601740
   0.85994661  0.75307030  0.77512530
   0.79262555  0.78913601  0.44380229
   0.27947704  0.58539319  0.11193730
   0.21778154  0.63466482  0.78089590
   0.14886564  0.65431065  0.43906126
   0.07253171  0.70295585  0.10446805
   0.99277798  0.76412394  0.77971338
   0.93557299  0.80345453  0.44106274
   0.85327877  0.84389496  0.10912022
   0.35268107  0.63184660  0.79150887
   0.27661001  0.66891463  0.45920768
   0.20379961  0.72456283  0.11026428
   0.15169891  0.74304312  0.76934375
   0.05583412  0.77925277  0.44546227
   0.00381095  0.82351505  0.10921461
   0.91966389  0.87651896  0.75937349
   0.41794996  0.66697296  0.45022512
   0.36391368  0.71001614  0.10550517
   0.30096278  0.74450049  0.78058546
   0.21864825  0.78559439  0.43755159
   0.13180203  0.83635032  0.10844181
   0.07192279  0.87679937  0.77522362
   0.99611380  0.92336444  0.44920933
   0.92676429  0.95299929  0.10833324
   0.85564827  0.99777340  0.77242776
   0.78381312  0.04606816  0.43690629
   0.71147025  0.08363987  0.10201112
   0.64065987  0.13673403  0.76304919
   0.57352201  0.16299737  0.43957624
   0.49524346  0.20139699  0.11276985
   0.06430570  0.95720634  0.11398094
   0.14663865  0.00994947  0.78525886
   0.21441680  0.03467439  0.44905772
   0.28826927  0.10123272  0.10867158
   0.35362706  0.12034179  0.77892107
   0.42248688  0.15811414  0.43584237
   0.86269062  0.92134529  0.43493993
   0.78034936  0.97087799  0.11055306
   0.71244053  0.01521284  0.77844384
   0.64247610  0.04049160  0.42686101
   0.56353973  0.08393690  0.09325505
   0.49748309  0.13836651  0.77241450
   0.13699963  0.90726838  0.44664961
   0.20813241  0.96181597  0.11738530
   0.28816945  0.99129330  0.77573924
   0.35403028  0.04071637  0.45752723
   0.43158820  0.07510840  0.10805370
   0.77380666  0.87573712  0.77297073
   0.70445497  0.90848108  0.44828008
   0.63715878  0.95578540  0.10777168
   0.56555035  0.98509777  0.77754151
   0.50305376  0.03725875  0.45260811
   0.21338785  0.87526537  0.78241990
   0.27648405  0.90554060  0.44027439
   0.35220847  0.95951573  0.12535035
   0.41513046  0.99866306  0.76818847
   0.71064934  0.82973484  0.11328085
   0.63586818  0.86030017  0.77927533
   0.56860981  0.91299937  0.44582045
   0.49909071  0.95049184  0.11989678
   0.28265731  0.83582867  0.11344756
   0.36063877  0.86286634  0.77149033
   0.41858463  0.92188208  0.43557866
   0.64455401  0.77656426  0.45329054
   0.56185973  0.82575032  0.11171561
   0.49466699  0.86308374  0.78038661
   0.34080122  0.79147670  0.44545739
   0.42737703  0.84230722  0.10646143
   0.57607814  0.73982108  0.78655359
   0.49678006  0.79291264  0.43856705
   0.44026777  0.74040982  0.78140557
   0.49283590  0.70489946  0.11542790
   0.99223402  0.00100543  0.22765384
   0.94186193  0.03908242  0.87912194
   0.85460626  0.08953534  0.55839786
   0.77523614  0.11607229  0.21257032
   0.72075339  0.15801867  0.88913067
   0.63212950  0.20252237  0.53916348
   0.58397739  0.24764743  0.21517415
   0.50732724  0.29536908  0.88661711
   0.42204639  0.34328736  0.55740540
   0.35396326  0.36882925  0.21800860
   0.28594061  0.43025809  0.88583673
   0.21736777  0.47774604  0.54615134
   0.07804341  0.04737525  0.87074472
   0.99804821  0.09569487  0.55591704
   0.92748296  0.12811184  0.23277845
   0.86573514  0.15530286  0.88638163
   0.77907491  0.20894003  0.54233914
   0.72273394  0.26061128  0.22565952
   0.62974412  0.27086863  0.88859974
   0.56346162  0.32754164  0.55227105
   0.52301518  0.37951862  0.24532670
   0.43261158  0.41955392  0.89694205
   0.34921023  0.46123917  0.57106454
   0.28731865  0.51261904  0.22025566
   0.14077819  0.06931831  0.57031604
   0.07558242  0.12863376  0.22121552
   0.99283889  0.17374906  0.89699739
   0.92658963  0.21545376  0.55429276
   0.84662519  0.24528096  0.21729637
   0.78410472  0.28615762  0.88020062
   0.71185235  0.33250706  0.53724598
   0.65901063  0.37794475  0.22460537
   0.56245670  0.42516600  0.88977681
   0.50969027  0.46201747  0.56246488
   0.44633476  0.48322063  0.21822080
   0.36501429  0.53441934  0.88363460
   0.21205721  0.12918259  0.22861078
   0.13130221  0.17640924  0.89619858
   0.08203892  0.20922860  0.56630825
   0.99784224  0.25843917  0.21074438
   0.91941947  0.29375929  0.89983918
   0.86489727  0.33610712  0.56071801
   0.79790128  0.38957375  0.21922599
   0.71469879  0.39472443  0.88188370
   0.64281763  0.45137000  0.55759230
   0.58892763  0.51223575  0.23122142
   0.51460447  0.52952883  0.89193900
   0.41438863  0.58292297  0.55881493
   0.28559736  0.17499643  0.90384315
   0.21718028  0.19760322  0.56322671
   0.13435713  0.24953388  0.22459495
   0.07737049  0.29897202  0.89060870
   0.00849380  0.33557665  0.56785193
   0.93272014  0.37443223  0.22243910
   0.85365739  0.41871250  0.89952936
   0.77581732  0.45094875  0.53865286
   0.71337939  0.50543482  0.22225543
   0.64782093  0.52218554  0.88183187
   0.57116825  0.59251229  0.57070947
   0.51163947  0.62791807  0.20970263
   0.36260100  0.21031217  0.55800273
   0.28248788  0.23046762  0.23374227
   0.21775575  0.30516796  0.90074796
   0.14980710  0.32647475  0.54677878
   0.07755666  0.37535075  0.22496657
   0.00191831  0.42073561  0.89264219
   0.92428098  0.47199095  0.55222491
   0.85526500  0.50196989  0.21742846
   0.79115251  0.53185525  0.90023620
   0.71383878  0.58665593  0.54837908
   0.64142400  0.61865202  0.21519198
   0.58469634  0.65269234  0.88050095
   0.43564485  0.25641365  0.21763760
   0.35971889  0.30994352  0.87754047
   0.28515651  0.32428968  0.54784103
   0.21365799  0.37134989  0.22184491
   0.13797811  0.43085450  0.90579965
   0.07094716  0.45858044  0.56854131
   0.99832315  0.48396909  0.23820300
   0.91723494  0.53182431  0.88116044
   0.85623800  0.58230455  0.55061904
   0.78115303  0.63242885  0.22303842
   0.71523714  0.65872445  0.89354366
   0.63654850  0.72368846  0.56431678
   0.13552418  0.50282771  0.22089026
   0.06628038  0.54291005  0.88788326
   0.99685187  0.58722945  0.55950605
   0.93037922  0.62460360  0.21548717
   0.85930282  0.66125402  0.88638673
   0.78211814  0.71963135  0.55891549
   0.71629912  0.75213040  0.23308868
   0.21006039  0.56176523  0.89751269
   0.12889102  0.59343903  0.54747153
   0.06052029  0.62810041  0.22874410
   0.00336042  0.67108387  0.89328976
   0.93216055  0.71373423  0.54842863
   0.85716249  0.75095081  0.22641511
   0.78795383  0.77461728  0.88478393
   0.27279173  0.59944169  0.55631357
   0.18915672  0.63736193  0.22435414
   0.13645156  0.67517703  0.89150468
   0.07805471  0.71714085  0.55467931
   0.00480871  0.73582133  0.22196283
   0.92153448  0.79123097  0.89620097
   0.85264955  0.83381429  0.56821368
   0.35438433  0.62406092  0.21493881
   0.28317309  0.67112351  0.89137948
   0.21477470  0.72243274  0.57114136
   0.13720044  0.75517018  0.23006563
   0.07345327  0.80602443  0.89214196
   0.99869459  0.82957158  0.55201002
   0.92928559  0.88085561  0.22441079
   0.43301126  0.65218390  0.89466768
   0.34716877  0.72189213  0.55659301
   0.29841501  0.74505065  0.22034493
   0.21370878  0.79929119  0.88626714
   0.14683999  0.84612066  0.55351403
   0.06335990  0.88628202  0.22482660
   0.01008208  0.91584263  0.87895219
   0.92642122  0.96439438  0.55255760
   0.84684412  0.99173865  0.21168299
   0.79796549  0.04473925  0.86686119
   0.70102343  0.08245826  0.55229464
   0.64329696  0.11609671  0.21387932
   0.56353995  0.16923803  0.89560363
   0.48336971  0.20765151  0.56405011
   0.06241340  0.96196127  0.55532351
   0.11949431  0.00819830  0.23643399
   0.21541350  0.05380504  0.89925291
   0.28865131  0.08217165  0.56830993
   0.37328926  0.12706188  0.23530239
   0.42529466  0.19825607  0.88714440
   0.85751426  0.92142218  0.88969840
   0.78355633  0.96902595  0.55911538
   0.71405146  0.99594906  0.21264267
   0.66079012  0.05907326  0.87870504
   0.56669804  0.09323271  0.55063456
   0.50542117  0.12466626  0.23656585
   0.14318085  0.92059779  0.89675634
   0.21078090  0.96292194  0.56671378
   0.27539190  0.99246934  0.21958541
   0.36081963  0.05336760  0.90276422
   0.42577910  0.07968438  0.55088599
   0.77140278  0.87294033  0.21580958
   0.70887404  0.91585290  0.89312941
   0.63604764  0.96905608  0.54988988
   0.56800426  0.00072523  0.21974676
   0.49771701  0.03704513  0.87056608
   0.20515173  0.86862686  0.21840491
   0.28197525  0.91331271  0.88243458
   0.34221956  0.94664200  0.56449743
   0.41772570  0.00852421  0.23696808
   0.71244392  0.84491346  0.55790196
   0.64590044  0.87464585  0.21508744
   0.57625835  0.92223565  0.88506754
   0.49924636  0.95612626  0.56490416
   0.28693144  0.84426822  0.56093676
   0.37860749  0.87838193  0.22314478
   0.42853248  0.90703859  0.88086126
   0.63865011  0.79039685  0.89601287
   0.56782150  0.84236357  0.55911686
   0.51082156  0.87672299  0.22282644
   0.37000154  0.79248052  0.89759803
   0.43294922  0.84059466  0.55358042
   0.58396066  0.74408308  0.22165517
   0.51493207  0.78320586  0.88478927
   0.43579496  0.75339829  0.22509100
   0.48852776  0.69158117  0.55412477
