 432 432   0   0
  0.2356206E+02  0.2167200E-08  0.2167200E-08  0.2167200E-08  0.5000000E-15
  1.000000000000000E-004
  CAR 
 Li                                      
      2.97895584     -3.59045887  301      0.04449280      1.00000000
     -3.590  0.0000E+00  0.0000E+00
     -3.569  0.0000E+00  0.0000E+00
     -3.547  0.0000E+00  0.0000E+00
     -3.525  0.0000E+00  0.0000E+00
     -3.503  0.0000E+00  0.0000E+00
     -3.481  0.0000E+00  0.0000E+00
     -3.459  0.8365E-13  0.1832E-14
     -3.437  0.2080E-09  0.4556E-11
     -3.415  0.1799E-06  0.3945E-08
     -3.393  0.5502E-04  0.1209E-05
     -3.371  0.5992E-02  0.1324E-03
     -3.350  0.2349E+00  0.5277E-02
     -3.328  0.3360E+01  0.7886E-01
     -3.306  0.1779E+02  0.4684E+00
     -3.284  0.3530E+02  0.1241E+01
     -3.262  0.2641E+02  0.1820E+01
     -3.240  0.7544E+01  0.1985E+01
     -3.218  0.3271E+01  0.2056E+01
     -3.196  0.2119E+02  0.2521E+01
     -3.174  0.7212E+02  0.4100E+01
     -3.152  0.1016E+03  0.6324E+01
     -3.131  0.6010E+02  0.7640E+01
     -3.109  0.1523E+02  0.7974E+01
     -3.087  0.7058E+01  0.8128E+01
     -3.065  0.3442E+02  0.8882E+01
     -3.043  0.8775E+02  0.1080E+02
     -3.021  0.9444E+02  0.1287E+02
     -2.999  0.4293E+02  0.1381E+02
     -2.977  0.9854E+01  0.1403E+02
     -2.955  0.1802E+02  0.1442E+02
     -2.934  0.7053E+02  0.1597E+02
     -2.912  0.1264E+03  0.1874E+02
     -2.890  0.1036E+03  0.2100E+02
     -2.868  0.3935E+02  0.2187E+02
     -2.846  0.1482E+02  0.2219E+02
     -2.824  0.4875E+02  0.2326E+02
     -2.802  0.1325E+03  0.2616E+02
     -2.780  0.1820E+03  0.3014E+02
     -2.758  0.1264E+03  0.3291E+02
     -2.736  0.4303E+02  0.3385E+02
     -2.715  0.1146E+02  0.3411E+02
     -2.693  0.3214E+02  0.3481E+02
     -2.671  0.8501E+02  0.3667E+02
     -2.649  0.9640E+02  0.3878E+02
     -2.627  0.4617E+02  0.3979E+02
     -2.605  0.1297E+02  0.4008E+02
     -2.583  0.3138E+02  0.4076E+02
     -2.561  0.1056E+03  0.4308E+02
     -2.539  0.1768E+03  0.4695E+02
     -2.517  0.1520E+03  0.5028E+02
     -2.496  0.6686E+02  0.5174E+02
     -2.474  0.2996E+02  0.5240E+02
     -2.452  0.7738E+02  0.5409E+02
     -2.430  0.1775E+03  0.5798E+02
     -2.408  0.2408E+03  0.6325E+02
     -2.386  0.1972E+03  0.6757E+02
     -2.364  0.8973E+02  0.6953E+02
     -2.342  0.2386E+02  0.7006E+02
     -2.320  0.3040E+02  0.7072E+02
     -2.298  0.7981E+02  0.7247E+02
     -2.277  0.9674E+02  0.7459E+02
     -2.255  0.5180E+02  0.7572E+02
     -2.233  0.1686E+02  0.7609E+02
     -2.211  0.3890E+02  0.7694E+02
     -2.189  0.1257E+03  0.7970E+02
     -2.167  0.2036E+03  0.8416E+02
     -2.145  0.1724E+03  0.8793E+02
     -2.123  0.7781E+02  0.8964E+02
     -2.101  0.3197E+02  0.9034E+02
     -2.079  0.7528E+02  0.9198E+02
     -2.058  0.1745E+03  0.9581E+02
     -2.036  0.2362E+03  0.1010E+03
     -2.014  0.1974E+03  0.1053E+03
     -1.992  0.9699E+02  0.1074E+03
     -1.970  0.3282E+02  0.1081E+03
     -1.948  0.5339E+02  0.1093E+03
     -1.926  0.1333E+03  0.1122E+03
     -1.904  0.1767E+03  0.1161E+03
     -1.882  0.1260E+03  0.1189E+03
     -1.861  0.5538E+02  0.1201E+03
     -1.839  0.6581E+02  0.1215E+03
     -1.817  0.1594E+03  0.1250E+03
     -1.795  0.2359E+03  0.1302E+03
     -1.773  0.2089E+03  0.1347E+03
     -1.751  0.1121E+03  0.1372E+03
     -1.729  0.4667E+02  0.1382E+03
     -1.707  0.7735E+02  0.1399E+03
     -1.685  0.1865E+03  0.1440E+03
     -1.663  0.2523E+03  0.1495E+03
     -1.642  0.1911E+03  0.1537E+03
     -1.620  0.8420E+02  0.1556E+03
     -1.598  0.3547E+02  0.1563E+03
     -1.576  0.7093E+02  0.1579E+03
     -1.554  0.1448E+03  0.1611E+03
     -1.532  0.1678E+03  0.1647E+03
     -1.510  0.1088E+03  0.1671E+03
     -1.488  0.3848E+02  0.1680E+03
     -1.466  0.2979E+02  0.1686E+03
     -1.444  0.8827E+02  0.1705E+03
     -1.423  0.1588E+03  0.1740E+03
     -1.401  0.1606E+03  0.1775E+03
     -1.379  0.9912E+02  0.1797E+03
     -1.357  0.8812E+02  0.1816E+03
     -1.335  0.1813E+03  0.1856E+03
     -1.313  0.2859E+03  0.1919E+03
     -1.291  0.3247E+03  0.1990E+03
     -1.269  0.2816E+03  0.2051E+03
     -1.247  0.1677E+03  0.2088E+03
     -1.225  0.8934E+02  0.2108E+03
     -1.204  0.1341E+03  0.2137E+03
     -1.182  0.2167E+03  0.2185E+03
     -1.160  0.2240E+03  0.2234E+03
     -1.138  0.1481E+03  0.2266E+03
     -1.116  0.6014E+02  0.2279E+03
     -1.094  0.4975E+02  0.2290E+03
     -1.072  0.1264E+03  0.2318E+03
     -1.050  0.1988E+03  0.2361E+03
     -1.028  0.1697E+03  0.2398E+03
     -1.006  0.8516E+02  0.2417E+03
     -0.985  0.6759E+02  0.2432E+03
     -0.963  0.1564E+03  0.2466E+03
     -0.941  0.2648E+03  0.2524E+03
     -0.919  0.2917E+03  0.2588E+03
     -0.897  0.2183E+03  0.2636E+03
     -0.875  0.1176E+03  0.2662E+03
     -0.853  0.9379E+02  0.2682E+03
     -0.831  0.9953E+02  0.2704E+03
     -0.809  0.5797E+02  0.2717E+03
     -0.788  0.2169E+02  0.2721E+03
     -0.766  0.4982E+02  0.2732E+03
     -0.744  0.1535E+03  0.2766E+03
     -0.722  0.2607E+03  0.2823E+03
     -0.700  0.2835E+03  0.2885E+03
     -0.678  0.2405E+03  0.2938E+03
     -0.656  0.1853E+03  0.2978E+03
     -0.634  0.1556E+03  0.3012E+03
     -0.612  0.1663E+03  0.3049E+03
     -0.590  0.2193E+03  0.3097E+03
     -0.569  0.2694E+03  0.3156E+03
     -0.547  0.2885E+03  0.3219E+03
     -0.525  0.2553E+03  0.3275E+03
     -0.503  0.1658E+03  0.3311E+03
     -0.481  0.1056E+03  0.3334E+03
     -0.459  0.1134E+03  0.3359E+03
     -0.437  0.1288E+03  0.3387E+03
     -0.415  0.1322E+03  0.3416E+03
     -0.393  0.1176E+03  0.3442E+03
     -0.371  0.1531E+03  0.3476E+03
     -0.350  0.2524E+03  0.3531E+03
     -0.328  0.3148E+03  0.3600E+03
     -0.306  0.3172E+03  0.3669E+03
     -0.284  0.2859E+03  0.3732E+03
     -0.262  0.2078E+03  0.3777E+03
     -0.240  0.1230E+03  0.3804E+03
     -0.218  0.1311E+03  0.3833E+03
     -0.196  0.2052E+03  0.3878E+03
     -0.174  0.2540E+03  0.3934E+03
     -0.152  0.2437E+03  0.3987E+03
     -0.131  0.1723E+03  0.4025E+03
     -0.109  0.1049E+03  0.4048E+03
     -0.087  0.1070E+03  0.4071E+03
     -0.065  0.1236E+03  0.4098E+03
     -0.043  0.1599E+03  0.4133E+03
     -0.021  0.2301E+03  0.4183E+03
      0.001  0.2392E+03  0.4236E+03
      0.023  0.1967E+03  0.4279E+03
      0.045  0.1887E+03  0.4320E+03
      0.067  0.2140E+03  0.4367E+03
      0.088  0.2374E+03  0.4419E+03
      0.110  0.2529E+03  0.4474E+03
      0.132  0.2508E+03  0.4529E+03
      0.154  0.2260E+03  0.4579E+03
      0.176  0.1775E+03  0.4618E+03
      0.198  0.1373E+03  0.4648E+03
      0.220  0.1495E+03  0.4681E+03
      0.242  0.1847E+03  0.4721E+03
      0.264  0.2117E+03  0.4767E+03
      0.285  0.2409E+03  0.4820E+03
      0.307  0.2787E+03  0.4881E+03
      0.329  0.3083E+03  0.4949E+03
      0.351  0.3089E+03  0.5016E+03
      0.373  0.2941E+03  0.5081E+03
      0.395  0.2848E+03  0.5143E+03
      0.417  0.2881E+03  0.5206E+03
      0.439  0.2941E+03  0.5271E+03
      0.461  0.2911E+03  0.5334E+03
      0.483  0.2795E+03  0.5395E+03
      0.504  0.2684E+03  0.5454E+03
      0.526  0.2572E+03  0.5511E+03
      0.548  0.2411E+03  0.5563E+03
      0.570  0.2332E+03  0.5614E+03
      0.592  0.2350E+03  0.5666E+03
      0.614  0.2348E+03  0.5717E+03
      0.636  0.2340E+03  0.5769E+03
      0.658  0.2413E+03  0.5821E+03
      0.680  0.2468E+03  0.5875E+03
      0.702  0.2589E+03  0.5932E+03
      0.723  0.2780E+03  0.5993E+03
      0.745  0.2867E+03  0.6056E+03
      0.767  0.2711E+03  0.6115E+03
      0.789  0.2324E+03  0.6166E+03
      0.811  0.1753E+03  0.6204E+03
      0.833  0.1498E+03  0.6237E+03
      0.855  0.1847E+03  0.6278E+03
      0.877  0.2272E+03  0.6327E+03
      0.899  0.2537E+03  0.6383E+03
      0.921  0.2538E+03  0.6439E+03
      0.942  0.2023E+03  0.6483E+03
      0.964  0.1226E+03  0.6510E+03
      0.986  0.7714E+02  0.6527E+03
      1.008  0.1133E+03  0.6551E+03
      1.030  0.1693E+03  0.6589E+03
      1.052  0.1511E+03  0.6622E+03
      1.074  0.1049E+03  0.6645E+03
      1.096  0.1172E+03  0.6670E+03
      1.118  0.1622E+03  0.6706E+03
      1.140  0.1944E+03  0.6748E+03
      1.161  0.2141E+03  0.6795E+03
      1.183  0.2258E+03  0.6845E+03
      1.205  0.2119E+03  0.6891E+03
      1.227  0.1713E+03  0.6929E+03
      1.249  0.1421E+03  0.6960E+03
      1.271  0.1355E+03  0.6989E+03
      1.293  0.1468E+03  0.7022E+03
      1.315  0.1795E+03  0.7061E+03
      1.337  0.2130E+03  0.7107E+03
      1.359  0.2272E+03  0.7157E+03
      1.380  0.2097E+03  0.7203E+03
      1.402  0.1902E+03  0.7245E+03
      1.424  0.1983E+03  0.7288E+03
      1.446  0.2195E+03  0.7336E+03
      1.468  0.2329E+03  0.7387E+03
      1.490  0.2301E+03  0.7438E+03
      1.512  0.2087E+03  0.7483E+03
      1.534  0.1781E+03  0.7522E+03
      1.556  0.1599E+03  0.7557E+03
      1.577  0.1647E+03  0.7593E+03
      1.599  0.1742E+03  0.7632E+03
      1.621  0.1703E+03  0.7669E+03
      1.643  0.1576E+03  0.7703E+03
      1.665  0.1576E+03  0.7738E+03
      1.687  0.1625E+03  0.7773E+03
      1.709  0.1447E+03  0.7805E+03
      1.731  0.1030E+03  0.7828E+03
      1.753  0.6370E+02  0.7842E+03
      1.775  0.7451E+02  0.7858E+03
      1.796  0.1202E+03  0.7884E+03
      1.818  0.1370E+03  0.7914E+03
      1.840  0.1089E+03  0.7938E+03
      1.862  0.6525E+02  0.7952E+03
      1.884  0.2763E+02  0.7958E+03
      1.906  0.6861E+01  0.7960E+03
      1.928  0.7821E+01  0.7962E+03
      1.950  0.3709E+02  0.7970E+03
      1.972  0.8486E+02  0.7988E+03
      1.994  0.9008E+02  0.8008E+03
      2.015  0.4395E+02  0.8018E+03
      2.037  0.9374E+01  0.8020E+03
      2.059  0.8264E+00  0.8020E+03
      2.081  0.1539E+00  0.8020E+03
      2.103  0.2090E+01  0.8020E+03
      2.125  0.1504E+02  0.8024E+03
      2.147  0.5318E+02  0.8035E+03
      2.169  0.1058E+03  0.8059E+03
      2.191  0.1339E+03  0.8088E+03
      2.213  0.1282E+03  0.8116E+03
      2.234  0.1128E+03  0.8141E+03
      2.256  0.1021E+03  0.8163E+03
      2.278  0.1024E+03  0.8185E+03
      2.300  0.1164E+03  0.8211E+03
      2.322  0.1420E+03  0.8242E+03
      2.344  0.1608E+03  0.8277E+03
      2.366  0.1729E+03  0.8315E+03
      2.388  0.1752E+03  0.8354E+03
      2.410  0.1509E+03  0.8387E+03
      2.432  0.1189E+03  0.8413E+03
      2.453  0.9497E+02  0.8433E+03
      2.475  0.8542E+02  0.8452E+03
      2.497  0.7817E+02  0.8469E+03
      2.519  0.5689E+02  0.8482E+03
      2.541  0.4929E+02  0.8492E+03
      2.563  0.6851E+02  0.8507E+03
      2.585  0.9994E+02  0.8529E+03
      2.607  0.1265E+03  0.8557E+03
      2.629  0.1352E+03  0.8587E+03
      2.650  0.1309E+03  0.8615E+03
      2.672  0.1139E+03  0.8640E+03
      2.694  0.6711E+02  0.8655E+03
      2.716  0.2024E+02  0.8659E+03
      2.738  0.2685E+01  0.8660E+03
      2.760  0.1446E+00  0.8660E+03
      2.782  0.3021E-02  0.8660E+03
      2.804  0.2374E-04  0.8660E+03
      2.826  0.6876E-07  0.8660E+03
      2.848  0.7236E-10  0.8660E+03
      2.869  0.2281E-13  0.8660E+03
      2.891  0.0000E+00  0.8660E+03
      2.913  0.0000E+00  0.8660E+03
      2.935  0.0000E+00  0.8660E+03
      2.957  0.0000E+00  0.8660E+03
      2.979  0.0000E+00  0.8660E+03
