 running on   64 total cores
 distrk:  each k-point on   32 cores,    2 groups
 distr:  one band on   32 cores,    1 groups
 vasp.6.2.1 16May21 (build Nov 23 2021 15:40:41) complex                        
  
 POSCAR found type information on POSCAR Li
 POSCAR found :  1 types and     432 ions
 scaLAPACK will be used
 -----------------------------------------------------------------------------
|                                                                             |
|           W    W    AA    RRRRR   N    N  II  N    N   GGGG   !!!           |
|           W    W   A  A   R    R  NN   N  II  NN   N  G    G  !!!           |
|           W    W  A    A  R    R  N N  N  II  N N  N  G       !!!           |
|           W WW W  AAAAAA  RRRRR   N  N N  II  N  N N  G  GGG   !            |
|           WW  WW  A    A  R   R   N   NN  II  N   NN  G    G                |
|           W    W  A    A  R    R  N    N  II  N    N   GGGG   !!!           |
|                                                                             |
|     For optimal performance we recommend to set                             |
|       NCORE = 2 up to number-of-cores-per-socket                            |
|     NCORE specifies how many cores store one orbital (NPAR=cpu/NCORE).      |
|     This setting can greatly improve the performance of VASP for DFT.       |
|     The default, NCORE=1 might be grossly inefficient on modern             |
|     multi-core architectures or massively parallel machines. Do your        |
|     own testing! More info at https://www.vasp.at/wiki/index.php/NCORE      |
|     Unfortunately you need to use the default for GW and RPA                |
|     calculations (for HF NCORE is supported but not extensively tested      |
|     yet).                                                                   |
|                                                                             |
 -----------------------------------------------------------------------------

 -----------------------------------------------------------------------------
|                                                                             |
|               ----> ADVICE to this user running VASP <----                  |
|                                                                             |
|     You have a (more or less) 'large supercell' and for larger cells it     |
|     might be more efficient to use real-space projection operators.         |
|     Therefore, try LREAL= Auto in the INCAR file.                           |
|     Mind: If you want to do very accurate calculations, keep the            |
|     reciprocal projection scheme (i.e. LREAL=.FALSE.).                      |
|                                                                             |
 -----------------------------------------------------------------------------

 LDA part: xc-table for Pade appr. of Perdew
 POSCAR found type information on POSCAR Li
 POSCAR found :  1 types and     432 ions
 POSCAR, INCAR and KPOINTS ok, starting setup
 FFT: planning ...
 WAVECAR not read
 entering main loop
       N       E                     dE             d eps       ncg     rms          rms(c)
DAV:   1    -0.298011604532E+03   -0.29801E+03   -0.10034E+05  3464   0.641E+02
DAV:   2    -0.767993338246E+03   -0.46998E+03   -0.43026E+03  4004   0.627E+01
DAV:   3    -0.801388951069E+03   -0.33396E+02   -0.30614E+02  4360   0.133E+01
DAV:   4    -0.802529489120E+03   -0.11405E+01   -0.11253E+01  3944   0.270E+00
DAV:   5    -0.802554818932E+03   -0.25330E-01   -0.25305E-01  4112   0.433E-01    0.606E+00
DAV:   6    -0.800503869566E+03    0.20509E+01   -0.38696E+00  4008   0.281E+00    0.457E+00
DAV:   7    -0.798037097987E+03    0.24668E+01   -0.35589E+00  4008   0.269E+00    0.292E+00
DAV:   8    -0.797204803555E+03    0.83229E+00   -0.21889E+00  3864   0.139E+00    0.152E+00
DAV:   9    -0.797083283179E+03    0.12152E+00   -0.11627E+00  3776   0.859E-01    0.824E-01
DAV:  10    -0.797115597947E+03   -0.32315E-01   -0.18895E-01  4040   0.507E-01    0.713E-01
DAV:  11    -0.797060357279E+03    0.55241E-01   -0.79493E-02  3952   0.346E-01    0.348E-01
DAV:  12    -0.797058696596E+03    0.16607E-02   -0.26436E-02  3728   0.137E-01    0.150E-01
DAV:  13    -0.797058872091E+03   -0.17550E-03   -0.53042E-03  3960   0.811E-02    0.954E-02
DAV:  14    -0.797058130594E+03    0.74150E-03   -0.14807E-03  3880   0.539E-02    0.585E-02
DAV:  15    -0.797057817256E+03    0.31334E-03   -0.53141E-04  3856   0.284E-02    0.304E-02
DAV:  16    -0.797057754101E+03    0.63155E-04   -0.38401E-04  3672   0.160E-02    0.101E-02
DAV:  17    -0.797057758883E+03   -0.47816E-05   -0.42529E-05  4008   0.788E-03
   1 F= -.79705776E+03 E0= -.79701283E+03  d E =-.898596E-01
