Li                                      
           1
    21.672000    0.000000    0.000000
     0.000000   21.672000    0.000000
     0.000000    0.000000   21.672000
   Li
   432
Direct configuration=     1
   0.99536360  0.99945188  0.99315270
   0.91890615  0.07431668  0.07858762
   0.82421141  0.17160564  0.16635583
   0.73619956  0.24276231  0.26676140
   0.67573913  0.34767445  0.32542851
   0.58623941  0.42453267  0.41226513
   0.51320497  0.51834907  0.50364361
   0.42557703  0.59236017  0.58507718
   0.33578056  0.66404831  0.66566488
   0.25306883  0.74274022  0.75946813
   0.16396840  0.83783537  0.81644694
   0.08317626  0.91240871  0.91774081
   0.06345937  0.90854448  0.07003983
   0.00178643  0.99054072  0.16392730
   0.91672308  0.08521953  0.26011715
   0.84350430  0.15604405  0.32647003
   0.75483770  0.22905656  0.40454252
   0.67477305  0.32245169  0.49015926
   0.60091536  0.41554635  0.58607599
   0.51966185  0.49981931  0.67570835
   0.41394444  0.58534292  0.74285699
   0.33970638  0.66224442  0.84403803
   0.23946540  0.75399888  0.89902483
   0.15311776  0.84030856  0.99562145
   0.16264073  0.82183346  0.17890529
   0.05767345  0.91331531  0.25724615
   0.98298841  0.00057906  0.33744180
   0.92676763  0.09884123  0.41446324
   0.84599961  0.16749324  0.51153237
   0.75070658  0.25467960  0.59033815
   0.66720537  0.34915601  0.66932162
   0.57330123  0.42042568  0.76582013
   0.49003563  0.50040014  0.85005650
   0.42323820  0.58283953  0.93897234
   0.32571709  0.67812233  0.99188094
   0.23760676  0.75205828  0.07096359
   0.23696450  0.75142665  0.25895105
   0.15352276  0.84884707  0.35278023
   0.06933930  0.91642223  0.42820646
   0.99845751  0.98928848  0.49384951
   0.91905675  0.07691813  0.58605546
   0.82830931  0.16484665  0.67131643
   0.74968337  0.25870729  0.73459071
   0.66837579  0.34198074  0.84333698
   0.59112214  0.42096198  0.92496679
   0.49569689  0.48827047  0.02245490
   0.40110122  0.58405490  0.07554627
   0.33326319  0.66584777  0.16593302
   0.31367033  0.65645061  0.32165810
   0.25480054  0.75716861  0.42404678
   0.16774098  0.82168651  0.51196571
   0.07817166  0.90603626  0.59468858
   0.99147858  0.98279716  0.66202421
   0.90965740  0.08559977  0.75780361
   0.84042680  0.16788872  0.82097385
   0.77844608  0.24578116  0.91854986
   0.67342102  0.33981177  0.98062431
   0.58434488  0.41036058  0.08088731
   0.49407943  0.48478169  0.16719548
   0.41612380  0.59347319  0.24728498
   0.41267406  0.58753032  0.42536966
   0.33947980  0.66123216  0.48860917
   0.26725135  0.74141614  0.55877737
   0.17035987  0.82181977  0.66740651
   0.07381508  0.91925508  0.74622905
   0.99954850  0.98480852  0.82075271
   0.92439302  0.08327639  0.90843009
   0.84669681  0.14821590  0.99216102
   0.75700534  0.24235270  0.06176035
   0.67501488  0.31169598  0.16239778
   0.58048640  0.39934454  0.24187266
   0.51306659  0.50179073  0.32727923
   0.06039996  0.08013287  0.91068844
   0.01565141  0.14917523  0.00268617
   0.92358134  0.25384773  0.07971669
   0.83440517  0.31913154  0.16757893
   0.75622042  0.41630566  0.25880635
   0.66765581  0.49611512  0.32936483
   0.59702338  0.58482733  0.43536908
   0.51583610  0.68402204  0.50173486
   0.40532998  0.74547930  0.57778641
   0.33077163  0.83136478  0.66775138
   0.25243091  0.92623137  0.75594905
   0.15695092  0.00799434  0.85586641
   0.16428763  0.00054010  0.99972179
   0.08636679  0.07487247  0.08815919
   0.00443398  0.15465608  0.17396174
   0.92379481  0.24379323  0.25163567
   0.83497210  0.32471238  0.32193569
   0.75271192  0.41520349  0.41840795
   0.66847532  0.49117997  0.50256351
   0.58899726  0.59729351  0.58812425
   0.50916274  0.66918351  0.68626703
   0.41770202  0.75347511  0.75818366
   0.34280161  0.84472771  0.83833258
   0.25318410  0.91859131  0.91085942
   0.24866458  0.91271578  0.09575670
   0.15898627  0.00412470  0.18034792
   0.09030721  0.07798036  0.26125331
   0.01603752  0.15419400  0.32380128
   0.91136020  0.25260012  0.41031691
   0.82771280  0.33204042  0.51766388
   0.74744482  0.42250131  0.59261187
   0.66146443  0.50161392  0.67380863
   0.56470416  0.58309566  0.76836687
   0.50945888  0.67439998  0.83958917
   0.42398865  0.75749130  0.92864549
   0.33872889  0.83834961  0.99374087
   0.34182303  0.82263921  0.16984873
   0.23420774  0.90195772  0.25363454
   0.17229024  0.99347297  0.34267238
   0.08705059  0.07765786  0.41312828
   0.00620476  0.17145802  0.50068349
   0.91602917  0.24376361  0.59656679
   0.85085566  0.34504030  0.67062537
   0.75768993  0.42814409  0.75969154
   0.66650938  0.50134309  0.84328041
   0.58637698  0.57901925  0.95019869
   0.49963682  0.65967726  0.00519083
   0.41733113  0.74945614  0.08162232
   0.41391292  0.74805670  0.24701597
   0.33467404  0.83321731  0.33557798
   0.24119371  0.90812034  0.42237152
   0.16209653  0.99369390  0.50909364
   0.08699267  0.06817779  0.57917223
   0.00177042  0.16574788  0.66296495
   0.91326168  0.24350630  0.74124265
   0.85414837  0.34209022  0.83899166
   0.75882395  0.40767453  0.91223318
   0.67474179  0.50238309  0.00176578
   0.58412916  0.58468158  0.08120601
   0.50139548  0.66598621  0.15133224
   0.49599921  0.65432040  0.33548528
   0.41205649  0.74976170  0.40066461
   0.32941744  0.85476704  0.48828380
   0.25972713  0.90782086  0.59359115
   0.16720926  0.00070785  0.67374726
   0.07027230  0.07631624  0.73404283
   0.00211515  0.15661707  0.82778390
   0.93163148  0.24313765  0.90357207
   0.84368565  0.32530331  0.99559209
   0.75678791  0.40683555  0.09047733
   0.66150733  0.49343212  0.15743358
   0.56509932  0.58374996  0.23657097
   0.17267051  0.16605907  0.82139763
   0.09442833  0.24501290  0.90070436
   0.01382152  0.33321028  0.98779303
   0.92683128  0.38661823  0.08254061
   0.83424418  0.49271235  0.15891925
   0.75696022  0.58536760  0.25857431
   0.66560242  0.67008152  0.33127085
   0.59416716  0.74826818  0.41013066
   0.50511989  0.83777112  0.48598246
   0.40290116  0.91938869  0.59777335
   0.32968551  0.00681873  0.67065330
   0.24720457  0.11125003  0.74538316
   0.26822237  0.09286326  0.90761800
   0.17338158  0.17129371  0.97951464
   0.08554743  0.24803117  0.06194828
   0.01311166  0.29694368  0.16349697
   0.91267495  0.40610054  0.25473679
   0.85606414  0.50122903  0.33513219
   0.76138391  0.58067811  0.39485404
   0.67938562  0.67130316  0.50198131
   0.58905447  0.75028473  0.60181807
   0.50566867  0.83998760  0.65257938
   0.40449851  0.93804329  0.75071341
   0.32948804  0.01550254  0.83480614
   0.32257746  0.99219392  0.99916570
   0.24648455  0.09396141  0.08359687
   0.15594545  0.16713584  0.16438589
   0.10044130  0.24624448  0.26429928
   0.00205357  0.33085268  0.33094339
   0.93572693  0.40312341  0.41402539
   0.83892293  0.49556472  0.49729611
   0.74195855  0.57318894  0.57227026
   0.66488813  0.64350736  0.67114800
   0.58734029  0.75533133  0.77112728
   0.49199571  0.84935299  0.84120842
   0.41854518  0.92351105  0.91061779
   0.41283016  0.90650782  0.06520236
   0.31747139  0.99544957  0.18276495
   0.23096335  0.10777358  0.25312086
   0.18202241  0.15078978  0.34577364
   0.08574453  0.25977428  0.41297961
   0.99593002  0.33566041  0.49352359
   0.92028313  0.42807731  0.58114421
   0.83789511  0.49465835  0.65671635
   0.76681608  0.56760571  0.75164284
   0.67616484  0.65329834  0.84264204
   0.58194665  0.74639899  0.92648522
   0.50190358  0.83541387  0.00096183
   0.48982613  0.83477016  0.15106209
   0.40916424  0.91801996  0.25005266
   0.32534957  0.99515577  0.33985489
   0.25810258  0.07215092  0.42084799
   0.16297837  0.16075149  0.49293073
   0.09293752  0.25372368  0.58077018
   0.99761148  0.34029521  0.65567289
   0.93303500  0.42368498  0.74608525
   0.84368829  0.49002746  0.84063275
   0.76607160  0.58712964  0.90901019
   0.68040969  0.64479643  0.00954207
   0.58351442  0.75219509  0.08757952
   0.56570178  0.74603608  0.23583874
   0.50406852  0.82662156  0.33456880
   0.42779185  0.93712720  0.41952084
   0.33697998  0.99887826  0.50937416
   0.23870844  0.08875129  0.59819661
   0.16584296  0.15992301  0.65263168
   0.08387776  0.24731255  0.75045962
   0.00338390  0.33551831  0.82186929
   0.93404906  0.42144660  0.91939383
   0.85002121  0.48316402  0.99336353
   0.76619272  0.57195331  0.07981204
   0.67230332  0.65575939  0.15954199
   0.24860047  0.26150249  0.75755324
   0.16627549  0.33050146  0.82162099
   0.10874225  0.39524025  0.92062261
   0.00103365  0.48454652  0.00993396
   0.93569224  0.58129181  0.08431982
   0.84180174  0.65730330  0.17059553
   0.76071244  0.73737892  0.25263174
   0.66430785  0.82466122  0.31935444
   0.59095475  0.92062313  0.40097420
   0.50133580  0.00106270  0.52238131
   0.41588937  0.09446659  0.57736455
   0.33274668  0.17707852  0.65917801
   0.33818856  0.16645666  0.83257590
   0.25529451  0.24766447  0.90184457
   0.18275216  0.34340177  0.99129562
   0.09043848  0.41365808  0.08397622
   0.99158876  0.48377583  0.17193965
   0.92075319  0.58683067  0.25191176
   0.83663265  0.65718339  0.34265508
   0.73735593  0.74838944  0.41211712
   0.65958495  0.83027005  0.50478224
   0.57547514  0.92975578  0.57561438
   0.50123528  0.01360182  0.67077488
   0.41892315  0.09745581  0.75136000
   0.42209959  0.08206724  0.91918678
   0.34795454  0.16359731  0.99585660
   0.26186910  0.25772308  0.08586898
   0.17087189  0.33187716  0.17892528
   0.08466185  0.40297714  0.25455215
   0.00975329  0.49693848  0.34280100
   0.92358790  0.58771562  0.40969881
   0.82407380  0.66391736  0.48909264
   0.75401120  0.72922845  0.58542017
   0.67068136  0.84232415  0.65210096
   0.57993719  0.92465600  0.72679058
   0.50879616  0.00626339  0.83645174
   0.50442289  0.99634697  0.99421004
   0.42015459  0.08098783  0.07985989
   0.34763359  0.16973517  0.16868200
   0.27182675  0.23602618  0.26141083
   0.16693826  0.34351880  0.33951726
   0.08551450  0.41163295  0.42235418
   0.00149039  0.50260591  0.50295000
   0.92002118  0.58675502  0.57855716
   0.82760342  0.66622724  0.67320636
   0.73901254  0.75446165  0.75253517
   0.66988963  0.84541315  0.84213804
   0.59328724  0.91629998  0.91737546
   0.58506407  0.92411883  0.07370138
   0.49280523  0.99012566  0.15434324
   0.40376543  0.07290208  0.23593918
   0.34867787  0.15460618  0.35174093
   0.25794700  0.26521293  0.41357407
   0.17720295  0.33374614  0.49551480
   0.08448168  0.41449642  0.58234070
   0.99678637  0.50162298  0.65847660
   0.91698361  0.57122186  0.74640500
   0.83760815  0.67464908  0.82032285
   0.74032610  0.73738012  0.91751285
   0.66841850  0.83182030  0.01765221
   0.67272679  0.82427914  0.16865672
   0.56993685  0.90880694  0.23099468
   0.50297767  0.01729150  0.31647485
   0.43298263  0.09581095  0.41768151
   0.32825633  0.16952502  0.49923104
   0.23954829  0.24905478  0.57264554
   0.16995739  0.33439751  0.67879619
   0.07993444  0.42697073  0.73213561
   0.01423842  0.47839731  0.82864267
   0.90646343  0.58341054  0.91884238
   0.83245795  0.66913935  0.99516873
   0.76078607  0.74683025  0.09483867
   0.31270381  0.33945793  0.66399713
   0.24864805  0.43775383  0.74138719
   0.17323281  0.51166227  0.83999806
   0.06595822  0.58188132  0.91907150
   0.99472436  0.66030156  0.99319983
   0.92155712  0.75170905  0.07103229
   0.82554352  0.83360810  0.16914635
   0.75665807  0.92059186  0.26015013
   0.66766216  0.99961563  0.32932771
   0.58493479  0.09142866  0.41477956
   0.49671230  0.17243435  0.48926355
   0.41300149  0.25445963  0.57405453
   0.42409885  0.24913736  0.74982466
   0.33451383  0.33796759  0.81828226
   0.24425166  0.42136182  0.92245220
   0.15901210  0.50716402  0.00042989
   0.07463156  0.59355193  0.06497759
   0.99588514  0.66384580  0.16913437
   0.91187936  0.73771668  0.25033269
   0.83708096  0.84039294  0.33209204
   0.73735798  0.91952440  0.41471654
   0.66178943  0.99501777  0.49170223
   0.58263163  0.09690299  0.58125925
   0.50428184  0.17549709  0.68409192
   0.51153832  0.15973441  0.82683561
   0.40526809  0.23928689  0.91029036
   0.30944172  0.33926269  0.99411691
   0.24053564  0.41898381  0.09879053
   0.14493773  0.50430751  0.16905920
   0.07303281  0.57885181  0.25596495
   0.99638579  0.65891994  0.33290385
   0.90845722  0.74723125  0.42189473
   0.83126143  0.82176113  0.50437388
   0.73701173  0.92636626  0.57438323
   0.66233276  0.00154460  0.65772821
   0.58435756  0.09098605  0.73072596
   0.59438169  0.09014667  0.90969480
   0.50341808  0.18014285  0.98721316
   0.40423343  0.26804391  0.07143799
   0.32006172  0.32420563  0.17814759
   0.25614360  0.42489768  0.24542712
   0.15626704  0.49717341  0.31915736
   0.08205122  0.58971789  0.40139396
   0.99499863  0.66314960  0.50205060
   0.91129116  0.74230015  0.58520512
   0.82840037  0.82644125  0.66703541
   0.73354864  0.91710546  0.74832798
   0.65259619  0.99498066  0.82509931
   0.68548581  0.99456645  0.99389176
   0.58024248  0.08481909  0.07688284
   0.49106254  0.17805326  0.17225471
   0.41894733  0.26044154  0.26100887
   0.33231357  0.35668842  0.33302668
   0.25011937  0.43750812  0.43183587
   0.14572373  0.50621278  0.50024710
   0.07763479  0.59825900  0.59811987
   0.01236893  0.67517309  0.68197482
   0.91608375  0.76313606  0.73849089
   0.81903018  0.83062085  0.82040311
   0.75412146  0.92255451  0.91186865
   0.74966187  0.91822276  0.09449884
   0.66310074  0.99616714  0.15851171
   0.58466696  0.07530571  0.22334655
   0.49086875  0.16310213  0.31606570
   0.40356721  0.25772586  0.41128879
   0.33478642  0.34312853  0.49059695
   0.24019173  0.40484750  0.58721963
   0.16348788  0.50479205  0.65966340
   0.08424645  0.58452005  0.74405946
   0.98135588  0.66426037  0.83709891
   0.90915485  0.76043875  0.92331403
   0.82033999  0.83062762  0.00405682
   0.41721855  0.42709172  0.59053127
   0.32094063  0.49338764  0.67921607
   0.22729957  0.59554463  0.74581808
   0.16154755  0.65842067  0.82938885
   0.08978447  0.75543264  0.90249953
   0.99485115  0.82149647  0.99358664
   0.90175774  0.91131884  0.08387222
   0.84220546  0.00303021  0.17812934
   0.75080437  0.08677681  0.25479897
   0.66482466  0.14348102  0.30848606
   0.58823347  0.22356434  0.40698378
   0.49254637  0.34532092  0.48640814
   0.48341733  0.35205965  0.67887503
   0.40340400  0.42779227  0.74915371
   0.32446150  0.51024025  0.83916476
   0.24330834  0.58554742  0.91591574
   0.16340758  0.66734843  0.98706019
   0.07966599  0.75099616  0.07456906
   0.99304020  0.82984926  0.16721219
   0.90057007  0.92230828  0.25462664
   0.83353224  0.00303107  0.34816314
   0.73884144  0.09136888  0.43086527
   0.66627319  0.17681631  0.51590199
   0.57763045  0.26877184  0.59245686
   0.57203203  0.26959769  0.76702329
   0.48034664  0.35550982  0.84639520
   0.40519765  0.42730700  0.93346430
   0.32065308  0.50762360  0.01502519
   0.23094063  0.59288313  0.09158467
   0.16074395  0.67240835  0.16754777
   0.06491100  0.75734589  0.27273386
   0.97570202  0.84422911  0.33118581
   0.91263386  0.92272407  0.43024856
   0.84299010  0.00710823  0.51680208
   0.75831303  0.08373278  0.59208177
   0.67020492  0.17444392  0.67484244
   0.68018186  0.18240327  0.81423096
   0.57754107  0.24846328  0.91848875
   0.49721439  0.33352301  0.99568145
   0.39873875  0.40296741  0.08533598
   0.34269839  0.48979215  0.17916594
   0.23379575  0.58037104  0.24299961
   0.16492144  0.66637437  0.32885269
   0.08394206  0.75780171  0.41355038
   0.98073911  0.81667474  0.50790385
   0.90015632  0.90794998  0.58614272
   0.85114014  0.99411345  0.68880656
   0.75289954  0.08067275  0.74475103
   0.76125083  0.06972493  0.90833227
   0.67784661  0.17511367  0.99687872
   0.58393482  0.26452563  0.07495667
   0.49820889  0.32747146  0.15457324
   0.41838182  0.40854697  0.25766659
   0.33072528  0.50772387  0.32953023
   0.26300707  0.58046713  0.40752752
   0.16453479  0.65897967  0.48721378
   0.09186438  0.73959709  0.58294865
   0.00358937  0.81999996  0.66173265
   0.92088328  0.89951032  0.75553426
   0.84245448  0.97940949  0.82239051
   0.83263512  0.99063436  0.01218946
   0.75396100  0.07850650  0.08037697
   0.66687253  0.16941261  0.15426539
   0.59447447  0.26332235  0.25419805
   0.50073500  0.34105104  0.34936707
   0.42274409  0.44032108  0.42497019
   0.33322111  0.51015602  0.52419274
   0.25915740  0.58984145  0.58316921
   0.17219523  0.69858824  0.67895256
   0.06754080  0.75867951  0.77367971
   0.99242501  0.84469564  0.85050184
   0.91164739  0.90961331  0.93654455
