 432 432   0   0
  0.2035379E+02  0.2064000E-08  0.2064000E-08  0.2064000E-08  0.5000000E-15
  1.000000000000000E-004
  CAR 
 Li                                      
      3.46801404     -3.43383511  301      0.38194515      1.00000000
     -3.434  0.0000E+00  0.0000E+00
     -3.411  0.0000E+00  0.0000E+00
     -3.388  0.0000E+00  0.0000E+00
     -3.365  0.0000E+00  0.0000E+00
     -3.342  0.0000E+00  0.0000E+00
     -3.319  0.0000E+00  0.0000E+00
     -3.296  0.4826E-14  0.1110E-15
     -3.273  0.2532E-10  0.5826E-12
     -3.250  0.4065E-07  0.9359E-09
     -3.227  0.2068E-04  0.4767E-06
     -3.204  0.3363E-02  0.7784E-04
     -3.181  0.1770E+00  0.4151E-02
     -3.158  0.3069E+01  0.7476E-01
     -3.135  0.1785E+02  0.4855E+00
     -3.112  0.3546E+02  0.1301E+01
     -3.089  0.2424E+02  0.1859E+01
     -3.066  0.5954E+01  0.1996E+01
     -3.043  0.4935E+01  0.2110E+01
     -3.020  0.2739E+02  0.2740E+01
     -2.997  0.7060E+02  0.4364E+01
     -2.974  0.8727E+02  0.6372E+01
     -2.951  0.5395E+02  0.7613E+01
     -2.928  0.1580E+02  0.7976E+01
     -2.905  0.9872E+01  0.8203E+01
     -2.882  0.3862E+02  0.9092E+01
     -2.859  0.8105E+02  0.1096E+02
     -2.836  0.8311E+02  0.1287E+02
     -2.813  0.4051E+02  0.1380E+02
     -2.790  0.1178E+02  0.1407E+02
     -2.767  0.2440E+02  0.1463E+02
     -2.744  0.6870E+02  0.1621E+02
     -2.721  0.1057E+03  0.1865E+02
     -2.698  0.9403E+02  0.2081E+02
     -2.675  0.4410E+02  0.2182E+02
     -2.652  0.2163E+02  0.2232E+02
     -2.629  0.5497E+02  0.2359E+02
     -2.606  0.1151E+03  0.2624E+02
     -2.583  0.1455E+03  0.2958E+02
     -2.560  0.1189E+03  0.3232E+02
     -2.537  0.5822E+02  0.3366E+02
     -2.514  0.1893E+02  0.3409E+02
     -2.491  0.3191E+02  0.3483E+02
     -2.468  0.7733E+02  0.3661E+02
     -2.445  0.8944E+02  0.3866E+02
     -2.422  0.4720E+02  0.3975E+02
     -2.399  0.1529E+02  0.4010E+02
     -2.376  0.3290E+02  0.4086E+02
     -2.353  0.9530E+02  0.4305E+02
     -2.330  0.1502E+03  0.4651E+02
     -2.307  0.1377E+03  0.4967E+02
     -2.284  0.7892E+02  0.5149E+02
     -2.261  0.4494E+02  0.5252E+02
     -2.238  0.7834E+02  0.5432E+02
     -2.215  0.1432E+03  0.5762E+02
     -2.192  0.1898E+03  0.6199E+02
     -2.168  0.1866E+03  0.6628E+02
     -2.145  0.1177E+03  0.6899E+02
     -2.122  0.4172E+02  0.6995E+02
     -2.099  0.2793E+02  0.7059E+02
     -2.076  0.6240E+02  0.7203E+02
     -2.053  0.8529E+02  0.7399E+02
     -2.030  0.6294E+02  0.7544E+02
     -2.007  0.2795E+02  0.7608E+02
     -1.984  0.4228E+02  0.7705E+02
     -1.961  0.1079E+03  0.7953E+02
     -1.938  0.1646E+03  0.8332E+02
     -1.915  0.1655E+03  0.8713E+02
     -1.892  0.9795E+02  0.8938E+02
     -1.869  0.4183E+02  0.9034E+02
     -1.846  0.6645E+02  0.9187E+02
     -1.823  0.1407E+03  0.9511E+02
     -1.800  0.1960E+03  0.9962E+02
     -1.777  0.1908E+03  0.1040E+03
     -1.754  0.1241E+03  0.1069E+03
     -1.731  0.5066E+02  0.1080E+03
     -1.708  0.4828E+02  0.1091E+03
     -1.685  0.1056E+03  0.1116E+03
     -1.662  0.1496E+03  0.1150E+03
     -1.639  0.1338E+03  0.1181E+03
     -1.616  0.7631E+02  0.1198E+03
     -1.593  0.6581E+02  0.1214E+03
     -1.570  0.1266E+03  0.1243E+03
     -1.547  0.1896E+03  0.1286E+03
     -1.524  0.1970E+03  0.1332E+03
     -1.501  0.1382E+03  0.1363E+03
     -1.478  0.7692E+02  0.1381E+03
     -1.455  0.8083E+02  0.1400E+03
     -1.432  0.1394E+03  0.1432E+03
     -1.409  0.1867E+03  0.1475E+03
     -1.386  0.1819E+03  0.1517E+03
     -1.363  0.1268E+03  0.1546E+03
     -1.340  0.6320E+02  0.1560E+03
     -1.317  0.6088E+02  0.1574E+03
     -1.294  0.1103E+03  0.1600E+03
     -1.271  0.1417E+03  0.1632E+03
     -1.248  0.1237E+03  0.1661E+03
     -1.225  0.6963E+02  0.1677E+03
     -1.202  0.4374E+02  0.1687E+03
     -1.179  0.8338E+02  0.1706E+03
     -1.156  0.1320E+03  0.1736E+03
     -1.133  0.1374E+03  0.1768E+03
     -1.110  0.1052E+03  0.1792E+03
     -1.087  0.9561E+02  0.1814E+03
     -1.064  0.1628E+03  0.1852E+03
     -1.041  0.2400E+03  0.1907E+03
     -1.018  0.2681E+03  0.1969E+03
     -0.995  0.2541E+03  0.2027E+03
     -0.972  0.1976E+03  0.2072E+03
     -0.949  0.1242E+03  0.2101E+03
     -0.926  0.1202E+03  0.2129E+03
     -0.903  0.1716E+03  0.2168E+03
     -0.880  0.1942E+03  0.2213E+03
     -0.857  0.1678E+03  0.2251E+03
     -0.834  0.9544E+02  0.2273E+03
     -0.811  0.5338E+02  0.2286E+03
     -0.788  0.9373E+02  0.2307E+03
     -0.765  0.1603E+03  0.2344E+03
     -0.742  0.1716E+03  0.2384E+03
     -0.719  0.1232E+03  0.2412E+03
     -0.696  0.9538E+02  0.2434E+03
     -0.673  0.1420E+03  0.2467E+03
     -0.650  0.2052E+03  0.2514E+03
     -0.627  0.2300E+03  0.2567E+03
     -0.604  0.2028E+03  0.2613E+03
     -0.581  0.1497E+03  0.2648E+03
     -0.558  0.1127E+03  0.2674E+03
     -0.535  0.1022E+03  0.2697E+03
     -0.512  0.7227E+02  0.2714E+03
     -0.489  0.4076E+02  0.2723E+03
     -0.466  0.7389E+02  0.2740E+03
     -0.443  0.1616E+03  0.2777E+03
     -0.420  0.2209E+03  0.2828E+03
     -0.397  0.2241E+03  0.2880E+03
     -0.374  0.2080E+03  0.2928E+03
     -0.351  0.1859E+03  0.2970E+03
     -0.328  0.1696E+03  0.3009E+03
     -0.305  0.1672E+03  0.3048E+03
     -0.282  0.1896E+03  0.3092E+03
     -0.259  0.2196E+03  0.3142E+03
     -0.236  0.2374E+03  0.3197E+03
     -0.213  0.2330E+03  0.3250E+03
     -0.190  0.1983E+03  0.3296E+03
     -0.167  0.1452E+03  0.3329E+03
     -0.144  0.1202E+03  0.3357E+03
     -0.121  0.1382E+03  0.3389E+03
     -0.098  0.1520E+03  0.3424E+03
     -0.075  0.1522E+03  0.3459E+03
     -0.052  0.1700E+03  0.3498E+03
     -0.029  0.1993E+03  0.3544E+03
     -0.006  0.2218E+03  0.3595E+03
      0.017  0.2358E+03  0.3649E+03
      0.040  0.2307E+03  0.3702E+03
      0.063  0.2064E+03  0.3750E+03
      0.086  0.1845E+03  0.3792E+03
      0.109  0.1812E+03  0.3834E+03
      0.132  0.1951E+03  0.3879E+03
      0.155  0.2041E+03  0.3925E+03
      0.178  0.1948E+03  0.3970E+03
      0.201  0.1656E+03  0.4008E+03
      0.224  0.1337E+03  0.4039E+03
      0.247  0.1324E+03  0.4070E+03
      0.270  0.1537E+03  0.4105E+03
      0.293  0.1756E+03  0.4145E+03
      0.316  0.1963E+03  0.4191E+03
      0.339  0.2062E+03  0.4238E+03
      0.362  0.1968E+03  0.4283E+03
      0.385  0.1857E+03  0.4326E+03
      0.408  0.1868E+03  0.4369E+03
      0.431  0.1863E+03  0.4412E+03
      0.454  0.1921E+03  0.4456E+03
      0.477  0.2056E+03  0.4503E+03
      0.500  0.2001E+03  0.4549E+03
      0.523  0.1872E+03  0.4592E+03
      0.546  0.1833E+03  0.4635E+03
      0.569  0.1870E+03  0.4678E+03
      0.592  0.1843E+03  0.4720E+03
      0.615  0.1830E+03  0.4762E+03
      0.638  0.1967E+03  0.4807E+03
      0.661  0.2181E+03  0.4858E+03
      0.684  0.2362E+03  0.4912E+03
      0.707  0.2470E+03  0.4969E+03
      0.730  0.2438E+03  0.5025E+03
      0.753  0.2319E+03  0.5078E+03
      0.776  0.2283E+03  0.5131E+03
      0.799  0.2396E+03  0.5186E+03
      0.822  0.2495E+03  0.5243E+03
      0.845  0.2400E+03  0.5298E+03
      0.868  0.2350E+03  0.5352E+03
      0.891  0.2273E+03  0.5405E+03
      0.914  0.2172E+03  0.5455E+03
      0.937  0.2147E+03  0.5504E+03
      0.960  0.2164E+03  0.5554E+03
      0.983  0.2129E+03  0.5603E+03
      1.006  0.2106E+03  0.5651E+03
      1.029  0.2087E+03  0.5699E+03
      1.052  0.2158E+03  0.5749E+03
      1.075  0.2189E+03  0.5799E+03
      1.098  0.2109E+03  0.5848E+03
      1.121  0.2092E+03  0.5896E+03
      1.144  0.2085E+03  0.5944E+03
      1.167  0.2080E+03  0.5992E+03
      1.190  0.2029E+03  0.6038E+03
      1.213  0.1954E+03  0.6083E+03
      1.236  0.1885E+03  0.6127E+03
      1.259  0.1881E+03  0.6170E+03
      1.282  0.1906E+03  0.6214E+03
      1.305  0.1827E+03  0.6256E+03
      1.328  0.1808E+03  0.6298E+03
      1.351  0.1819E+03  0.6339E+03
      1.374  0.1798E+03  0.6381E+03
      1.397  0.1801E+03  0.6422E+03
      1.420  0.1708E+03  0.6461E+03
      1.443  0.1485E+03  0.6496E+03
      1.466  0.1361E+03  0.6527E+03
      1.489  0.1498E+03  0.6561E+03
      1.512  0.1531E+03  0.6597E+03
      1.535  0.1494E+03  0.6631E+03
      1.559  0.1495E+03  0.6665E+03
      1.582  0.1527E+03  0.6701E+03
      1.605  0.1705E+03  0.6740E+03
      1.628  0.1769E+03  0.6780E+03
      1.651  0.1751E+03  0.6821E+03
      1.674  0.1811E+03  0.6862E+03
      1.697  0.1825E+03  0.6904E+03
      1.720  0.1820E+03  0.6946E+03
      1.743  0.1790E+03  0.6987E+03
      1.766  0.1773E+03  0.7028E+03
      1.789  0.1843E+03  0.7071E+03
      1.812  0.1786E+03  0.7112E+03
      1.835  0.1705E+03  0.7151E+03
      1.858  0.1748E+03  0.7191E+03
      1.881  0.1758E+03  0.7232E+03
      1.904  0.1765E+03  0.7272E+03
      1.927  0.1786E+03  0.7313E+03
      1.950  0.1790E+03  0.7354E+03
      1.973  0.1723E+03  0.7394E+03
      1.996  0.1726E+03  0.7434E+03
      2.019  0.1705E+03  0.7473E+03
      2.042  0.1597E+03  0.7510E+03
      2.065  0.1491E+03  0.7544E+03
      2.088  0.1331E+03  0.7575E+03
      2.111  0.1251E+03  0.7603E+03
      2.134  0.1347E+03  0.7634E+03
      2.157  0.1338E+03  0.7665E+03
      2.180  0.1277E+03  0.7695E+03
      2.203  0.1320E+03  0.7725E+03
      2.226  0.1326E+03  0.7755E+03
      2.249  0.1174E+03  0.7782E+03
      2.272  0.1056E+03  0.7807E+03
      2.295  0.1058E+03  0.7831E+03
      2.318  0.1079E+03  0.7856E+03
      2.341  0.1160E+03  0.7883E+03
      2.364  0.1145E+03  0.7909E+03
      2.387  0.9044E+02  0.7930E+03
      2.410  0.6462E+02  0.7945E+03
      2.433  0.4325E+02  0.7955E+03
      2.456  0.2606E+02  0.7961E+03
      2.479  0.3199E+02  0.7968E+03
      2.502  0.5465E+02  0.7981E+03
      2.525  0.6728E+02  0.7996E+03
      2.548  0.6640E+02  0.8011E+03
      2.571  0.6243E+02  0.8026E+03
      2.594  0.6782E+02  0.8041E+03
      2.617  0.7410E+02  0.8058E+03
      2.640  0.8063E+02  0.8077E+03
      2.663  0.9309E+02  0.8098E+03
      2.686  0.1038E+03  0.8122E+03
      2.709  0.1064E+03  0.8147E+03
      2.732  0.1099E+03  0.8172E+03
      2.755  0.1194E+03  0.8199E+03
      2.778  0.1324E+03  0.8230E+03
      2.801  0.1415E+03  0.8262E+03
      2.824  0.1377E+03  0.8294E+03
      2.847  0.1279E+03  0.8323E+03
      2.870  0.1225E+03  0.8352E+03
      2.893  0.1207E+03  0.8379E+03
      2.916  0.1199E+03  0.8407E+03
      2.939  0.1175E+03  0.8434E+03
      2.962  0.1068E+03  0.8459E+03
      2.985  0.1004E+03  0.8482E+03
      3.008  0.9318E+02  0.8503E+03
      3.031  0.8939E+02  0.8524E+03
      3.054  0.9738E+02  0.8546E+03
      3.077  0.1065E+03  0.8571E+03
      3.100  0.1147E+03  0.8597E+03
      3.123  0.1152E+03  0.8624E+03
      3.146  0.9183E+02  0.8645E+03
      3.169  0.5021E+02  0.8656E+03
      3.192  0.1465E+02  0.8660E+03
      3.215  0.1811E+01  0.8660E+03
      3.238  0.8388E-01  0.8660E+03
      3.261  0.1366E-02  0.8660E+03
      3.284  0.7526E-05  0.8660E+03
      3.307  0.1369E-07  0.8660E+03
      3.330  0.8066E-11  0.8660E+03
      3.353  0.0000E+00  0.8660E+03
      3.376  0.0000E+00  0.8660E+03
      3.399  0.0000E+00  0.8660E+03
      3.422  0.0000E+00  0.8660E+03
      3.445  0.0000E+00  0.8660E+03
      3.468  0.0000E+00  0.8660E+03
