 running on   64 total cores
 distrk:  each k-point on   32 cores,    2 groups
 distr:  one band on   32 cores,    1 groups
 vasp.6.2.1 16May21 (build Nov 23 2021 15:40:41) complex                        
  
 POSCAR found type information on POSCAR Li
 POSCAR found :  1 types and     432 ions
 scaLAPACK will be used
 -----------------------------------------------------------------------------
|                                                                             |
|           W    W    AA    RRRRR   N    N  II  N    N   GGGG   !!!           |
|           W    W   A  A   R    R  NN   N  II  NN   N  G    G  !!!           |
|           W    W  A    A  R    R  N N  N  II  N N  N  G       !!!           |
|           W WW W  AAAAAA  RRRRR   N  N N  II  N  N N  G  GGG   !            |
|           WW  WW  A    A  R   R   N   NN  II  N   NN  G    G                |
|           W    W  A    A  R    R  N    N  II  N    N   GGGG   !!!           |
|                                                                             |
|     For optimal performance we recommend to set                             |
|       NCORE = 2 up to number-of-cores-per-socket                            |
|     NCORE specifies how many cores store one orbital (NPAR=cpu/NCORE).      |
|     This setting can greatly improve the performance of VASP for DFT.       |
|     The default, NCORE=1 might be grossly inefficient on modern             |
|     multi-core architectures or massively parallel machines. Do your        |
|     own testing! More info at https://www.vasp.at/wiki/index.php/NCORE      |
|     Unfortunately you need to use the default for GW and RPA                |
|     calculations (for HF NCORE is supported but not extensively tested      |
|     yet).                                                                   |
|                                                                             |
 -----------------------------------------------------------------------------

 -----------------------------------------------------------------------------
|                                                                             |
|               ----> ADVICE to this user running VASP <----                  |
|                                                                             |
|     You have a (more or less) 'large supercell' and for larger cells it     |
|     might be more efficient to use real-space projection operators.         |
|     Therefore, try LREAL= Auto in the INCAR file.                           |
|     Mind: If you want to do very accurate calculations, keep the            |
|     reciprocal projection scheme (i.e. LREAL=.FALSE.).                      |
|                                                                             |
 -----------------------------------------------------------------------------

 LDA part: xc-table for Pade appr. of Perdew
 POSCAR found type information on POSCAR Li
 POSCAR found :  1 types and     432 ions
 POSCAR, INCAR and KPOINTS ok, starting setup
 FFT: planning ...
 WAVECAR not read
 entering main loop
       N       E                     dE             d eps       ncg     rms          rms(c)
DAV:   1    -0.222581732133E+03   -0.22258E+03   -0.10483E+05  3464   0.656E+02
DAV:   2    -0.746684943859E+03   -0.52410E+03   -0.47823E+03  4004   0.675E+01
DAV:   3    -0.784776338058E+03   -0.38091E+02   -0.34858E+02  4432   0.144E+01
DAV:   4    -0.786073538441E+03   -0.12972E+01   -0.12793E+01  4032   0.291E+00
DAV:   5    -0.786104447837E+03   -0.30909E-01   -0.30864E-01  4184   0.471E-01    0.104E+01
DAV:   6    -0.774907574282E+03    0.11197E+02   -0.13627E+01  3960   0.456E+00    0.614E+00
DAV:   7    -0.773391428739E+03    0.15161E+01   -0.93025E+00  4088   0.428E+00    0.498E+00
DAV:   8    -0.770222554649E+03    0.31689E+01   -0.50945E+00  4024   0.275E+00    0.248E+00
DAV:   9    -0.769808901409E+03    0.41365E+00   -0.26802E+00  3848   0.139E+00    0.128E+00
DAV:  10    -0.769863700343E+03   -0.54799E-01   -0.64224E-01  4032   0.842E-01    0.107E+00
DAV:  11    -0.769747767345E+03    0.11593E+00   -0.23446E-01  3960   0.558E-01    0.549E-01
DAV:  12    -0.769738866508E+03    0.89008E-02   -0.63654E-02  3792   0.222E-01    0.278E-01
DAV:  13    -0.769739410423E+03   -0.54392E-03   -0.15568E-02  4088   0.147E-01    0.192E-01
DAV:  14    -0.769736470668E+03    0.29398E-02   -0.55146E-03  4008   0.102E-01    0.106E-01
DAV:  15    -0.769735762026E+03    0.70864E-03   -0.19554E-03  3968   0.495E-02    0.496E-02
DAV:  16    -0.769735745527E+03    0.16498E-04   -0.77463E-04  3912   0.278E-02    0.279E-02
DAV:  17    -0.769735674087E+03    0.71440E-04   -0.23305E-04  3872   0.178E-02    0.162E-02
DAV:  18    -0.769735648987E+03    0.25101E-04   -0.54569E-05  3784   0.743E-03    0.711E-03
DAV:  19    -0.769735644414E+03    0.45727E-05   -0.13187E-05  2152   0.401E-03
   1 F= -.76973564E+03 E0= -.76969412E+03  d E =-.830472E-01
