Li                                      
           1
    20.640000    0.000000    0.000000
     0.000000   20.640000    0.000000
     0.000000    0.000000   20.640000
   Li
   432
Direct configuration=     1
   0.02540673  0.98958181  0.01888545
   0.92050649  0.08073456  0.10837767
   0.83622893  0.17935392  0.15950683
   0.75983682  0.28394258  0.24782974
   0.66045113  0.34887264  0.32188256
   0.56163701  0.43203436  0.39900070
   0.46859222  0.49240552  0.51073504
   0.41738247  0.60591717  0.59465232
   0.32777753  0.67090421  0.67060995
   0.23651711  0.76584873  0.74002299
   0.15858667  0.80975265  0.82232048
   0.08790862  0.90844492  0.93104122
   0.07402800  0.92880423  0.12357775
   0.01194929  0.00831205  0.19398952
   0.93432958  0.09904704  0.24601500
   0.83610957  0.17674791  0.34485656
   0.76320775  0.23468831  0.41383967
   0.63790942  0.31730146  0.50914708
   0.55787541  0.42731161  0.59044454
   0.48451055  0.52050717  0.68255598
   0.40397118  0.58742189  0.76215763
   0.31086006  0.69895363  0.83990232
   0.24022584  0.77680060  0.92169348
   0.15259969  0.82154106  0.02703154
   0.15033468  0.79400855  0.17897236
   0.07176614  0.91778011  0.25173981
   0.00872498  0.02426002  0.35246196
   0.93176798  0.10819970  0.43159129
   0.86586832  0.17404375  0.53444306
   0.75422705  0.24414394  0.59381487
   0.67476898  0.34194827  0.67983467
   0.53825689  0.40007630  0.73802960
   0.47182614  0.51335887  0.82989298
   0.41086787  0.60482584  0.89922438
   0.31382617  0.68330358  0.00428944
   0.27742599  0.76731665  0.11178189
   0.25761897  0.69821544  0.26311399
   0.17766355  0.81539452  0.32277021
   0.07572636  0.90537251  0.38821709
   0.01543360  0.99421971  0.46840867
   0.94172212  0.07885324  0.58756552
   0.85033108  0.19544137  0.67209058
   0.74332049  0.27921244  0.76454452
   0.65459644  0.32753269  0.82952901
   0.57680126  0.41355226  0.89717578
   0.51129722  0.56424810  0.96301165
   0.41837070  0.58343949  0.07768935
   0.36561229  0.67081901  0.14863352
   0.35363981  0.62251353  0.32119334
   0.27546751  0.73150716  0.39026153
   0.17419354  0.81756517  0.46485607
   0.07814777  0.90993897  0.56034366
   0.01010555  0.96774427  0.66966678
   0.91604891  0.08561251  0.75789999
   0.82395297  0.14193961  0.83483773
   0.74765550  0.23870078  0.93183641
   0.67004630  0.33675035  0.99350610
   0.57346210  0.43228863  0.06955850
   0.51632040  0.51353767  0.15248718
   0.43951806  0.54244336  0.22483061
   0.44856096  0.56911612  0.41930659
   0.34143621  0.65068530  0.48397308
   0.26675444  0.76773908  0.54999384
   0.15266162  0.82872157  0.63974079
   0.08563718  0.88132483  0.74650663
   0.00343683  0.97237691  0.84106768
   0.90699546  0.06823281  0.93031820
   0.82603354  0.15314689  0.99966211
   0.75292504  0.24006285  0.07520959
   0.66588475  0.36135727  0.14975755
   0.60207576  0.43126111  0.22645283
   0.50959353  0.47696286  0.33276636
   0.08813395  0.05355050  0.93219111
   0.01114978  0.14694556  0.98033813
   0.91611678  0.21823084  0.07528370
   0.85850458  0.32772382  0.15569150
   0.75691592  0.40966453  0.24793005
   0.68013543  0.49189987  0.32602629
   0.58289794  0.55424483  0.44278758
   0.53159665  0.65508522  0.49441432
   0.41563810  0.74519891  0.55527201
   0.33402864  0.83514698  0.65866410
   0.24551246  0.89300519  0.75501132
   0.16425897  0.98243692  0.81039661
   0.18240693  0.96865407  0.01087235
   0.11045965  0.09155465  0.06911013
   0.01777568  0.19021051  0.14923989
   0.93128528  0.25894942  0.25217787
   0.85962466  0.33123709  0.34323551
   0.74535789  0.41029861  0.44660068
   0.64902288  0.47076406  0.50116789
   0.59156559  0.56205908  0.57614080
   0.51100548  0.68068070  0.69605973
   0.41999078  0.76774643  0.73813695
   0.31607364  0.83883058  0.83238830
   0.22597537  0.89912724  0.92745377
   0.24182986  0.90050408  0.12593751
   0.14913857  0.02228287  0.18853195
   0.06243744  0.10598831  0.25915192
   0.98560648  0.18104449  0.33999566
   0.91306629  0.24134598  0.40541163
   0.84242225  0.32285780  0.50543087
   0.74099168  0.40966226  0.60040756
   0.66319553  0.47785763  0.66987632
   0.57983723  0.59213958  0.76881142
   0.47957467  0.70241496  0.81631459
   0.41045201  0.76856022  0.89663874
   0.32996693  0.84109364  0.01244425
   0.35263932  0.82475154  0.18026779
   0.22441388  0.90218999  0.24719658
   0.15399522  0.02407859  0.32766368
   0.09773784  0.11057054  0.42469175
   0.02043267  0.18021394  0.50010110
   0.92315513  0.25256230  0.57352588
   0.87125320  0.33803127  0.66762961
   0.76403460  0.41006037  0.73856837
   0.65175560  0.47733793  0.81569826
   0.61548354  0.61456311  0.88385697
   0.51056083  0.66265401  0.99674811
   0.42722397  0.77132436  0.04900384
   0.44928258  0.73875598  0.24519963
   0.36498022  0.81760830  0.32203040
   0.24542263  0.91205022  0.38319322
   0.13704109  0.99344982  0.49082270
   0.09349242  0.07981335  0.60455082
   0.03097961  0.18655437  0.68092392
   0.92548122  0.21885060  0.79193487
   0.83225910  0.33922062  0.85213199
   0.74281068  0.41174209  0.91067911
   0.65140625  0.51510764  0.00577345
   0.59549352  0.58263844  0.10625566
   0.51630678  0.68061388  0.16305513
   0.50292336  0.65319546  0.31732862
   0.45271898  0.72448190  0.40880104
   0.34027576  0.85756518  0.47624973
   0.25918510  0.92476337  0.58621623
   0.17945036  0.98201230  0.64997094
   0.08099242  0.06281698  0.74773454
   0.02256755  0.12495386  0.83474461
   0.91526804  0.22110284  0.90215020
   0.84546725  0.32908315  0.00919304
   0.77977404  0.41861428  0.07836390
   0.68112467  0.50137469  0.17093759
   0.58002313  0.57167554  0.25760161
   0.13509990  0.15248942  0.84812119
   0.07922298  0.26043614  0.90398773
   0.98660459  0.33314247  0.96891813
   0.91520208  0.43381892  0.08796830
   0.82927139  0.51427159  0.17555013
   0.75163187  0.59474671  0.26537352
   0.65930096  0.63885467  0.34982246
   0.59147478  0.75446943  0.42433097
   0.47628954  0.84825806  0.50412700
   0.42402149  0.93946596  0.56269862
   0.34467291  0.00232239  0.67110530
   0.23445719  0.05045912  0.74659010
   0.23931516  0.06531398  0.91589302
   0.16960326  0.16038844  0.00991562
   0.10907743  0.26363852  0.07373771
   0.98516849  0.32060003  0.16012067
   0.91636394  0.44214587  0.24885316
   0.81414893  0.50143156  0.35919922
   0.73087819  0.59500826  0.43960739
   0.65251941  0.67556035  0.49585301
   0.56379588  0.74497617  0.57330919
   0.50229086  0.83603509  0.65259987
   0.41309964  0.90735258  0.72470539
   0.32599820  0.97895603  0.83623010
   0.34181214  0.96903137  0.98698798
   0.23455112  0.06629621  0.08480203
   0.15579369  0.17707486  0.14896591
   0.07531977  0.25927308  0.25674311
   0.01822039  0.33919978  0.32558282
   0.92623800  0.42947222  0.44388733
   0.83553172  0.51203875  0.50838262
   0.72208301  0.59538181  0.59577471
   0.64838714  0.68413865  0.68278175
   0.57647290  0.77399650  0.75156461
   0.50629291  0.83693894  0.84320025
   0.41860119  0.90370619  0.91326061
   0.41590293  0.89930530  0.11424981
   0.33122569  0.00724198  0.16989256
   0.24814212  0.09492327  0.23493106
   0.15505632  0.18657068  0.32825489
   0.07991227  0.24664888  0.43581919
   0.99322153  0.33446252  0.51255786
   0.93485336  0.41877292  0.58767523
   0.84346931  0.50720012  0.65832868
   0.77325431  0.57378053  0.72956442
   0.67632005  0.68104641  0.83280122
   0.58792915  0.75730206  0.91010275
   0.50456795  0.85416787  0.99710464
   0.52394460  0.81831368  0.17863199
   0.44283341  0.92557608  0.24697481
   0.32519150  0.98435919  0.31090301
   0.25825293  0.04989188  0.40203711
   0.17126475  0.15079192  0.50523747
   0.09760357  0.26217872  0.61047553
   0.97474489  0.32927892  0.66340330
   0.91153576  0.42115483  0.76080814
   0.83481619  0.50290529  0.80667750
   0.72728835  0.57684765  0.91128426
   0.65763849  0.67946628  0.02867709
   0.57200725  0.78863570  0.06657547
   0.59849197  0.76697453  0.28652757
   0.52790395  0.84873673  0.34201257
   0.41862661  0.93745854  0.40004346
   0.33256798  0.00287067  0.48660919
   0.25763145  0.05287899  0.59358356
   0.18013513  0.17548672  0.67168466
   0.08027290  0.26614719  0.76767197
   0.99133031  0.34898432  0.84912964
   0.91428281  0.42100674  0.91347619
   0.81011952  0.49934770  0.99942164
   0.77068488  0.58496147  0.07445409
   0.64728910  0.65158036  0.19115710
   0.25781745  0.23282422  0.78232146
   0.18152294  0.35162790  0.82456409
   0.08382875  0.42639589  0.92439067
   0.00423214  0.50656031  0.00693594
   0.90533984  0.58515589  0.07302765
   0.82086257  0.67479176  0.15227610
   0.74296776  0.73999258  0.27017324
   0.64909754  0.83084967  0.33331061
   0.58395218  0.91613763  0.42945375
   0.50709700  0.01229562  0.50142401
   0.41362612  0.08530418  0.58348070
   0.32397792  0.13950296  0.68504279
   0.32430252  0.13469245  0.84076174
   0.23932651  0.23036673  0.92133260
   0.18737027  0.36357179  0.98175055
   0.08613137  0.41525548  0.06330952
   0.97008690  0.50811773  0.17194169
   0.90807338  0.58825542  0.26935275
   0.82080504  0.66439464  0.35072937
   0.72863111  0.76612079  0.40643414
   0.67323020  0.84411663  0.48736100
   0.56735323  0.92831348  0.58132620
   0.48852313  0.01611392  0.65507009
   0.43142079  0.08681823  0.75702315
   0.38964026  0.06358167  0.94070898
   0.32515830  0.16080249  0.01581953
   0.24095772  0.25824024  0.07233028
   0.13023492  0.35793715  0.15620315
   0.04742769  0.44620116  0.25719810
   0.97977925  0.52013084  0.33296280
   0.88955067  0.58170473  0.44282161
   0.82803053  0.68438539  0.52552841
   0.74516591  0.77239770  0.57889387
   0.63476512  0.82200771  0.63772139
   0.56746456  0.91828377  0.72813964
   0.48579024  0.97913270  0.82873424
   0.50578484  0.98867367  0.00604410
   0.42406262  0.07869907  0.07196174
   0.31893873  0.18503554  0.12891354
   0.22936662  0.27539879  0.22466127
   0.14420823  0.34815890  0.32096048
   0.07528958  0.41657293  0.42736868
   0.98919573  0.50198914  0.52794646
   0.89846901  0.60792602  0.59371405
   0.85201355  0.67585920  0.66290376
   0.72578998  0.78555910  0.71483580
   0.68204182  0.84388183  0.82957585
   0.60055760  0.91419308  0.90844291
   0.59198780  0.93579318  0.11264220
   0.51459379  0.01784429  0.19325717
   0.41050018  0.10815799  0.23997818
   0.31722090  0.18189954  0.32375501
   0.25281147  0.23391462  0.43667212
   0.16815849  0.33486912  0.49834872
   0.09455704  0.40063945  0.58485454
   0.99044152  0.49023485  0.67325309
   0.91120033  0.59780030  0.73454043
   0.82370881  0.66962000  0.81349432
   0.74841268  0.77516186  0.92403040
   0.68406149  0.85705637  0.01481112
   0.64290642  0.84693741  0.18813549
   0.56540088  0.95555277  0.25282845
   0.50219042  0.02062781  0.34490264
   0.39667982  0.08408089  0.39822389
   0.32588733  0.12385442  0.49630405
   0.25083501  0.23879409  0.58924431
   0.20257869  0.33024995  0.69153584
   0.10901760  0.42774892  0.73921163
   0.01313718  0.50425891  0.82309735
   0.89452191  0.58360917  0.92622903
   0.82459115  0.67882408  0.00870399
   0.72580966  0.75059356  0.11954430
   0.32781591  0.31151237  0.66690729
   0.26339791  0.46909624  0.74931840
   0.19126097  0.50990561  0.84001475
   0.09824132  0.58602112  0.90651756
   0.00887161  0.65295588  0.00039063
   0.89536704  0.75031434  0.07359107
   0.82365484  0.84934062  0.18624447
   0.75400175  0.90800963  0.25771819
   0.69199459  0.99650824  0.35298871
   0.60034321  0.09349937  0.39049607
   0.48053293  0.13516562  0.49324096
   0.43108471  0.22339266  0.58662415
   0.41334626  0.25134064  0.73602416
   0.30401230  0.32634433  0.84061875
   0.25817958  0.43711298  0.91429359
   0.17058974  0.48972628  0.99803286
   0.07685377  0.57629875  0.06002754
   0.00323735  0.65523452  0.15748632
   0.92556853  0.73589730  0.25388593
   0.84554668  0.84938619  0.34188550
   0.78475902  0.93136969  0.41066584
   0.67156270  0.00134834  0.52480386
   0.59370442  0.08361003  0.59913639
   0.48372204  0.12375870  0.64887385
   0.46495876  0.16633412  0.81776464
   0.41229304  0.21614128  0.91565057
   0.33616909  0.31632913  0.00128470
   0.25938738  0.42888599  0.07395689
   0.16060991  0.49502003  0.16736569
   0.07433500  0.58728642  0.25591617
   0.97644637  0.66479266  0.35408313
   0.93901168  0.74146269  0.42959775
   0.85009955  0.81259645  0.50945197
   0.74984259  0.91435332  0.57194185
   0.66629369  0.99121244  0.65548794
   0.58557200  0.07264735  0.77518861
   0.58088027  0.08459588  0.89221000
   0.50618669  0.16516462  0.98407449
   0.42151950  0.24592486  0.07619291
   0.33272829  0.32999809  0.12171772
   0.24627416  0.42086544  0.23702520
   0.17394842  0.50139753  0.32322027
   0.06423212  0.55953867  0.43474566
   0.00473749  0.64667999  0.51310736
   0.93537116  0.75544812  0.59293439
   0.82121519  0.85044782  0.65582866
   0.73072282  0.89300122  0.74141655
   0.67555305  0.00232396  0.81786385
   0.66549216  0.02398477  0.01839488
   0.57505477  0.09925200  0.07633508
   0.49795987  0.18202119  0.17226575
   0.39703875  0.25571473  0.23270259
   0.30831031  0.32058836  0.31270075
   0.25089095  0.39509890  0.41264689
   0.16633625  0.49593016  0.51107270
   0.09209800  0.58079676  0.61019671
   0.99218438  0.67207002  0.67740617
   0.94058915  0.76925075  0.75696638
   0.81020677  0.81564781  0.84285245
   0.74554673  0.92572174  0.91291960
   0.72792227  0.94924336  0.11334355
   0.65846432  0.02247712  0.18732697
   0.58239605  0.10091504  0.27070430
   0.47199227  0.15944006  0.34244827
   0.39760536  0.23443277  0.40570219
   0.35160904  0.31927962  0.49567918
   0.27125274  0.39811445  0.57141072
   0.16491459  0.49387337  0.65095167
   0.09865527  0.58190504  0.74848949
   0.99698295  0.64398109  0.85193571
   0.92218668  0.77682969  0.93060308
   0.81868520  0.86716728  0.03189583
   0.40767492  0.42451535  0.56906217
   0.35369464  0.50387866  0.65384260
   0.24833828  0.58673025  0.75928850
   0.19833725  0.67604109  0.81960677
   0.08602861  0.75457108  0.93626652
   0.99194739  0.86602175  0.02006331
   0.90793936  0.92691582  0.10201544
   0.84803344  0.00222296  0.20053137
   0.78772825  0.08756634  0.25753757
   0.65750954  0.17923760  0.30390225
   0.56769045  0.22136855  0.40575415
   0.48662168  0.31697277  0.47169844
   0.47906979  0.31871268  0.65741974
   0.40517258  0.39590452  0.74373898
   0.35193753  0.53017289  0.85109471
   0.24374971  0.56369804  0.91682525
   0.15916447  0.66202104  0.01133857
   0.06425036  0.73873192  0.08783520
   0.99301129  0.81461318  0.18099682
   0.93423243  0.93577168  0.24118189
   0.84924707  0.01853801  0.34828059
   0.76011239  0.09044258  0.42696514
   0.68263958  0.15400130  0.47924945
   0.56070964  0.23473510  0.57908485
   0.55155110  0.21848345  0.77375939
   0.46300460  0.32170011  0.84371449
   0.41393747  0.41394521  0.94007775
   0.35231691  0.51943963  0.97484643
   0.26311719  0.56939916  0.09248792
   0.16393513  0.67227327  0.13814596
   0.09157345  0.70840856  0.26911041
   0.99024664  0.81914552  0.32534339
   0.90469561  0.92123208  0.42518635
   0.83608909  0.02878549  0.50019872
   0.76850413  0.07893179  0.58411782
   0.66110037  0.18582121  0.67424227
   0.67516697  0.18633364  0.83542208
   0.56450210  0.23568958  0.88716233
   0.50854105  0.32247349  0.98276370
   0.43388319  0.42544103  0.04442944
   0.36587329  0.48226021  0.15575248
   0.26818148  0.57100365  0.21370325
   0.18200819  0.63790640  0.35108585
   0.09499473  0.73479320  0.39097848
   0.01766480  0.80541215  0.48133496
   0.94852114  0.91788646  0.54377176
   0.83884531  0.98569045  0.67147250
   0.74692825  0.08697934  0.72247691
   0.74373791  0.06430555  0.91572433
   0.65796568  0.16658731  0.99365983
   0.58976106  0.23321333  0.08611576
   0.50875796  0.34558252  0.15833770
   0.44650273  0.41366302  0.26244873
   0.32715924  0.50154184  0.33256602
   0.24404553  0.57321753  0.41125110
   0.16663437  0.65498981  0.48997570
   0.10062894  0.72895837  0.56940651
   0.00756524  0.83000390  0.63879943
   0.92516358  0.88697768  0.75177035
   0.81473680  0.99551213  0.78073313
   0.80418928  0.00058073  0.03828270
   0.75584194  0.08805548  0.09766156
   0.67869716  0.16801301  0.19931183
   0.56989071  0.25228257  0.26652109
   0.50422242  0.31980914  0.33986513
   0.40088528  0.42725114  0.40745381
   0.32970147  0.49505543  0.48790439
   0.25161653  0.57977017  0.58523498
   0.20235830  0.69615648  0.66033318
   0.08092538  0.73672003  0.75341361
   0.99201230  0.84031224  0.83044845
   0.89848653  0.93318136  0.91750398
