 504 504   0   0
  0.2235424E+02  0.2214114E-08  0.2191405E-08  0.2322030E-08  0.5000000E-15
  1.000000000000000E-004
  CAR 
 Li                                      
      3.06974009     -3.54291578  301      0.15975853      1.00000000
     -3.543  0.0000E+00  0.0000E+00
     -3.521  0.0000E+00  0.0000E+00
     -3.499  0.0000E+00  0.0000E+00
     -3.477  0.0000E+00  0.0000E+00
     -3.455  0.0000E+00  0.0000E+00
     -3.433  0.0000E+00  0.0000E+00
     -3.411  0.9318E-13  0.2054E-14
     -3.389  0.2369E-09  0.5225E-11
     -3.367  0.2094E-06  0.4621E-08
     -3.345  0.6453E-04  0.1427E-05
     -3.322  0.6990E-02  0.1555E-03
     -3.300  0.2691E+00  0.6087E-02
     -3.278  0.3734E+01  0.8839E-01
     -3.256  0.1895E+02  0.5061E+00
     -3.234  0.3564E+02  0.1292E+01
     -3.212  0.2503E+02  0.1844E+01
     -3.190  0.7743E+01  0.2014E+01
     -3.168  0.1247E+02  0.2289E+01
     -3.146  0.4809E+02  0.3349E+01
     -3.124  0.9027E+02  0.5339E+01
     -3.102  0.8113E+02  0.7127E+01
     -3.080  0.3382E+02  0.7872E+01
     -3.058  0.1251E+02  0.8148E+01
     -3.036  0.3770E+02  0.8979E+01
     -3.014  0.8559E+02  0.1087E+02
     -2.992  0.8799E+02  0.1281E+02
     -2.970  0.4505E+02  0.1380E+02
     -2.948  0.2345E+02  0.1432E+02
     -2.926  0.4596E+02  0.1533E+02
     -2.904  0.8639E+02  0.1723E+02
     -2.882  0.1100E+03  0.1966E+02
     -2.860  0.7863E+02  0.2139E+02
     -2.838  0.3726E+02  0.2221E+02
     -2.816  0.5966E+02  0.2353E+02
     -2.793  0.1221E+03  0.2622E+02
     -2.771  0.1534E+03  0.2960E+02
     -2.749  0.1260E+03  0.3237E+02
     -2.727  0.6139E+02  0.3373E+02
     -2.705  0.2994E+02  0.3439E+02
     -2.683  0.5714E+02  0.3565E+02
     -2.661  0.9085E+02  0.3765E+02
     -2.639  0.7740E+02  0.3936E+02
     -2.617  0.4873E+02  0.4043E+02
     -2.595  0.5691E+02  0.4168E+02
     -2.573  0.8485E+02  0.4355E+02
     -2.551  0.1121E+03  0.4603E+02
     -2.529  0.1298E+03  0.4889E+02
     -2.507  0.1216E+03  0.5157E+02
     -2.485  0.1069E+03  0.5392E+02
     -2.463  0.1179E+03  0.5652E+02
     -2.441  0.1520E+03  0.5987E+02
     -2.419  0.1857E+03  0.6397E+02
     -2.397  0.1651E+03  0.6761E+02
     -2.375  0.1020E+03  0.6985E+02
     -2.353  0.6016E+02  0.7118E+02
     -2.331  0.4625E+02  0.7220E+02
     -2.309  0.5884E+02  0.7350E+02
     -2.287  0.7293E+02  0.7510E+02
     -2.264  0.6968E+02  0.7664E+02
     -2.242  0.9413E+02  0.7871E+02
     -2.220  0.1287E+03  0.8155E+02
     -2.198  0.1447E+03  0.8474E+02
     -2.176  0.1478E+03  0.8800E+02
     -2.154  0.1325E+03  0.9092E+02
     -2.132  0.1103E+03  0.9335E+02
     -2.110  0.1203E+03  0.9600E+02
     -2.088  0.1500E+03  0.9931E+02
     -2.066  0.1908E+03  0.1035E+03
     -2.044  0.1940E+03  0.1078E+03
     -2.022  0.1313E+03  0.1107E+03
     -2.000  0.5598E+02  0.1119E+03
     -1.978  0.4402E+02  0.1129E+03
     -1.956  0.9703E+02  0.1150E+03
     -1.934  0.1425E+03  0.1182E+03
     -1.912  0.1453E+03  0.1214E+03
     -1.890  0.1424E+03  0.1245E+03
     -1.868  0.1530E+03  0.1279E+03
     -1.846  0.1691E+03  0.1316E+03
     -1.824  0.1864E+03  0.1357E+03
     -1.802  0.1762E+03  0.1396E+03
     -1.780  0.1341E+03  0.1426E+03
     -1.757  0.1213E+03  0.1452E+03
     -1.735  0.1370E+03  0.1482E+03
     -1.713  0.1595E+03  0.1518E+03
     -1.691  0.1722E+03  0.1556E+03
     -1.669  0.1445E+03  0.1587E+03
     -1.647  0.1071E+03  0.1611E+03
     -1.625  0.1019E+03  0.1634E+03
     -1.603  0.1130E+03  0.1658E+03
     -1.581  0.1110E+03  0.1683E+03
     -1.559  0.9947E+02  0.1705E+03
     -1.537  0.1193E+03  0.1731E+03
     -1.515  0.1501E+03  0.1764E+03
     -1.493  0.1501E+03  0.1797E+03
     -1.471  0.1545E+03  0.1831E+03
     -1.449  0.1766E+03  0.1870E+03
     -1.427  0.1776E+03  0.1909E+03
     -1.405  0.1689E+03  0.1947E+03
     -1.383  0.1846E+03  0.1987E+03
     -1.361  0.2210E+03  0.2036E+03
     -1.339  0.2397E+03  0.2089E+03
     -1.317  0.2228E+03  0.2138E+03
     -1.295  0.1991E+03  0.2182E+03
     -1.273  0.1796E+03  0.2221E+03
     -1.251  0.1612E+03  0.2257E+03
     -1.228  0.1431E+03  0.2289E+03
     -1.206  0.1128E+03  0.2313E+03
     -1.184  0.1054E+03  0.2337E+03
     -1.162  0.1453E+03  0.2369E+03
     -1.140  0.1658E+03  0.2405E+03
     -1.118  0.1517E+03  0.2439E+03
     -1.096  0.1503E+03  0.2472E+03
     -1.074  0.1680E+03  0.2509E+03
     -1.052  0.1916E+03  0.2551E+03
     -1.030  0.2074E+03  0.2597E+03
     -1.008  0.1935E+03  0.2639E+03
     -0.986  0.1683E+03  0.2676E+03
     -0.964  0.1362E+03  0.2707E+03
     -0.942  0.1251E+03  0.2734E+03
     -0.920  0.1664E+03  0.2771E+03
     -0.898  0.1843E+03  0.2811E+03
     -0.876  0.1553E+03  0.2846E+03
     -0.854  0.1481E+03  0.2878E+03
     -0.832  0.1708E+03  0.2916E+03
     -0.810  0.1990E+03  0.2960E+03
     -0.788  0.2298E+03  0.3010E+03
     -0.766  0.2446E+03  0.3064E+03
     -0.744  0.2266E+03  0.3114E+03
     -0.722  0.2117E+03  0.3161E+03
     -0.699  0.2180E+03  0.3209E+03
     -0.677  0.2312E+03  0.3260E+03
     -0.655  0.2361E+03  0.3312E+03
     -0.633  0.2224E+03  0.3361E+03
     -0.611  0.1824E+03  0.3401E+03
     -0.589  0.1442E+03  0.3433E+03
     -0.567  0.1594E+03  0.3468E+03
     -0.545  0.1853E+03  0.3509E+03
     -0.523  0.1765E+03  0.3548E+03
     -0.501  0.1556E+03  0.3582E+03
     -0.479  0.1640E+03  0.3618E+03
     -0.457  0.2004E+03  0.3663E+03
     -0.435  0.2202E+03  0.3711E+03
     -0.413  0.2050E+03  0.3756E+03
     -0.391  0.1864E+03  0.3797E+03
     -0.369  0.1956E+03  0.3840E+03
     -0.347  0.2175E+03  0.3888E+03
     -0.325  0.2379E+03  0.3941E+03
     -0.303  0.2642E+03  0.3999E+03
     -0.281  0.2849E+03  0.4062E+03
     -0.259  0.2813E+03  0.4124E+03
     -0.237  0.2431E+03  0.4178E+03
     -0.215  0.1964E+03  0.4221E+03
     -0.193  0.1864E+03  0.4262E+03
     -0.170  0.2069E+03  0.4307E+03
     -0.148  0.2163E+03  0.4355E+03
     -0.126  0.2213E+03  0.4404E+03
     -0.104  0.2217E+03  0.4453E+03
     -0.082  0.2043E+03  0.4498E+03
     -0.060  0.1927E+03  0.4540E+03
     -0.038  0.1925E+03  0.4583E+03
     -0.016  0.1941E+03  0.4626E+03
      0.006  0.1957E+03  0.4669E+03
      0.028  0.1927E+03  0.4711E+03
      0.050  0.1912E+03  0.4753E+03
      0.072  0.2081E+03  0.4799E+03
      0.094  0.2278E+03  0.4849E+03
      0.116  0.2558E+03  0.4906E+03
      0.138  0.2946E+03  0.4971E+03
      0.160  0.3205E+03  0.5041E+03
      0.182  0.3216E+03  0.5112E+03
      0.204  0.3119E+03  0.5181E+03
      0.226  0.3029E+03  0.5248E+03
      0.248  0.2966E+03  0.5313E+03
      0.270  0.2981E+03  0.5379E+03
      0.292  0.3105E+03  0.5447E+03
      0.314  0.3055E+03  0.5515E+03
      0.337  0.2724E+03  0.5575E+03
      0.359  0.2487E+03  0.5629E+03
      0.381  0.2515E+03  0.5685E+03
      0.403  0.2603E+03  0.5742E+03
      0.425  0.2648E+03  0.5801E+03
      0.447  0.2558E+03  0.5857E+03
      0.469  0.2180E+03  0.5905E+03
      0.491  0.1918E+03  0.5947E+03
      0.513  0.2082E+03  0.5993E+03
      0.535  0.2244E+03  0.6043E+03
      0.557  0.2255E+03  0.6092E+03
      0.579  0.2138E+03  0.6140E+03
      0.601  0.2014E+03  0.6184E+03
      0.623  0.2094E+03  0.6230E+03
      0.645  0.2086E+03  0.6276E+03
      0.667  0.2017E+03  0.6321E+03
      0.689  0.2143E+03  0.6368E+03
      0.711  0.2267E+03  0.6418E+03
      0.733  0.2439E+03  0.6471E+03
      0.755  0.2691E+03  0.6531E+03
      0.777  0.2751E+03  0.6591E+03
      0.799  0.2701E+03  0.6651E+03
      0.821  0.2627E+03  0.6709E+03
      0.843  0.2597E+03  0.6766E+03
      0.866  0.2522E+03  0.6822E+03
      0.888  0.2409E+03  0.6875E+03
      0.910  0.2317E+03  0.6926E+03
      0.932  0.2340E+03  0.6977E+03
      0.954  0.2455E+03  0.7032E+03
      0.976  0.2426E+03  0.7085E+03
      0.998  0.2322E+03  0.7136E+03
      1.020  0.2391E+03  0.7189E+03
      1.042  0.2476E+03  0.7244E+03
      1.064  0.2378E+03  0.7296E+03
      1.086  0.2208E+03  0.7345E+03
      1.108  0.2032E+03  0.7389E+03
      1.130  0.1973E+03  0.7433E+03
      1.152  0.2071E+03  0.7479E+03
      1.174  0.2178E+03  0.7527E+03
      1.196  0.2257E+03  0.7576E+03
      1.218  0.2285E+03  0.7627E+03
      1.240  0.2271E+03  0.7677E+03
      1.262  0.2284E+03  0.7727E+03
      1.284  0.2272E+03  0.7777E+03
      1.306  0.2277E+03  0.7827E+03
      1.328  0.2374E+03  0.7880E+03
      1.350  0.2470E+03  0.7934E+03
      1.372  0.2436E+03  0.7988E+03
      1.395  0.2378E+03  0.8040E+03
      1.417  0.2356E+03  0.8092E+03
      1.439  0.2425E+03  0.8146E+03
      1.461  0.2479E+03  0.8200E+03
      1.483  0.2438E+03  0.8254E+03
      1.505  0.2363E+03  0.8306E+03
      1.527  0.2342E+03  0.8358E+03
      1.549  0.2351E+03  0.8410E+03
      1.571  0.2281E+03  0.8460E+03
      1.593  0.2201E+03  0.8508E+03
      1.615  0.2158E+03  0.8556E+03
      1.637  0.2099E+03  0.8602E+03
      1.659  0.1975E+03  0.8646E+03
      1.681  0.1836E+03  0.8686E+03
      1.703  0.1875E+03  0.8728E+03
      1.725  0.2126E+03  0.8774E+03
      1.747  0.2186E+03  0.8823E+03
      1.769  0.2005E+03  0.8867E+03
      1.791  0.1845E+03  0.8907E+03
      1.813  0.1829E+03  0.8948E+03
      1.835  0.1803E+03  0.8987E+03
      1.857  0.1687E+03  0.9025E+03
      1.879  0.1649E+03  0.9061E+03
      1.902  0.1640E+03  0.9097E+03
      1.924  0.1634E+03  0.9133E+03
      1.946  0.1548E+03  0.9167E+03
      1.968  0.1468E+03  0.9200E+03
      1.990  0.1550E+03  0.9234E+03
      2.012  0.1609E+03  0.9269E+03
      2.034  0.1585E+03  0.9304E+03
      2.056  0.1525E+03  0.9338E+03
      2.078  0.1420E+03  0.9369E+03
      2.100  0.1399E+03  0.9400E+03
      2.122  0.1498E+03  0.9433E+03
      2.144  0.1528E+03  0.9467E+03
      2.166  0.1504E+03  0.9500E+03
      2.188  0.1446E+03  0.9532E+03
      2.210  0.1431E+03  0.9563E+03
      2.232  0.1519E+03  0.9597E+03
      2.254  0.1561E+03  0.9631E+03
      2.276  0.1538E+03  0.9665E+03
      2.298  0.1431E+03  0.9697E+03
      2.320  0.1274E+03  0.9725E+03
      2.342  0.1220E+03  0.9752E+03
      2.364  0.1278E+03  0.9780E+03
      2.386  0.1341E+03  0.9809E+03
      2.408  0.1316E+03  0.9838E+03
      2.431  0.1184E+03  0.9864E+03
      2.453  0.1105E+03  0.9889E+03
      2.475  0.1216E+03  0.9916E+03
      2.497  0.1317E+03  0.9945E+03
      2.519  0.1209E+03  0.9971E+03
      2.541  0.1054E+03  0.9994E+03
      2.563  0.9570E+02  0.1002E+04
      2.585  0.7469E+02  0.1003E+04
      2.607  0.4714E+02  0.1004E+04
      2.629  0.4399E+02  0.1005E+04
      2.651  0.4830E+02  0.1006E+04
      2.673  0.4097E+02  0.1007E+04
      2.695  0.2604E+02  0.1008E+04
      2.717  0.1822E+02  0.1008E+04
      2.739  0.2571E+02  0.1009E+04
      2.761  0.3042E+02  0.1009E+04
      2.783  0.1965E+02  0.1010E+04
      2.805  0.6698E+01  0.1010E+04
      2.827  0.1079E+01  0.1010E+04
      2.849  0.7178E-01  0.1010E+04
      2.871  0.1811E-02  0.1010E+04
      2.893  0.1657E-04  0.1010E+04
      2.915  0.5369E-07  0.1010E+04
      2.937  0.6084E-10  0.1010E+04
      2.960  0.2518E-13  0.1010E+04
      2.982  0.0000E+00  0.1010E+04
      3.004  0.0000E+00  0.1010E+04
      3.026  0.0000E+00  0.1010E+04
      3.048  0.0000E+00  0.1010E+04
      3.070  0.0000E+00  0.1010E+04
