 running on   64 total cores
 distrk:  each k-point on   32 cores,    2 groups
 distr:  one band on   32 cores,    1 groups
 vasp.6.2.1 16May21 (build Nov 23 2021 15:40:41) complex                        
  
 POSCAR found type information on POSCAR Li
 POSCAR found :  1 types and     504 ions
 scaLAPACK will be used
 -----------------------------------------------------------------------------
|                                                                             |
|           W    W    AA    RRRRR   N    N  II  N    N   GGGG   !!!           |
|           W    W   A  A   R    R  NN   N  II  NN   N  G    G  !!!           |
|           W    W  A    A  R    R  N N  N  II  N N  N  G       !!!           |
|           W WW W  AAAAAA  RRRRR   N  N N  II  N  N N  G  GGG   !            |
|           WW  WW  A    A  R   R   N   NN  II  N   NN  G    G                |
|           W    W  A    A  R    R  N    N  II  N    N   GGGG   !!!           |
|                                                                             |
|     For optimal performance we recommend to set                             |
|       NCORE = 2 up to number-of-cores-per-socket                            |
|     NCORE specifies how many cores store one orbital (NPAR=cpu/NCORE).      |
|     This setting can greatly improve the performance of VASP for DFT.       |
|     The default, NCORE=1 might be grossly inefficient on modern             |
|     multi-core architectures or massively parallel machines. Do your        |
|     own testing! More info at https://www.vasp.at/wiki/index.php/NCORE      |
|     Unfortunately you need to use the default for GW and RPA                |
|     calculations (for HF NCORE is supported but not extensively tested      |
|     yet).                                                                   |
|                                                                             |
 -----------------------------------------------------------------------------

 -----------------------------------------------------------------------------
|                                                                             |
|               ----> ADVICE to this user running VASP <----                  |
|                                                                             |
|     You have a (more or less) 'large supercell' and for larger cells it     |
|     might be more efficient to use real-space projection operators.         |
|     Therefore, try LREAL= Auto in the INCAR file.                           |
|     Mind: If you want to do very accurate calculations, keep the            |
|     reciprocal projection scheme (i.e. LREAL=.FALSE.).                      |
|                                                                             |
 -----------------------------------------------------------------------------

 LDA part: xc-table for Pade appr. of Perdew
 POSCAR found type information on POSCAR Li
 POSCAR found :  1 types and     504 ions
 POSCAR, INCAR and KPOINTS ok, starting setup
 FFT: planning ...
 WAVECAR not read
 entering main loop
       N       E                     dE             d eps       ncg     rms          rms(c)
DAV:   1    -0.334829541602E+03   -0.33483E+03   -0.11889E+05  4040   0.647E+02
DAV:   2    -0.898884968465E+03   -0.56406E+03   -0.51720E+03  4636   0.642E+01
DAV:   3    -0.938932026092E+03   -0.40047E+02   -0.36575E+02  5168   0.135E+01
DAV:   4    -0.940331999679E+03   -0.14000E+01   -0.13768E+01  4680   0.275E+00
DAV:   5    -0.940363706144E+03   -0.31706E-01   -0.31646E-01  4856   0.444E-01    0.699E+00
DAV:   6    -0.939970270547E+03    0.39344E+00   -0.62047E+00  4632   0.353E+00    0.631E+00
DAV:   7    -0.935067597543E+03    0.49027E+01   -0.59913E+00  4656   0.328E+00    0.388E+00
DAV:   8    -0.933522253657E+03    0.15453E+01   -0.27523E+00  4576   0.176E+00    0.225E+00
DAV:   9    -0.933269675546E+03    0.25258E+00   -0.18068E+00  4480   0.111E+00    0.144E+00
DAV:  10    -0.933210955330E+03    0.58720E-01   -0.62787E-01  4664   0.825E-01    0.115E+00
DAV:  11    -0.933085817544E+03    0.12514E+00   -0.24478E-01  4520   0.471E-01    0.555E-01
DAV:  12    -0.933084685890E+03    0.11317E-02   -0.60803E-02  4504   0.235E-01    0.373E-01
DAV:  13    -0.933079227871E+03    0.54580E-02   -0.27054E-02  4552   0.190E-01    0.269E-01
DAV:  14    -0.933074127239E+03    0.51006E-02   -0.98017E-03  4528   0.116E-01    0.144E-01
DAV:  15    -0.933074423990E+03   -0.29675E-03   -0.38143E-03  4552   0.779E-02    0.118E-01
DAV:  16    -0.933072593286E+03    0.18307E-02   -0.22643E-03  4552   0.566E-02    0.516E-02
DAV:  17    -0.933072618140E+03   -0.24855E-04   -0.69607E-04  4568   0.286E-02    0.399E-02
DAV:  18    -0.933072456471E+03    0.16167E-03   -0.37253E-04  4504   0.220E-02    0.223E-02
DAV:  19    -0.933072400779E+03    0.55693E-04   -0.11752E-04  4488   0.114E-02    0.111E-02
DAV:  20    -0.933072389642E+03    0.11137E-04   -0.44310E-05  4240   0.593E-03    0.556E-03
DAV:  21    -0.933072388769E+03    0.87315E-06   -0.79407E-06  2416   0.370E-03
   1 F= -.93307239E+03 E0= -.93299934E+03  d E =-.146100E+00
