Li                                      
           1
   -11.070570   19.174790    0.000000
   -18.978120  -10.957023    0.000000
     0.000000    0.000000   23.220300
   Li
   504
Direct configuration=     1
   0.01183259  0.00382808  0.99372935
   0.93169381  0.04946721  0.67230318
   0.86209537  0.06999143  0.32771989
   0.77566376  0.12327752  0.98382196
   0.70700257  0.15322827  0.67216845
   0.64131012  0.21097614  0.34963605
   0.56411600  0.26305758  0.00172146
   0.49450751  0.30436263  0.67072055
   0.43054024  0.33190406  0.32958558
   0.37080402  0.39683033  0.00491928
   0.28634672  0.42138202  0.67836222
   0.21842312  0.45065175  0.33651762
   0.07123718  0.04639841  0.66906003
   0.99557576  0.09362163  0.30639984
   0.93475175  0.12902797  0.00358619
   0.85245654  0.15501280  0.68478027
   0.79649157  0.19833520  0.34104534
   0.71504951  0.25142883  0.99995818
   0.62796172  0.28282338  0.67659185
   0.57583694  0.33512538  0.33309156
   0.50631414  0.38071577  0.00429912
   0.42695132  0.41720730  0.67083364
   0.34533090  0.44768605  0.33292859
   0.30208782  0.49395309  0.99719459
   0.14302660  0.09129032  0.32192660
   0.06894535  0.12891202  0.98778114
   0.00784709  0.17798695  0.65053109
   0.92712514  0.19541972  0.34389049
   0.85507464  0.24825144  0.99900118
   0.77024267  0.27836665  0.66970910
   0.71015247  0.33060117  0.33793606
   0.65533760  0.36896587  0.00207103
   0.56188314  0.42103960  0.67133273
   0.49653420  0.45773370  0.35646138
   0.44012595  0.50444108  0.00839876
   0.37530909  0.54694935  0.68083703
   0.21127550  0.12505399  0.97971313
   0.13551637  0.17903308  0.66892773
   0.08473900  0.21526511  0.32107496
   0.00986677  0.26241205  0.00115757
   0.90852111  0.28542956  0.66754418
   0.84346593  0.32556375  0.33116799
   0.78869136  0.38105342  0.98076441
   0.71085328  0.40593288  0.67210553
   0.63194028  0.45179956  0.31942527
   0.56500410  0.50295662  0.00043309
   0.50120841  0.55205262  0.67015761
   0.43204006  0.56324846  0.34034380
   0.28489246  0.17540013  0.65799706
   0.21549474  0.21265637  0.32134508
   0.15580849  0.25088131  0.99999280
   0.07487294  0.29796680  0.66748523
   0.98117825  0.31431593  0.33851535
   0.93429126  0.38609260  0.98812393
   0.85032959  0.41248359  0.67572396
   0.78136171  0.46091025  0.33015919
   0.70935931  0.50251023  0.00873321
   0.63643942  0.54710923  0.66715680
   0.56899892  0.57308279  0.33373160
   0.49943637  0.63434190  0.99646318
   0.32850624  0.21317934  0.33298106
   0.28416204  0.24725580  0.00189785
   0.21629532  0.31965125  0.66424184
   0.12990030  0.34087317  0.34044904
   0.07826455  0.37564607  0.99312379
   0.99856738  0.40608625  0.66330668
   0.91457772  0.45799074  0.33928481
   0.85588667  0.50316177  0.99549862
   0.78272890  0.53772755  0.64121794
   0.72063038  0.57482749  0.34213659
   0.63894313  0.60801846  0.99715732
   0.56285041  0.68180515  0.65356596
   0.42259690  0.24964365  0.99569478
   0.35574907  0.30184162  0.66288889
   0.26738798  0.32630726  0.32261302
   0.22667896  0.36538378  0.00339575
   0.15085235  0.44597826  0.66197700
   0.05727991  0.44368954  0.34442301
   0.00764756  0.51071067  0.99876756
   0.94050476  0.54531601  0.66125494
   0.85832621  0.58484223  0.32278237
   0.78863362  0.62590129  0.99710520
   0.70335061  0.67387120  0.64860895
   0.64800204  0.70411203  0.33396861
   0.14309949  0.48947532  0.99439833
   0.07174187  0.54307108  0.65822739
   0.00977773  0.57900306  0.34521183
   0.93593897  0.61045245  0.99973814
   0.86711261  0.66001802  0.66255167
   0.79488545  0.71772884  0.34094687
   0.70998363  0.73558022  0.99209463
   0.23760283  0.56052725  0.66801301
   0.15324643  0.56441114  0.32333690
   0.06249641  0.62718025  0.99724102
   0.00118674  0.66305496  0.67391352
   0.93111389  0.70430583  0.32712409
   0.87041270  0.74098579  0.00400838
   0.79410786  0.78328984  0.66523736
   0.29836967  0.56566010  0.33734869
   0.21471199  0.62883213  0.99332483
   0.16146916  0.68693715  0.67601178
   0.07619564  0.70658399  0.32726676
   0.01873697  0.75156977  0.00340735
   0.93985362  0.78406410  0.66047904
   0.85622608  0.85390924  0.33219508
   0.35977724  0.62270126  0.00770432
   0.29182870  0.65421575  0.65604525
   0.22300237  0.70122328  0.34287660
   0.15277090  0.73176612  0.00123328
   0.08701819  0.79627659  0.67231604
   0.00758819  0.82867295  0.33747528
   0.94937516  0.86252042  0.99766395
   0.43449243  0.68518678  0.67250703
   0.36576761  0.69645161  0.34514613
   0.28319963  0.74631571  0.01308742
   0.23299016  0.80193872  0.66482092
   0.14838882  0.82285403  0.34435531
   0.08960264  0.86682338  0.98880470
   0.00260891  0.91831198  0.66558914
   0.93695285  0.93759733  0.31585489
   0.87134689  0.99015183  0.99971691
   0.78861594  0.04639324  0.67031500
   0.72053494  0.08921076  0.33830343
   0.63873588  0.11336157  0.00385236
   0.56315453  0.15579937  0.67960403
   0.47648423  0.20627062  0.33210348
   0.07728227  0.94716521  0.34043005
   0.14599519  0.99072712  0.98948029
   0.21383551  0.04656814  0.65890794
   0.28147041  0.07982421  0.32325497
   0.34932239  0.13674833  0.99460966
   0.43164569  0.17243293  0.66691028
   0.86200599  0.91847579  0.66547098
   0.78313100  0.95854134  0.32980420
   0.72785990  0.99799886  0.00636511
   0.63283567  0.03639281  0.67887371
   0.57642830  0.08524718  0.34691796
   0.50845971  0.11932240  0.01118259
   0.15648903  0.91367006  0.67342219
   0.21251964  0.94301585  0.33029023
   0.28312221  0.00102132  0.99893849
   0.34426722  0.05181827  0.65957515
   0.42899613  0.08671008  0.32912998
   0.78675454  0.86520900  0.00441325
   0.72105536  0.92219407  0.67345106
   0.64381651  0.96051431  0.34180609
   0.57141736  0.99333879  0.01503730
   0.50657165  0.05799306  0.66634963
   0.21409270  0.86877187  0.00756812
   0.29882659  0.92864106  0.66067068
   0.36091062  0.95272103  0.33834822
   0.41578229  0.00118743  0.00204493
   0.72730039  0.82745656  0.32821259
   0.64373248  0.87000781  0.99338855
   0.56772923  0.91113088  0.68262388
   0.50051104  0.94306268  0.35847557
   0.30580910  0.83529632  0.32434652
   0.35646588  0.86455552  0.99137694
   0.43536363  0.91340091  0.65457730
   0.64080097  0.80234130  0.65216216
   0.57977987  0.82552817  0.33241894
   0.49595024  0.88209754  0.01247265
   0.35996012  0.79802184  0.66116047
   0.44860327  0.83326190  0.34589402
   0.57270698  0.76201229  0.01493953
   0.50424659  0.79090702  0.65777289
   0.41556690  0.73537863  0.00272150
   0.51273447  0.70710557  0.33029470
   0.99799232  0.98270999  0.78487685
   0.92449560  0.03002662  0.43683805
   0.84678071  0.07202811  0.09905008
   0.77036350  0.11286652  0.78714825
   0.70092794  0.16547908  0.45198358
   0.64738266  0.19317602  0.11021129
   0.55627642  0.23962629  0.77832047
   0.51324534  0.29791846  0.44371742
   0.44200815  0.32553328  0.12168278
   0.35455386  0.37925522  0.78237367
   0.29616053  0.41452721  0.45588235
   0.22203769  0.46042444  0.10303875
   0.06448601  0.04017905  0.44306533
   0.99563374  0.08112293  0.10565862
   0.92181507  0.13342367  0.79326562
   0.85679458  0.15428605  0.43893974
   0.78866929  0.20106022  0.10544163
   0.69748643  0.24091964  0.78003460
   0.64539901  0.30137692  0.44600758
   0.58009753  0.32884430  0.10348864
   0.49533313  0.37614452  0.78450272
   0.42875110  0.41315593  0.45736934
   0.36319062  0.45912906  0.12094718
   0.28333547  0.50763318  0.78194798
   0.13667391  0.08219627  0.08501972
   0.04960882  0.12546194  0.76908371
   0.00326844  0.17001242  0.44883271
   0.92860270  0.21403551  0.10280023
   0.85310114  0.25328548  0.78709531
   0.78654896  0.28640765  0.44949781
   0.71193204  0.32674802  0.10316500
   0.62950888  0.36660372  0.77946888
   0.57727132  0.42439135  0.44880626
   0.49321214  0.44569630  0.11787294
   0.43767162  0.51119731  0.78995978
   0.37897068  0.55917765  0.44996988
   0.19969226  0.12917587  0.77553405
   0.13865209  0.15933806  0.43480649
   0.06016039  0.19764599  0.10595838
   0.98989928  0.26957253  0.77058862
   0.91207317  0.30103197  0.45650978
   0.85588853  0.34681528  0.10487675
   0.77831188  0.34970449  0.78181505
   0.71846990  0.42341893  0.45032630
   0.64887133  0.45050685  0.12499448
   0.58385629  0.51735479  0.78894004
   0.50643549  0.55401475  0.45190044
   0.43345533  0.57680107  0.12137565
   0.27171245  0.15711203  0.43941666
   0.20837215  0.21126134  0.11029375
   0.12036343  0.26013355  0.78065062
   0.06323524  0.29478768  0.44542512
   0.00395607  0.32649110  0.10391574
   0.92681023  0.38602241  0.78563272
   0.85238594  0.41246927  0.44502653
   0.79456706  0.46509344  0.10686829
   0.71895163  0.49525342  0.75388734
   0.64318104  0.55093743  0.44121012
   0.56549396  0.58375765  0.11735094
   0.50947681  0.63511768  0.79341496
   0.34918953  0.22381083  0.12611537
   0.27568599  0.25227719  0.76928649
   0.20923577  0.28828527  0.45126410
   0.14254330  0.34397362  0.10399159
   0.06893978  0.38426312  0.78475729
   0.00077197  0.40597448  0.46015089
   0.93375586  0.47300008  0.11449438
   0.84661172  0.51323257  0.78159310
   0.78913807  0.54814867  0.45160690
   0.71697018  0.58487923  0.11801740
   0.64404943  0.63624916  0.77434824
   0.57306313  0.67279904  0.44767942
   0.43246324  0.25110841  0.77383304
   0.36238345  0.28546286  0.44350436
   0.27794672  0.35125544  0.11019509
   0.21637731  0.37730844  0.77123619
   0.14051534  0.41362305  0.45713776
   0.07515920  0.45208416  0.10034737
   0.99853399  0.50969685  0.77003424
   0.92742330  0.54793769  0.44213975
   0.85941673  0.56569797  0.11979774
   0.79578669  0.63050269  0.75927294
   0.71461758  0.67348259  0.43858014
   0.64215917  0.70692031  0.10908713
   0.15348539  0.51954123  0.77461363
   0.07406398  0.54199934  0.44981846
   0.01659666  0.58854066  0.11654798
   0.94020400  0.63842319  0.77481192
   0.85073693  0.66478202  0.41494540
   0.79606746  0.70422785  0.11057901
   0.71977826  0.74458973  0.76105475
   0.23249590  0.54042014  0.43866545
   0.14657502  0.58026334  0.11322654
   0.07714677  0.62921954  0.77812133
   0.00326900  0.67284882  0.43943348
   0.92621024  0.69624052  0.10873808
   0.85576372  0.73657131  0.78462653
   0.79517148  0.78785355  0.44397934
   0.29711611  0.59028286  0.10385686
   0.22452011  0.64638046  0.78142592
   0.15122168  0.65414571  0.43180435
   0.06514386  0.70746437  0.10925221
   0.00403562  0.75273735  0.77713368
   0.93415096  0.79588381  0.43953489
   0.86633967  0.82584731  0.11538394
   0.35707389  0.62507968  0.76687298
   0.30007888  0.66716773  0.43827082
   0.21508306  0.69366800  0.11775911
   0.14400760  0.75315336  0.78414181
   0.08189384  0.77307447  0.44047571
   0.00469798  0.83519478  0.10802206
   0.92503191  0.86100413  0.77313188
   0.44506704  0.67265822  0.43986964
   0.35476944  0.71047820  0.11354501
   0.29388943  0.74174236  0.77019416
   0.22639406  0.79152081  0.44389327
   0.14736753  0.82453854  0.12365846
   0.07224597  0.85880003  0.77888161
   0.00248718  0.91053725  0.43752646
   0.93179278  0.95281190  0.11043055
   0.84548448  0.99098436  0.78707556
   0.78216616  0.04886952  0.44915144
   0.70665604  0.08380870  0.11203907
   0.62475732  0.11636031  0.78173104
   0.55549305  0.17735876  0.44525829
   0.49508617  0.21318963  0.10555018
   0.07744304  0.95361890  0.11153529
   0.14032936  0.99296703  0.76590998
   0.20994475  0.03141258  0.43656773
   0.27968556  0.07761510  0.09811854
   0.35258205  0.13884420  0.77390405
   0.42071340  0.16557611  0.44641788
   0.85348349  0.93593710  0.43630857
   0.77970721  0.94769994  0.11573529
   0.70270504  0.99462332  0.78056613
   0.62405236  0.06088474  0.45127317
   0.57149571  0.07382084  0.12735983
   0.48090710  0.12452621  0.77232055
   0.15545748  0.90314971  0.45829490
   0.21707148  0.94995002  0.11343574
   0.27784374  0.01630423  0.75805297
   0.35538567  0.03233690  0.44159125
   0.41987307  0.10633774  0.10897308
   0.78977779  0.87630708  0.78043030
   0.71970181  0.91816661  0.44897471
   0.64460737  0.94662227  0.10187429
   0.55804345  0.98894710  0.77755979
   0.49502963  0.05585977  0.44534857
   0.22189122  0.87865006  0.77521764
   0.28673703  0.91520987  0.44846631
   0.36189077  0.97151652  0.10311730
   0.41793035  0.99405177  0.77607179
   0.71996830  0.81960486  0.11269698
   0.63520209  0.87592828  0.76626908
   0.57110556  0.91681372  0.46157484
   0.49964309  0.95995599  0.12870455
   0.29560814  0.83331351  0.10783473
   0.35071466  0.87512722  0.77343805
   0.42141358  0.91691263  0.45730324
   0.64846089  0.80426505  0.43616330
   0.59239858  0.84132208  0.11102639
   0.49501383  0.86433912  0.77571342
   0.35955961  0.80556414  0.43664568
   0.41778021  0.83701983  0.12801822
   0.56971331  0.75311512  0.76766954
   0.51155444  0.78956952  0.44462700
   0.43010799  0.76151721  0.78485779
   0.49690926  0.71414186  0.12490898
   0.00801766  0.99447646  0.21914509
   0.91870157  0.03472212  0.89209816
   0.84962045  0.09239281  0.56262108
   0.77940376  0.12859371  0.22331707
   0.70501595  0.15514116  0.88680263
   0.64190635  0.21784541  0.56897540
   0.57298887  0.25998547  0.22490090
   0.50127563  0.29266346  0.89342469
   0.42033994  0.34100641  0.55953226
   0.34361242  0.37722748  0.21436033
   0.28717707  0.41848506  0.89172310
   0.21899708  0.47702321  0.56265253
   0.06077896  0.03736339  0.87796036
   0.99389343  0.08812744  0.55419512
   0.91285539  0.10176598  0.20790781
   0.84395371  0.16686037  0.89378497
   0.77882459  0.20868431  0.56098676
   0.71224312  0.23835748  0.22291036
   0.64937377  0.29307605  0.88001599
   0.55965198  0.34636245  0.56318371
   0.50327473  0.37696269  0.22335358
   0.42889731  0.42094437  0.90299714
   0.37272461  0.47403262  0.55816774
   0.27528779  0.48936422  0.20928036
   0.15826151  0.09169704  0.54972547
   0.05373131  0.12098193  0.21412957
   0.98968408  0.18059068  0.88231658
   0.92233722  0.20214625  0.55653432
   0.85704134  0.24874757  0.22082278
   0.77912537  0.28269412  0.88651026
   0.69484855  0.32800886  0.54916469
   0.64394278  0.38719585  0.21672092
   0.56725596  0.42027545  0.89678609
   0.50039200  0.46846509  0.56256976
   0.42077757  0.50067149  0.23356604
   0.35565390  0.53415474  0.91339028
   0.20746374  0.12938631  0.21665821
   0.12783643  0.16390369  0.87907458
   0.04983978  0.20935985  0.55640662
   0.99100593  0.23941192  0.22281581
   0.91843395  0.27971207  0.88895408
   0.84484575  0.33869533  0.56815386
   0.77806957  0.37833026  0.21364435
   0.69502104  0.41821120  0.88577506
   0.63354513  0.47509698  0.55196928
   0.56576373  0.50815597  0.23181164
   0.49920320  0.55301288  0.89434753
   0.43931414  0.60357968  0.55731636
   0.26551119  0.17659521  0.88541120
   0.20296865  0.21711904  0.54781133
   0.13657052  0.26045913  0.21670897
   0.07441576  0.29124018  0.88522376
   0.98146729  0.32902829  0.57659336
   0.92092589  0.37630476  0.22399344
   0.84529244  0.42400984  0.89746178
   0.76947032  0.45339700  0.55883712
   0.71568398  0.50580924  0.21552216
   0.64804363  0.53740954  0.89497658
   0.58020160  0.59125303  0.55590647
   0.49518374  0.62941149  0.23140845
   0.34508835  0.21260978  0.55183536
   0.28985429  0.25463352  0.21557985
   0.20145002  0.28807602  0.88705187
   0.13197839  0.35645648  0.56099788
   0.05824745  0.38258000  0.21999486
   0.98205181  0.41124063  0.88633130
   0.91229900  0.45787763  0.56530040
   0.84287614  0.49128503  0.22606949
   0.78692364  0.54408652  0.88716031
   0.70869745  0.59408217  0.54235896
   0.62804751  0.62610307  0.22842387
   0.59165020  0.68334456  0.89503506
   0.43358641  0.24973911  0.22123149
   0.34396923  0.29476212  0.87837812
   0.28719919  0.35354395  0.55482023
   0.21307260  0.37416648  0.21410068
   0.14998707  0.41623299  0.88603945
   0.06950096  0.45958937  0.56702834
   0.98838892  0.49349970  0.23257728
   0.92747070  0.53738856  0.89499931
   0.86369968  0.59723309  0.53867779
   0.79043693  0.62521412  0.21909565
   0.72796111  0.65210447  0.87634215
   0.63648505  0.73242226  0.53953064
   0.14537397  0.48148735  0.21978085
   0.06830484  0.53630135  0.89524731
   0.00210898  0.56610290  0.54553052
   0.94002370  0.61243873  0.20137093
   0.86331619  0.66118150  0.87957843
   0.78890517  0.70620531  0.53473676
   0.71438417  0.74462906  0.21427792
   0.21242048  0.53212624  0.88772938
   0.16063068  0.58206957  0.55090190
   0.08722523  0.61437796  0.22088574
   0.00196179  0.67228062  0.89264397
   0.93191021  0.70625693  0.55273586
   0.85341357  0.73540403  0.21781097
   0.78685408  0.78067578  0.89551344
   0.28566420  0.58198712  0.54380204
   0.22653588  0.61659819  0.21891259
   0.14428233  0.65051756  0.87510992
   0.07380593  0.69665821  0.56189356
   0.99649388  0.76032711  0.21321444
   0.94378825  0.79283656  0.88138749
   0.88832909  0.84660571  0.55125045
   0.36223702  0.60535463  0.21619145
   0.28762462  0.65762282  0.89601495
   0.22340355  0.71955339  0.54102019
   0.14812580  0.74133326  0.21323223
   0.07222583  0.78145943  0.88408422
   0.00562322  0.83269340  0.55365133
   0.93660392  0.87336846  0.20811282
   0.42334282  0.65523217  0.88655015
   0.36598359  0.71506980  0.55184551
   0.29031713  0.74532770  0.22308019
   0.20816531  0.77118037  0.90463728
   0.14963081  0.81176688  0.55535956
   0.08308065  0.89911571  0.23355077
   0.00771410  0.91061328  0.89285348
   0.93687844  0.96429961  0.55403680
   0.85563382  0.99705008  0.22343144
   0.76942718  0.02689898  0.88936329
   0.70694892  0.08357902  0.56889891
   0.64550926  0.13146387  0.22994626
   0.56471154  0.16471505  0.89429392
   0.49770029  0.20982935  0.57178879
   0.07438706  0.96147710  0.55306643
   0.16131765  0.99470607  0.21938916
   0.20895561  0.01603778  0.87541267
   0.27761412  0.08016611  0.55501167
   0.36132167  0.12243975  0.22303223
   0.42038867  0.17999268  0.88083543
   0.86850613  0.89398785  0.89833013
   0.79122472  0.95835092  0.56086256
   0.71658654  0.00486054  0.22476532
   0.63916991  0.04287288  0.90786963
   0.55565760  0.07467519  0.55920244
   0.50219267  0.12696688  0.22280748
   0.14576892  0.91546999  0.87244188
   0.20587329  0.96801413  0.56257413
   0.28175002  0.99568658  0.22398580
   0.35778902  0.04114065  0.88411534
   0.41145179  0.09041003  0.55636788
   0.80521886  0.87691236  0.22103043
   0.71811233  0.91520664  0.88588050
   0.64442905  0.96396124  0.56564861
   0.56736708  0.00397294  0.24463932
   0.48135697  0.03847631  0.88709933
   0.22052581  0.86672528  0.22889711
   0.28127485  0.91176415  0.89197292
   0.34960155  0.95035890  0.56478325
   0.41900749  0.01198177  0.23059266
   0.72474572  0.83596730  0.54992994
   0.65494126  0.88109183  0.22909320
   0.55524642  0.90873448  0.89147771
   0.49172671  0.96293903  0.56392760
   0.29501529  0.84842663  0.54790665
   0.37194578  0.87180335  0.20705366
   0.42791011  0.90637245  0.89897848
   0.66496331  0.77761840  0.88125264
   0.58140044  0.86193013  0.55080110
   0.51174370  0.88681979  0.22775579
   0.34679784  0.78441280  0.88639057
   0.44007253  0.83208296  0.54119131
   0.56803303  0.75948929  0.21515386
   0.49996374  0.79074104  0.90485876
   0.42377898  0.75724010  0.22757372
   0.50716661  0.72717884  0.55006254
