 432 432   0   0
  0.1857636E+02  0.2002080E-08  0.2002080E-08  0.2002080E-08  0.5000000E-15
  1.000000000000000E-004
  CAR 
 Li                                      
      4.01594085     -3.32420836  301      0.63803728      1.00000000
     -3.324  0.0000E+00  0.0000E+00
     -3.300  0.0000E+00  0.0000E+00
     -3.275  0.0000E+00  0.0000E+00
     -3.251  0.0000E+00  0.0000E+00
     -3.226  0.0000E+00  0.0000E+00
     -3.202  0.0000E+00  0.0000E+00
     -3.177  0.0000E+00  0.0000E+00
     -3.153  0.7703E-12  0.1885E-13
     -3.128  0.3178E-08  0.7777E-10
     -3.104  0.3562E-05  0.8724E-07
     -3.080  0.1097E-02  0.2692E-04
     -3.055  0.9409E-01  0.2329E-02
     -3.031  0.2299E+01  0.5858E-01
     -3.006  0.1643E+02  0.4606E+00
     -2.982  0.3522E+02  0.1322E+01
     -2.957  0.2294E+02  0.1883E+01
     -2.933  0.4664E+01  0.1997E+01
     -2.908  0.4018E+01  0.2096E+01
     -2.884  0.2828E+02  0.2788E+01
     -2.859  0.7608E+02  0.4649E+01
     -2.835  0.8471E+02  0.6722E+01
     -2.810  0.4259E+02  0.7764E+01
     -2.786  0.9915E+01  0.8006E+01
     -2.761  0.1251E+02  0.8312E+01
     -2.737  0.5042E+02  0.9546E+01
     -2.713  0.8546E+02  0.1164E+02
     -2.688  0.6781E+02  0.1330E+02
     -2.664  0.2512E+02  0.1391E+02
     -2.639  0.7606E+01  0.1410E+02
     -2.615  0.3177E+02  0.1487E+02
     -2.590  0.9209E+02  0.1713E+02
     -2.566  0.1148E+03  0.1994E+02
     -2.541  0.6654E+02  0.2157E+02
     -2.517  0.1827E+02  0.2201E+02
     -2.492  0.2368E+02  0.2259E+02
     -2.468  0.8999E+02  0.2479E+02
     -2.443  0.1544E+03  0.2857E+02
     -2.419  0.1388E+03  0.3197E+02
     -2.394  0.6668E+02  0.3360E+02
     -2.370  0.1625E+02  0.3399E+02
     -2.346  0.1766E+02  0.3443E+02
     -2.321  0.6909E+02  0.3612E+02
     -2.297  0.9895E+02  0.3854E+02
     -2.272  0.5007E+02  0.3976E+02
     -2.248  0.1068E+02  0.4002E+02
     -2.223  0.1832E+02  0.4047E+02
     -2.199  0.7599E+02  0.4233E+02
     -2.174  0.1478E+03  0.4595E+02
     -2.150  0.1501E+03  0.4962E+02
     -2.125  0.7794E+02  0.5153E+02
     -2.101  0.2692E+02  0.5219E+02
     -2.076  0.6215E+02  0.5371E+02
     -2.052  0.1659E+03  0.5777E+02
     -2.027  0.2237E+03  0.6324E+02
     -2.003  0.1765E+03  0.6756E+02
     -1.979  0.8057E+02  0.6953E+02
     -1.954  0.2341E+02  0.7010E+02
     -1.930  0.3431E+02  0.7094E+02
     -1.905  0.7152E+02  0.7269E+02
     -1.881  0.7581E+02  0.7455E+02
     -1.856  0.4528E+02  0.7566E+02
     -1.832  0.1900E+02  0.7612E+02
     -1.807  0.4567E+02  0.7724E+02
     -1.783  0.1300E+03  0.8042E+02
     -1.758  0.1865E+03  0.8498E+02
     -1.734  0.1424E+03  0.8847E+02
     -1.709  0.5490E+02  0.8981E+02
     -1.685  0.2498E+02  0.9042E+02
     -1.660  0.8466E+02  0.9249E+02
     -1.636  0.1886E+03  0.9710E+02
     -1.612  0.2325E+03  0.1028E+03
     -1.587  0.1572E+03  0.1066E+03
     -1.563  0.5021E+02  0.1079E+03
     -1.538  0.2117E+02  0.1084E+03
     -1.514  0.7330E+02  0.1102E+03
     -1.489  0.1472E+03  0.1138E+03
     -1.465  0.1508E+03  0.1175E+03
     -1.440  0.8333E+02  0.1195E+03
     -1.416  0.3743E+02  0.1204E+03
     -1.391  0.8542E+02  0.1225E+03
     -1.367  0.1931E+03  0.1272E+03
     -1.342  0.2408E+03  0.1331E+03
     -1.318  0.1528E+03  0.1369E+03
     -1.293  0.4924E+02  0.1381E+03
     -1.269  0.5539E+02  0.1394E+03
     -1.244  0.1458E+03  0.1430E+03
     -1.220  0.2041E+03  0.1480E+03
     -1.196  0.1844E+03  0.1525E+03
     -1.171  0.1068E+03  0.1551E+03
     -1.147  0.3950E+02  0.1561E+03
     -1.122  0.5198E+02  0.1574E+03
     -1.098  0.1203E+03  0.1603E+03
     -1.073  0.1508E+03  0.1640E+03
     -1.049  0.1128E+03  0.1667E+03
     -1.024  0.4520E+02  0.1678E+03
     -1.000  0.2225E+02  0.1684E+03
     -0.975  0.6960E+02  0.1701E+03
     -0.951  0.1367E+03  0.1734E+03
     -0.926  0.1513E+03  0.1771E+03
     -0.902  0.1009E+03  0.1796E+03
     -0.877  0.7935E+02  0.1816E+03
     -0.853  0.1643E+03  0.1856E+03
     -0.829  0.2712E+03  0.1922E+03
     -0.804  0.2981E+03  0.1995E+03
     -0.780  0.2418E+03  0.2054E+03
     -0.755  0.1449E+03  0.2090E+03
     -0.731  0.9533E+02  0.2113E+03
     -0.706  0.1445E+03  0.2148E+03
     -0.682  0.1969E+03  0.2196E+03
     -0.657  0.1896E+03  0.2243E+03
     -0.633  0.1133E+03  0.2271E+03
     -0.608  0.4149E+02  0.2281E+03
     -0.584  0.5238E+02  0.2294E+03
     -0.559  0.1281E+03  0.2325E+03
     -0.535  0.1781E+03  0.2368E+03
     -0.510  0.1455E+03  0.2404E+03
     -0.486  0.7304E+02  0.2422E+03
     -0.462  0.9641E+02  0.2446E+03
     -0.437  0.2011E+03  0.2495E+03
     -0.413  0.2559E+03  0.2557E+03
     -0.388  0.2314E+03  0.2614E+03
     -0.364  0.1544E+03  0.2652E+03
     -0.339  0.1057E+03  0.2678E+03
     -0.315  0.1003E+03  0.2702E+03
     -0.290  0.5890E+02  0.2717E+03
     -0.266  0.2284E+02  0.2722E+03
     -0.241  0.5134E+02  0.2735E+03
     -0.217  0.1280E+03  0.2766E+03
     -0.192  0.1999E+03  0.2815E+03
     -0.168  0.2384E+03  0.2873E+03
     -0.143  0.2215E+03  0.2927E+03
     -0.119  0.1648E+03  0.2968E+03
     -0.095  0.1583E+03  0.3007E+03
     -0.070  0.1754E+03  0.3049E+03
     -0.046  0.1793E+03  0.3093E+03
     -0.021  0.2055E+03  0.3144E+03
      0.003  0.2356E+03  0.3201E+03
      0.028  0.2211E+03  0.3255E+03
      0.052  0.1765E+03  0.3299E+03
      0.077  0.1286E+03  0.3330E+03
      0.101  0.1050E+03  0.3356E+03
      0.126  0.1257E+03  0.3386E+03
      0.150  0.1507E+03  0.3423E+03
      0.175  0.1559E+03  0.3461E+03
      0.199  0.1942E+03  0.3509E+03
      0.224  0.2352E+03  0.3566E+03
      0.248  0.2375E+03  0.3625E+03
      0.272  0.2353E+03  0.3682E+03
      0.297  0.2262E+03  0.3738E+03
      0.321  0.1841E+03  0.3783E+03
      0.346  0.1477E+03  0.3819E+03
      0.370  0.1664E+03  0.3859E+03
      0.395  0.1943E+03  0.3907E+03
      0.419  0.2011E+03  0.3956E+03
      0.444  0.1754E+03  0.3999E+03
      0.468  0.1381E+03  0.4033E+03
      0.493  0.1277E+03  0.4064E+03
      0.517  0.1423E+03  0.4099E+03
      0.542  0.1591E+03  0.4138E+03
      0.566  0.1796E+03  0.4182E+03
      0.591  0.1918E+03  0.4229E+03
      0.615  0.1915E+03  0.4276E+03
      0.639  0.1930E+03  0.4323E+03
      0.664  0.1979E+03  0.4371E+03
      0.688  0.2000E+03  0.4420E+03
      0.713  0.1945E+03  0.4468E+03
      0.737  0.2011E+03  0.4517E+03
      0.762  0.2003E+03  0.4566E+03
      0.786  0.1765E+03  0.4609E+03
      0.811  0.1602E+03  0.4648E+03
      0.835  0.1611E+03  0.4688E+03
      0.860  0.1798E+03  0.4732E+03
      0.884  0.1902E+03  0.4778E+03
      0.909  0.1915E+03  0.4825E+03
      0.933  0.2051E+03  0.4875E+03
      0.958  0.2291E+03  0.4931E+03
      0.982  0.2375E+03  0.4989E+03
      1.006  0.2352E+03  0.5047E+03
      1.031  0.2398E+03  0.5106E+03
      1.055  0.2411E+03  0.5165E+03
      1.080  0.2422E+03  0.5224E+03
      1.104  0.2340E+03  0.5281E+03
      1.129  0.2201E+03  0.5335E+03
      1.153  0.2178E+03  0.5388E+03
      1.178  0.2236E+03  0.5443E+03
      1.202  0.2212E+03  0.5497E+03
      1.227  0.2063E+03  0.5548E+03
      1.251  0.2030E+03  0.5597E+03
      1.276  0.2160E+03  0.5650E+03
      1.300  0.2319E+03  0.5707E+03
      1.325  0.2370E+03  0.5765E+03
      1.349  0.2280E+03  0.5821E+03
      1.373  0.2187E+03  0.5874E+03
      1.398  0.2056E+03  0.5924E+03
      1.422  0.1902E+03  0.5971E+03
      1.447  0.1812E+03  0.6015E+03
      1.471  0.1835E+03  0.6060E+03
      1.496  0.1866E+03  0.6106E+03
      1.520  0.1798E+03  0.6150E+03
      1.545  0.1765E+03  0.6193E+03
      1.569  0.1831E+03  0.6238E+03
      1.594  0.1911E+03  0.6285E+03
      1.618  0.1984E+03  0.6333E+03
      1.643  0.1874E+03  0.6379E+03
      1.667  0.1714E+03  0.6421E+03
      1.692  0.1509E+03  0.6458E+03
      1.716  0.1226E+03  0.6488E+03
      1.740  0.1009E+03  0.6513E+03
      1.765  0.1068E+03  0.6539E+03
      1.789  0.1380E+03  0.6572E+03
      1.814  0.1526E+03  0.6610E+03
      1.838  0.1426E+03  0.6645E+03
      1.863  0.1398E+03  0.6679E+03
      1.887  0.1472E+03  0.6715E+03
      1.912  0.1559E+03  0.6753E+03
      1.936  0.1649E+03  0.6793E+03
      1.961  0.1654E+03  0.6834E+03
      1.985  0.1583E+03  0.6873E+03
      2.010  0.1581E+03  0.6911E+03
      2.034  0.1610E+03  0.6951E+03
      2.059  0.1671E+03  0.6992E+03
      2.083  0.1793E+03  0.7035E+03
      2.108  0.1850E+03  0.7081E+03
      2.132  0.1759E+03  0.7124E+03
      2.156  0.1628E+03  0.7164E+03
      2.181  0.1658E+03  0.7204E+03
      2.205  0.1673E+03  0.7245E+03
      2.230  0.1673E+03  0.7286E+03
      2.254  0.1759E+03  0.7329E+03
      2.279  0.1712E+03  0.7371E+03
      2.303  0.1613E+03  0.7410E+03
      2.328  0.1556E+03  0.7448E+03
      2.352  0.1574E+03  0.7487E+03
      2.377  0.1614E+03  0.7526E+03
      2.401  0.1520E+03  0.7564E+03
      2.426  0.1347E+03  0.7597E+03
      2.450  0.1236E+03  0.7627E+03
      2.475  0.1253E+03  0.7658E+03
      2.499  0.1272E+03  0.7689E+03
      2.523  0.1358E+03  0.7722E+03
      2.548  0.1299E+03  0.7754E+03
      2.572  0.1113E+03  0.7781E+03
      2.597  0.1039E+03  0.7806E+03
      2.621  0.1073E+03  0.7833E+03
      2.646  0.1124E+03  0.7860E+03
      2.670  0.1161E+03  0.7888E+03
      2.695  0.1006E+03  0.7913E+03
      2.719  0.7666E+02  0.7932E+03
      2.744  0.5975E+02  0.7946E+03
      2.768  0.3501E+02  0.7955E+03
      2.793  0.1504E+02  0.7959E+03
      2.817  0.7516E+01  0.7961E+03
      2.842  0.2422E+02  0.7966E+03
      2.866  0.7076E+02  0.7984E+03
      2.890  0.8426E+02  0.8004E+03
      2.915  0.4632E+02  0.8016E+03
      2.939  0.1699E+02  0.8020E+03
      2.964  0.2037E+02  0.8025E+03
      2.988  0.4888E+02  0.8037E+03
      3.013  0.6231E+02  0.8052E+03
      3.037  0.6174E+02  0.8067E+03
      3.062  0.7407E+02  0.8085E+03
      3.086  0.9028E+02  0.8107E+03
      3.111  0.1056E+03  0.8133E+03
      3.135  0.1116E+03  0.8161E+03
      3.160  0.1168E+03  0.8189E+03
      3.184  0.1193E+03  0.8218E+03
      3.209  0.1223E+03  0.8248E+03
      3.233  0.1253E+03  0.8279E+03
      3.257  0.1206E+03  0.8308E+03
      3.282  0.1275E+03  0.8340E+03
      3.306  0.1338E+03  0.8372E+03
      3.331  0.1162E+03  0.8401E+03
      3.355  0.9016E+02  0.8423E+03
      3.380  0.8263E+02  0.8443E+03
      3.404  0.7946E+02  0.8463E+03
      3.429  0.5947E+02  0.8477E+03
      3.453  0.4670E+02  0.8488E+03
      3.478  0.4460E+02  0.8499E+03
      3.502  0.4626E+02  0.8511E+03
      3.527  0.4682E+02  0.8522E+03
      3.551  0.6160E+02  0.8537E+03
      3.576  0.8962E+02  0.8559E+03
      3.600  0.9967E+02  0.8584E+03
      3.624  0.9718E+02  0.8607E+03
      3.649  0.9487E+02  0.8631E+03
      3.673  0.7458E+02  0.8649E+03
      3.698  0.3588E+02  0.8658E+03
      3.722  0.8932E+01  0.8660E+03
      3.747  0.9159E+00  0.8660E+03
      3.771  0.3185E-01  0.8660E+03
      3.796  0.3375E-03  0.8660E+03
      3.820  0.1034E-05  0.8660E+03
      3.845  0.8878E-09  0.8660E+03
      3.869  0.2110E-12  0.8660E+03
      3.894  0.0000E+00  0.8660E+03
      3.918  0.0000E+00  0.8660E+03
      3.943  0.0000E+00  0.8660E+03
      3.967  0.0000E+00  0.8660E+03
      3.991  0.0000E+00  0.8660E+03
      4.016  0.0000E+00  0.8660E+03
