Li                                      
           1
    20.020800    0.000000    0.000000
     0.000000   20.020800    0.000000
     0.000000    0.000000   20.020800
   Li
   432
Direct configuration=     1
   0.02045638  0.01340749  0.99430594
   0.92924503  0.07576293  0.08906644
   0.86845987  0.15831525  0.16125153
   0.77354888  0.24603341  0.25709346
   0.68728648  0.32804235  0.33738307
   0.60868770  0.42598349  0.41325796
   0.51931874  0.50268486  0.47190995
   0.44500871  0.57328869  0.57416426
   0.35289849  0.64593325  0.67074488
   0.26917966  0.71811570  0.77015182
   0.18136639  0.81116039  0.81118462
   0.11037486  0.95268257  0.87725776
   0.09955077  0.94313811  0.07115474
   0.02119939  0.00963642  0.17095912
   0.92460891  0.08641943  0.26602554
   0.84564754  0.16900256  0.33483801
   0.73362722  0.22696483  0.43147160
   0.66123630  0.32123773  0.51812668
   0.58946623  0.43142045  0.57722584
   0.49884398  0.50214272  0.66349981
   0.44300932  0.59652858  0.75023954
   0.35761608  0.66578636  0.84987065
   0.24532554  0.76099548  0.92606261
   0.16723915  0.85506155  0.99093585
   0.17199063  0.84695406  0.17159499
   0.08619412  0.92058342  0.24567069
   0.00276601  0.01178187  0.34161497
   0.92852511  0.08325745  0.39990706
   0.82700566  0.17468849  0.49465350
   0.73919337  0.23400538  0.59118917
   0.66943725  0.35120116  0.67881386
   0.56849749  0.40158729  0.73369629
   0.51080050  0.48456744  0.82883224
   0.45661832  0.58626416  0.92267708
   0.31814236  0.66140166  0.99945176
   0.24370109  0.75255622  0.08021750
   0.24284000  0.76462615  0.25613016
   0.15926307  0.84132247  0.33704762
   0.10056441  0.93344791  0.41456266
   0.97222649  0.00225833  0.51393513
   0.89013215  0.09385435  0.58589157
   0.81959448  0.17545558  0.67575852
   0.69853206  0.23389144  0.75611769
   0.64925664  0.34146378  0.86051466
   0.56641752  0.42665013  0.92019921
   0.49477715  0.50251053  0.01829132
   0.40951361  0.56863140  0.08172213
   0.30466327  0.66738553  0.15653807
   0.31519620  0.68100334  0.33320892
   0.23509843  0.75953724  0.44122982
   0.15826144  0.85042657  0.52480863
   0.07064525  0.91874465  0.60731043
   0.99738191  0.02040541  0.66280846
   0.90309398  0.06780902  0.75184485
   0.83840556  0.17412025  0.83652899
   0.74196770  0.24745245  0.92141492
   0.67876711  0.34913267  0.00001508
   0.59257401  0.41841602  0.09905267
   0.50601603  0.50702010  0.17694690
   0.38789338  0.60476393  0.24938501
   0.40119230  0.56527901  0.40753530
   0.32555513  0.64950893  0.49693592
   0.26339814  0.73457626  0.59125724
   0.18564002  0.82765737  0.69467044
   0.08662389  0.90094552  0.74399352
   0.00431891  0.00453090  0.81648007
   0.94306804  0.07801085  0.90263951
   0.84086344  0.15421410  0.00595032
   0.75657785  0.25112863  0.08313337
   0.66091592  0.34068149  0.15688803
   0.61439822  0.42686029  0.25178959
   0.50151700  0.50619429  0.32539405
   0.08821325  0.10177036  0.90400970
   0.00384904  0.17375071  0.98112565
   0.93103012  0.25045002  0.07028304
   0.86114244  0.33082188  0.17662818
   0.75982877  0.40653715  0.24365022
   0.69715792  0.49218574  0.33238559
   0.59870981  0.56488595  0.40098227
   0.51253361  0.64321805  0.48890251
   0.41495760  0.73114376  0.56415556
   0.34947373  0.81627473  0.68672668
   0.27877315  0.88561387  0.74328243
   0.17766406  0.01033345  0.80426896
   0.17276242  0.01405254  0.99931241
   0.09324667  0.10502147  0.08913050
   0.01086250  0.15892999  0.17040907
   0.93459196  0.23552631  0.25976304
   0.83388716  0.32569678  0.35692437
   0.74573049  0.40146863  0.43637554
   0.69223375  0.51247237  0.50699581
   0.58735293  0.57106287  0.56992140
   0.51166690  0.65379935  0.66290458
   0.44764657  0.72578589  0.74015164
   0.36561555  0.80075527  0.85009000
   0.24854528  0.93071599  0.89890053
   0.25080612  0.93147951  0.08612416
   0.19321415  0.01780687  0.16285941
   0.09944867  0.10014893  0.25880541
   0.01009462  0.16614228  0.34479932
   0.92244481  0.25149224  0.41793153
   0.81513025  0.29564811  0.50955293
   0.74562788  0.41694994  0.59453935
   0.66374778  0.51163848  0.67580311
   0.57870079  0.58320866  0.74919651
   0.52113168  0.66268465  0.85366897
   0.43186873  0.73448607  0.95713231
   0.32482305  0.83731782  0.00174660
   0.32707527  0.83448121  0.13938496
   0.27699375  0.90508944  0.26960637
   0.18117496  0.00305020  0.31400162
   0.07461520  0.06414467  0.41617370
   0.00754105  0.16349811  0.51370710
   0.92237287  0.25688462  0.58558325
   0.79975304  0.29940787  0.68188243
   0.74516315  0.39916513  0.76461477
   0.65492125  0.50423325  0.83103134
   0.60068669  0.59173184  0.94049369
   0.49712295  0.64340760  0.02729073
   0.41711632  0.73464914  0.08506183
   0.40732991  0.73781372  0.22078395
   0.32858100  0.79579511  0.35759726
   0.24249110  0.91273233  0.41809746
   0.16940212  0.00671264  0.51598570
   0.07819582  0.07935921  0.58802113
   0.97150907  0.16496875  0.65803332
   0.90196255  0.25510807  0.75776475
   0.80752632  0.34163920  0.83384590
   0.74336082  0.42323728  0.91228531
   0.67036309  0.49310936  0.00726887
   0.58643829  0.57284421  0.09288085
   0.49689745  0.63335555  0.17794317
   0.49723558  0.67349244  0.32259582
   0.41022444  0.73345997  0.40656545
   0.33553165  0.82437129  0.51366733
   0.25492302  0.91505131  0.60647729
   0.15294015  0.99785680  0.68419950
   0.09204864  0.10130915  0.74523535
   0.98490479  0.18142758  0.82956667
   0.91407018  0.27014174  0.92336551
   0.84945105  0.36024515  0.99947641
   0.77369824  0.40998394  0.10080411
   0.69707692  0.50255351  0.19327001
   0.58232921  0.58859618  0.27532834
   0.18512577  0.15704868  0.82148106
   0.09906949  0.24981481  0.90694174
   0.02039284  0.34825420  0.97693782
   0.94109060  0.38922303  0.08199902
   0.85113731  0.49889017  0.15735364
   0.79031694  0.56804236  0.24621454
   0.67896801  0.65687964  0.32204898
   0.58843382  0.74536014  0.41155560
   0.49707027  0.80784344  0.49223669
   0.41496268  0.90924973  0.57310383
   0.33590649  0.99354116  0.66253844
   0.27784567  0.09331686  0.74478016
   0.25446250  0.07429959  0.91483804
   0.17150530  0.16382812  0.00468231
   0.08907282  0.25879909  0.06597229
   0.99682549  0.32503960  0.18751978
   0.91711184  0.40966427  0.26411728
   0.84558803  0.47513935  0.34133668
   0.77610018  0.57894617  0.40119825
   0.68249458  0.65977348  0.49225542
   0.59012761  0.72644785  0.54851717
   0.51062213  0.81976065  0.64736980
   0.42855340  0.90608454  0.75738259
   0.34159325  0.98383299  0.82822245
   0.31643135  0.00261897  0.98925068
   0.26601187  0.11683573  0.09156984
   0.18085596  0.19419458  0.17145441
   0.09453884  0.22837439  0.25516808
   0.00965773  0.32821426  0.35766651
   0.94239666  0.38592622  0.45641350
   0.84499085  0.49486832  0.51114726
   0.75558698  0.58392450  0.59629935
   0.65966357  0.66017236  0.66425451
   0.58714510  0.74798186  0.74912525
   0.50386277  0.82871056  0.85245710
   0.41001006  0.89285113  0.91111294
   0.39427473  0.92361177  0.09788701
   0.33086722  0.00527772  0.17038921
   0.24614280  0.10148148  0.26785124
   0.17353087  0.16437535  0.36143736
   0.09331596  0.25315903  0.45509552
   0.98560957  0.30109667  0.53143618
   0.91024300  0.39153136  0.59551183
   0.81090813  0.48446491  0.67988333
   0.75256867  0.58585590  0.74271953
   0.65723325  0.65474966  0.81584039
   0.58974202  0.74256645  0.93807599
   0.50646229  0.84160584  0.02929233
   0.49590800  0.83643846  0.17182547
   0.39570525  0.87932454  0.27222689
   0.34283062  0.98446560  0.32806037
   0.25526318  0.06215673  0.41084277
   0.17944594  0.13478225  0.50479514
   0.10327187  0.24015150  0.59671209
   0.01041955  0.31101666  0.66738127
   0.91375996  0.40767279  0.75454914
   0.82944985  0.50481714  0.81968057
   0.73553739  0.59219392  0.92184504
   0.66873010  0.66480238  0.01070832
   0.56911189  0.73677757  0.08171768
   0.58521075  0.73235071  0.23251140
   0.49624625  0.82403855  0.31318349
   0.43452344  0.88858845  0.41362693
   0.32310447  0.99057824  0.49013122
   0.25043783  0.07357810  0.59023849
   0.17861018  0.15972158  0.66360100
   0.09418348  0.21400143  0.74190218
   0.99885442  0.31399419  0.83906735
   0.92173168  0.41911768  0.88903906
   0.85456658  0.48751197  0.98348837
   0.77099781  0.56498242  0.06325875
   0.68552566  0.65737395  0.16728808
   0.28099647  0.25047443  0.75312380
   0.17024387  0.32620311  0.80693447
   0.09200563  0.42827979  0.89455903
   0.00568241  0.50938976  0.97618519
   0.91589009  0.57643774  0.08000773
   0.84477446  0.66898369  0.14623350
   0.74868892  0.74971860  0.23745446
   0.64712258  0.81425799  0.31690044
   0.57598441  0.90424305  0.40101963
   0.47806109  0.00996929  0.48034823
   0.41402938  0.07886712  0.57655400
   0.35472037  0.17267158  0.65119756
   0.35999932  0.16681104  0.84674280
   0.25122959  0.23947088  0.90460467
   0.17043001  0.33834193  0.97841611
   0.07566221  0.41918505  0.07003709
   0.98493696  0.51038881  0.16695008
   0.91278709  0.59527885  0.25954400
   0.84759032  0.67541579  0.33761854
   0.74734164  0.77604035  0.40913651
   0.65895567  0.80608549  0.48745599
   0.57960659  0.91494500  0.55482054
   0.50001068  0.00098316  0.63905013
   0.42844732  0.05831540  0.75615436
   0.40977679  0.06879282  0.93911265
   0.32766596  0.16739582  0.00151714
   0.24844373  0.26337521  0.06398460
   0.14222667  0.35893591  0.15250233
   0.07643713  0.41800360  0.27426305
   0.99181141  0.49171330  0.35296730
   0.89874488  0.58021802  0.41557041
   0.81449004  0.67800924  0.50423546
   0.75196801  0.76951153  0.58324731
   0.64780285  0.84917998  0.66250196
   0.56047589  0.91740615  0.75400077
   0.49138854  0.98865999  0.86223774
   0.48325305  0.98315467  0.02541508
   0.41735973  0.08588887  0.08079443
   0.33534413  0.20151297  0.18939898
   0.23228972  0.25200967  0.24922777
   0.14248813  0.32860374  0.30322469
   0.08728169  0.40944874  0.43296322
   0.99047758  0.49234079  0.52859890
   0.88056641  0.58459218  0.58886167
   0.82621330  0.68246609  0.66754459
   0.73254787  0.77215723  0.75343586
   0.64686913  0.83935364  0.82747727
   0.56323872  0.90637773  0.93235565
   0.58406368  0.92033307  0.10201143
   0.49330388  0.00088491  0.18059674
   0.41319491  0.07378214  0.25951643
   0.34221175  0.16061535  0.33198640
   0.23977257  0.25302401  0.40227681
   0.17529820  0.32485054  0.49717758
   0.10401645  0.41353969  0.57529084
   0.98906163  0.49381347  0.65705716
   0.90920753  0.58966213  0.74156073
   0.82095233  0.67867485  0.82102630
   0.72181609  0.75390497  0.92452451
   0.64797256  0.84400121  0.01416199
   0.66415660  0.83140740  0.16463913
   0.59165815  0.92677528  0.24236031
   0.50427071  0.99423075  0.31807154
   0.40445049  0.07050630  0.40549213
   0.33621532  0.16962621  0.48801530
   0.27063023  0.24052727  0.58192837
   0.18351600  0.31775925  0.66728983
   0.07375356  0.40731270  0.73569947
   0.00156549  0.50583778  0.81781673
   0.91445029  0.60205736  0.89530938
   0.85375527  0.66923322  0.99245643
   0.76465159  0.74264626  0.06611080
   0.36619272  0.33056223  0.66035699
   0.28812706  0.43317810  0.75121380
   0.14170289  0.50629402  0.80835353
   0.07596620  0.59916064  0.90046884
   0.99786947  0.67306014  0.98735159
   0.91785048  0.76058785  0.05606565
   0.85308694  0.84160145  0.13996815
   0.77157864  0.88311071  0.24209629
   0.66485229  0.99300519  0.32633931
   0.59247680  0.07247718  0.40638899
   0.49528402  0.16796399  0.48113429
   0.42504612  0.25422239  0.57098576
   0.42615921  0.25956780  0.73863366
   0.34159503  0.34282050  0.83553512
   0.24822364  0.44669887  0.88567458
   0.14720314  0.49663140  0.99884360
   0.07886496  0.57802925  0.07285648
   0.98552317  0.67765485  0.16054586
   0.91818076  0.75026746  0.25984792
   0.82626808  0.85088316  0.33854262
   0.73726749  0.92278052  0.41543054
   0.67951722  0.00585237  0.47648543
   0.57660452  0.06126515  0.56649494
   0.50151001  0.16384168  0.64398997
   0.49613631  0.16326175  0.83708852
   0.41677884  0.27060202  0.94088678
   0.31456489  0.34147925  0.97870491
   0.23901980  0.42592459  0.07969775
   0.14085012  0.50983462  0.16176378
   0.06238623  0.62225478  0.25915961
   0.00609558  0.69250967  0.33873223
   0.90681795  0.76650288  0.42625201
   0.83418141  0.85221908  0.49399311
   0.74090313  0.91396114  0.56261175
   0.66016854  0.99160950  0.65870220
   0.55890368  0.07063900  0.76107491
   0.56018840  0.07688092  0.92559985
   0.47914806  0.17217608  0.99942544
   0.41196716  0.25965896  0.07615243
   0.30872071  0.32871121  0.15659816
   0.23362732  0.43849040  0.24007441
   0.14981176  0.49107158  0.33894930
   0.08226005  0.57727311  0.43505419
   0.97688652  0.68456039  0.51073530
   0.87780081  0.75127493  0.59338891
   0.83542558  0.84416566  0.66761188
   0.73787993  0.91342391  0.74681528
   0.63076766  0.99368508  0.82977604
   0.64017442  0.01558528  0.00156085
   0.57344613  0.10648421  0.09283861
   0.47734783  0.17966737  0.17957319
   0.40294565  0.27420082  0.25607034
   0.30524578  0.34146236  0.31538703
   0.23224807  0.40614621  0.40559054
   0.15859498  0.49677544  0.52300186
   0.07361582  0.58465564  0.60209795
   0.97986523  0.68208810  0.66930302
   0.90798000  0.76861251  0.76086858
   0.83297486  0.85552096  0.84381972
   0.72296070  0.90952396  0.91953784
   0.73934766  0.93667554  0.07144628
   0.66798835  0.00523089  0.18048347
   0.57551503  0.11464090  0.24784817
   0.48363227  0.17562048  0.32470378
   0.41511402  0.27981956  0.39739900
   0.31602089  0.31827171  0.49041395
   0.25333251  0.40771399  0.59666519
   0.16247789  0.50560657  0.66246475
   0.06130381  0.59484534  0.73814737
   0.98902140  0.67192124  0.83743771
   0.92809655  0.74285755  0.91197860
   0.84379954  0.84471539  0.97079534
   0.42594552  0.41967652  0.57757111
   0.35462403  0.50785247  0.65860494
   0.26446848  0.58135431  0.76590862
   0.15544862  0.65753595  0.81381116
   0.08594439  0.74768583  0.92181837
   0.01149836  0.84219850  0.97589685
   0.92560741  0.92569516  0.05667837
   0.83740364  0.99942530  0.17354694
   0.73970591  0.08229040  0.24652066
   0.67143936  0.14078239  0.34497048
   0.59052334  0.24605953  0.39648674
   0.53320824  0.32819367  0.47744566
   0.50002061  0.34946084  0.65773741
   0.42191399  0.42892071  0.75269645
   0.35230856  0.51770435  0.84715020
   0.24377981  0.57698613  0.91210230
   0.16641203  0.67919822  0.00074284
   0.08814014  0.77150375  0.07948203
   0.98596993  0.84482214  0.16779800
   0.92784236  0.92985381  0.25762456
   0.81245723  0.00594534  0.30668514
   0.75823771  0.10155881  0.41754024
   0.63647752  0.17297582  0.51769671
   0.58904432  0.25562930  0.59157380
   0.57684499  0.24182719  0.75259142
   0.49283345  0.34723596  0.85516354
   0.40819929  0.40877583  0.93622456
   0.32415613  0.51536613  0.99643659
   0.23486988  0.57610701  0.07792361
   0.17465950  0.66952822  0.15936797
   0.10032516  0.74869712  0.24313667
   0.00378641  0.83828419  0.34653257
   0.89826199  0.94163855  0.41819580
   0.82989586  0.98744054  0.49146309
   0.74641343  0.08555295  0.58185557
   0.64265803  0.13783882  0.64182286
   0.66026928  0.13761616  0.83591669
   0.59037998  0.24973051  0.92318193
   0.52467689  0.34511189  0.00910674
   0.39687968  0.42282784  0.08472826
   0.30354148  0.52276122  0.16410422
   0.23673146  0.58521412  0.25787999
   0.17174628  0.68212743  0.36651534
   0.08689778  0.76037545  0.45311463
   0.97146078  0.85966575  0.49532461
   0.90653627  0.91479462  0.60412008
   0.81125454  0.01400094  0.68014156
   0.73455479  0.08161563  0.76938129
   0.74085670  0.06369428  0.90799793
   0.65357507  0.18066727  0.00899746
   0.59598020  0.24252750  0.07528436
   0.50249431  0.35692252  0.18312593
   0.40600860  0.43544974  0.23739749
   0.32392968  0.51449575  0.33094977
   0.23762611  0.56800022  0.40490619
   0.15712477  0.64912377  0.51882777
   0.07966309  0.77307650  0.56975478
   0.98104314  0.80485458  0.66918013
   0.91444479  0.92381825  0.74154833
   0.81494965  0.98295315  0.84063404
   0.83858166  0.01110555  0.99406851
   0.73756837  0.09246247  0.08885420
   0.68051793  0.18422954  0.17173896
   0.59897047  0.24842599  0.25853594
   0.50674808  0.36192326  0.32464701
   0.42221383  0.40039035  0.40714791
   0.34353055  0.48944856  0.49269223
   0.25711093  0.57806001  0.59146483
   0.16433870  0.68637698  0.66358643
   0.06363018  0.75089967  0.75070200
   0.00889920  0.82676408  0.84354403
   0.93372501  0.94102514  0.90795874
