 504 504   0   0
  0.2106490E+02  0.2170700E-08  0.2148436E-08  0.2276500E-08  0.5000000E-15
  1.000000000000000E-004
  CAR 
 Li                                      
      3.19705079     -3.46867723  301      0.29134712      1.00000000
     -3.469  0.0000E+00  0.0000E+00
     -3.446  0.0000E+00  0.0000E+00
     -3.424  0.0000E+00  0.0000E+00
     -3.402  0.0000E+00  0.0000E+00
     -3.380  0.0000E+00  0.0000E+00
     -3.358  0.0000E+00  0.0000E+00
     -3.335  0.5496E-13  0.1221E-14
     -3.313  0.1600E-09  0.3556E-11
     -3.291  0.1572E-06  0.3497E-08
     -3.269  0.5295E-04  0.1180E-05
     -3.246  0.6162E-02  0.1381E-03
     -3.224  0.2507E+00  0.5707E-02
     -3.202  0.3615E+01  0.8603E-01
     -3.180  0.1878E+02  0.5033E+00
     -3.158  0.3562E+02  0.1295E+01
     -3.135  0.2483E+02  0.1846E+01
     -3.113  0.7015E+01  0.2002E+01
     -3.091  0.9202E+01  0.2207E+01
     -3.069  0.4392E+02  0.3183E+01
     -3.047  0.9442E+02  0.5281E+01
     -3.024  0.8578E+02  0.7187E+01
     -3.002  0.3208E+02  0.7899E+01
     -2.980  0.9747E+01  0.8116E+01
     -2.958  0.3408E+02  0.8873E+01
     -2.935  0.8713E+02  0.1081E+02
     -2.913  0.9272E+02  0.1287E+02
     -2.891  0.4360E+02  0.1384E+02
     -2.869  0.2081E+02  0.1430E+02
     -2.847  0.4674E+02  0.1534E+02
     -2.824  0.8662E+02  0.1726E+02
     -2.802  0.1035E+03  0.1956E+02
     -2.780  0.7765E+02  0.2129E+02
     -2.758  0.4306E+02  0.2225E+02
     -2.735  0.6140E+02  0.2361E+02
     -2.713  0.1113E+03  0.2608E+02
     -2.691  0.1388E+03  0.2917E+02
     -2.669  0.1243E+03  0.3193E+02
     -2.647  0.7179E+02  0.3352E+02
     -2.624  0.3391E+02  0.3428E+02
     -2.602  0.4853E+02  0.3536E+02
     -2.580  0.7748E+02  0.3708E+02
     -2.558  0.8148E+02  0.3889E+02
     -2.535  0.6566E+02  0.4035E+02
     -2.513  0.5895E+02  0.4166E+02
     -2.491  0.7479E+02  0.4332E+02
     -2.469  0.1119E+03  0.4580E+02
     -2.447  0.1289E+03  0.4867E+02
     -2.424  0.1114E+03  0.5114E+02
     -2.402  0.9842E+02  0.5333E+02
     -2.380  0.1105E+03  0.5579E+02
     -2.358  0.1331E+03  0.5874E+02
     -2.336  0.1575E+03  0.6224E+02
     -2.313  0.1578E+03  0.6575E+02
     -2.291  0.1256E+03  0.6854E+02
     -2.269  0.8073E+02  0.7033E+02
     -2.247  0.6021E+02  0.7167E+02
     -2.224  0.6551E+02  0.7313E+02
     -2.202  0.7568E+02  0.7481E+02
     -2.180  0.6675E+02  0.7629E+02
     -2.158  0.7731E+02  0.7801E+02
     -2.136  0.1090E+03  0.8043E+02
     -2.113  0.1379E+03  0.8349E+02
     -2.091  0.1508E+03  0.8685E+02
     -2.069  0.1300E+03  0.8973E+02
     -2.047  0.1014E+03  0.9199E+02
     -2.024  0.1083E+03  0.9440E+02
     -2.002  0.1409E+03  0.9753E+02
     -1.980  0.1627E+03  0.1011E+03
     -1.958  0.1759E+03  0.1050E+03
     -1.936  0.1623E+03  0.1087E+03
     -1.913  0.1078E+03  0.1111E+03
     -1.891  0.6190E+02  0.1124E+03
     -1.869  0.7910E+02  0.1142E+03
     -1.847  0.1230E+03  0.1169E+03
     -1.824  0.1405E+03  0.1200E+03
     -1.802  0.1327E+03  0.1230E+03
     -1.780  0.1305E+03  0.1259E+03
     -1.758  0.1444E+03  0.1291E+03
     -1.736  0.1630E+03  0.1327E+03
     -1.713  0.1702E+03  0.1365E+03
     -1.691  0.1529E+03  0.1399E+03
     -1.669  0.1282E+03  0.1427E+03
     -1.647  0.1375E+03  0.1458E+03
     -1.624  0.1586E+03  0.1493E+03
     -1.602  0.1613E+03  0.1529E+03
     -1.580  0.1465E+03  0.1562E+03
     -1.558  0.1270E+03  0.1590E+03
     -1.536  0.1158E+03  0.1616E+03
     -1.513  0.1129E+03  0.1641E+03
     -1.491  0.1123E+03  0.1666E+03
     -1.469  0.1043E+03  0.1689E+03
     -1.447  0.1045E+03  0.1712E+03
     -1.425  0.1299E+03  0.1741E+03
     -1.402  0.1544E+03  0.1775E+03
     -1.380  0.1580E+03  0.1810E+03
     -1.358  0.1535E+03  0.1844E+03
     -1.336  0.1575E+03  0.1879E+03
     -1.313  0.1653E+03  0.1916E+03
     -1.291  0.1803E+03  0.1956E+03
     -1.269  0.2025E+03  0.2001E+03
     -1.247  0.2091E+03  0.2048E+03
     -1.225  0.2034E+03  0.2093E+03
     -1.202  0.2018E+03  0.2138E+03
     -1.180  0.1937E+03  0.2181E+03
     -1.158  0.1756E+03  0.2220E+03
     -1.136  0.1675E+03  0.2257E+03
     -1.113  0.1500E+03  0.2290E+03
     -1.091  0.1114E+03  0.2315E+03
     -1.069  0.1037E+03  0.2338E+03
     -1.047  0.1399E+03  0.2369E+03
     -1.025  0.1625E+03  0.2405E+03
     -1.002  0.1650E+03  0.2442E+03
     -0.980  0.1593E+03  0.2477E+03
     -0.958  0.1644E+03  0.2514E+03
     -0.936  0.1848E+03  0.2555E+03
     -0.913  0.1916E+03  0.2597E+03
     -0.891  0.1846E+03  0.2638E+03
     -0.869  0.1711E+03  0.2676E+03
     -0.847  0.1465E+03  0.2709E+03
     -0.825  0.1342E+03  0.2739E+03
     -0.802  0.1544E+03  0.2773E+03
     -0.780  0.1784E+03  0.2813E+03
     -0.758  0.1762E+03  0.2852E+03
     -0.736  0.1627E+03  0.2888E+03
     -0.714  0.1715E+03  0.2926E+03
     -0.691  0.2019E+03  0.2971E+03
     -0.669  0.2177E+03  0.3019E+03
     -0.647  0.2161E+03  0.3067E+03
     -0.625  0.2063E+03  0.3113E+03
     -0.602  0.1961E+03  0.3157E+03
     -0.580  0.2063E+03  0.3203E+03
     -0.558  0.2326E+03  0.3254E+03
     -0.536  0.2406E+03  0.3308E+03
     -0.514  0.2181E+03  0.3356E+03
     -0.491  0.1809E+03  0.3396E+03
     -0.469  0.1631E+03  0.3433E+03
     -0.447  0.1667E+03  0.3470E+03
     -0.425  0.1699E+03  0.3507E+03
     -0.402  0.1725E+03  0.3546E+03
     -0.380  0.1793E+03  0.3586E+03
     -0.358  0.1975E+03  0.3630E+03
     -0.336  0.2138E+03  0.3677E+03
     -0.314  0.2033E+03  0.3722E+03
     -0.291  0.1828E+03  0.3763E+03
     -0.269  0.1904E+03  0.3805E+03
     -0.247  0.2078E+03  0.3851E+03
     -0.225  0.2124E+03  0.3899E+03
     -0.202  0.2185E+03  0.3947E+03
     -0.180  0.2354E+03  0.3999E+03
     -0.158  0.2462E+03  0.4054E+03
     -0.136  0.2427E+03  0.4108E+03
     -0.114  0.2285E+03  0.4159E+03
     -0.091  0.2135E+03  0.4206E+03
     -0.069  0.2156E+03  0.4254E+03
     -0.047  0.2202E+03  0.4303E+03
     -0.025  0.2155E+03  0.4351E+03
     -0.002  0.2008E+03  0.4396E+03
      0.020  0.1977E+03  0.4439E+03
      0.042  0.2064E+03  0.4485E+03
      0.064  0.2062E+03  0.4531E+03
      0.086  0.1986E+03  0.4575E+03
      0.109  0.1955E+03  0.4619E+03
      0.131  0.2040E+03  0.4664E+03
      0.153  0.2131E+03  0.4711E+03
      0.175  0.2150E+03  0.4759E+03
      0.197  0.2194E+03  0.4808E+03
      0.220  0.2274E+03  0.4858E+03
      0.242  0.2400E+03  0.4912E+03
      0.264  0.2514E+03  0.4968E+03
      0.286  0.2648E+03  0.5026E+03
      0.309  0.2730E+03  0.5087E+03
      0.331  0.2759E+03  0.5148E+03
      0.353  0.2843E+03  0.5212E+03
      0.375  0.2759E+03  0.5273E+03
      0.397  0.2612E+03  0.5331E+03
      0.420  0.2605E+03  0.5389E+03
      0.442  0.2615E+03  0.5447E+03
      0.464  0.2566E+03  0.5504E+03
      0.486  0.2583E+03  0.5561E+03
      0.509  0.2568E+03  0.5618E+03
      0.531  0.2495E+03  0.5674E+03
      0.553  0.2451E+03  0.5728E+03
      0.575  0.2405E+03  0.5782E+03
      0.597  0.2320E+03  0.5833E+03
      0.620  0.2238E+03  0.5883E+03
      0.642  0.2152E+03  0.5931E+03
      0.664  0.2114E+03  0.5978E+03
      0.686  0.2115E+03  0.6025E+03
      0.709  0.2061E+03  0.6070E+03
      0.731  0.2084E+03  0.6117E+03
      0.753  0.2207E+03  0.6166E+03
      0.775  0.2244E+03  0.6216E+03
      0.797  0.2206E+03  0.6265E+03
      0.820  0.2170E+03  0.6313E+03
      0.842  0.2186E+03  0.6361E+03
      0.864  0.2200E+03  0.6410E+03
      0.886  0.2205E+03  0.6459E+03
      0.908  0.2236E+03  0.6509E+03
      0.931  0.2323E+03  0.6561E+03
      0.953  0.2430E+03  0.6615E+03
      0.975  0.2449E+03  0.6669E+03
      0.997  0.2379E+03  0.6722E+03
      1.020  0.2323E+03  0.6773E+03
      1.042  0.2332E+03  0.6825E+03
      1.064  0.2332E+03  0.6877E+03
      1.086  0.2287E+03  0.6928E+03
      1.108  0.2230E+03  0.6977E+03
      1.131  0.2117E+03  0.7025E+03
      1.153  0.2050E+03  0.7070E+03
      1.175  0.2096E+03  0.7117E+03
      1.197  0.2142E+03  0.7164E+03
      1.220  0.2151E+03  0.7212E+03
      1.242  0.2063E+03  0.7258E+03
      1.264  0.2010E+03  0.7303E+03
      1.286  0.2021E+03  0.7347E+03
      1.308  0.2115E+03  0.7394E+03
      1.331  0.2212E+03  0.7444E+03
      1.353  0.2198E+03  0.7492E+03
      1.375  0.2156E+03  0.7540E+03
      1.397  0.2170E+03  0.7589E+03
      1.420  0.2260E+03  0.7639E+03
      1.442  0.2343E+03  0.7691E+03
      1.464  0.2264E+03  0.7741E+03
      1.486  0.2115E+03  0.7788E+03
      1.508  0.2047E+03  0.7834E+03
      1.531  0.2140E+03  0.7881E+03
      1.553  0.2180E+03  0.7930E+03
      1.575  0.2109E+03  0.7976E+03
      1.597  0.1986E+03  0.8021E+03
      1.619  0.1827E+03  0.8061E+03
      1.642  0.1877E+03  0.8103E+03
      1.664  0.2063E+03  0.8149E+03
      1.686  0.2188E+03  0.8197E+03
      1.708  0.2206E+03  0.8246E+03
      1.731  0.2115E+03  0.8293E+03
      1.753  0.1985E+03  0.8337E+03
      1.775  0.1921E+03  0.8380E+03
      1.797  0.1985E+03  0.8424E+03
      1.819  0.2070E+03  0.8470E+03
      1.842  0.2035E+03  0.8515E+03
      1.864  0.1969E+03  0.8559E+03
      1.886  0.2045E+03  0.8605E+03
      1.908  0.2135E+03  0.8652E+03
      1.931  0.1990E+03  0.8696E+03
      1.953  0.1807E+03  0.8736E+03
      1.975  0.1782E+03  0.8776E+03
      1.997  0.1801E+03  0.8816E+03
      2.019  0.1807E+03  0.8856E+03
      2.042  0.1835E+03  0.8897E+03
      2.064  0.1785E+03  0.8937E+03
      2.086  0.1674E+03  0.8974E+03
      2.108  0.1587E+03  0.9009E+03
      2.131  0.1590E+03  0.9044E+03
      2.153  0.1650E+03  0.9081E+03
      2.175  0.1723E+03  0.9119E+03
      2.197  0.1676E+03  0.9157E+03
      2.219  0.1601E+03  0.9192E+03
      2.242  0.1586E+03  0.9227E+03
      2.264  0.1621E+03  0.9263E+03
      2.286  0.1653E+03  0.9300E+03
      2.308  0.1555E+03  0.9335E+03
      2.331  0.1537E+03  0.9369E+03
      2.353  0.1548E+03  0.9403E+03
      2.375  0.1467E+03  0.9436E+03
      2.397  0.1460E+03  0.9468E+03
      2.419  0.1581E+03  0.9503E+03
      2.442  0.1686E+03  0.9541E+03
      2.464  0.1601E+03  0.9576E+03
      2.486  0.1482E+03  0.9609E+03
      2.508  0.1439E+03  0.9641E+03
      2.530  0.1355E+03  0.9671E+03
      2.553  0.1298E+03  0.9700E+03
      2.575  0.1274E+03  0.9729E+03
      2.597  0.1332E+03  0.9758E+03
      2.619  0.1341E+03  0.9788E+03
      2.642  0.1289E+03  0.9817E+03
      2.664  0.1353E+03  0.9847E+03
      2.686  0.1384E+03  0.9877E+03
      2.708  0.1295E+03  0.9906E+03
      2.730  0.1230E+03  0.9933E+03
      2.753  0.1175E+03  0.9960E+03
      2.775  0.1128E+03  0.9985E+03
      2.797  0.1126E+03  0.1001E+04
      2.819  0.1063E+03  0.1003E+04
      2.842  0.8931E+02  0.1005E+04
      2.864  0.8124E+02  0.1007E+04
      2.886  0.7166E+02  0.1009E+04
      2.908  0.4235E+02  0.1010E+04
      2.930  0.1353E+02  0.1010E+04
      2.953  0.1960E+01  0.1010E+04
      2.975  0.1135E+00  0.1010E+04
      2.997  0.2451E-02  0.1010E+04
      3.019  0.1908E-04  0.1010E+04
      3.042  0.5247E-07  0.1010E+04
      3.064  0.5030E-10  0.1010E+04
      3.086  0.1499E-13  0.1010E+04
      3.108  0.0000E+00  0.1010E+04
      3.130  0.0000E+00  0.1010E+04
      3.153  0.0000E+00  0.1010E+04
      3.175  0.0000E+00  0.1010E+04
      3.197  0.0000E+00  0.1010E+04
