 running on   64 total cores
 distrk:  each k-point on   32 cores,    2 groups
 distr:  one band on   32 cores,    1 groups
 vasp.6.2.1 16May21 (build Nov 23 2021 15:40:41) complex                        
  
 POSCAR found type information on POSCAR Li
 POSCAR found :  1 types and     504 ions
 scaLAPACK will be used
 -----------------------------------------------------------------------------
|                                                                             |
|           W    W    AA    RRRRR   N    N  II  N    N   GGGG   !!!           |
|           W    W   A  A   R    R  NN   N  II  NN   N  G    G  !!!           |
|           W    W  A    A  R    R  N N  N  II  N N  N  G       !!!           |
|           W WW W  AAAAAA  RRRRR   N  N N  II  N  N N  G  GGG   !            |
|           WW  WW  A    A  R   R   N   NN  II  N   NN  G    G                |
|           W    W  A    A  R    R  N    N  II  N    N   GGGG   !!!           |
|                                                                             |
|     For optimal performance we recommend to set                             |
|       NCORE = 2 up to number-of-cores-per-socket                            |
|     NCORE specifies how many cores store one orbital (NPAR=cpu/NCORE).      |
|     This setting can greatly improve the performance of VASP for DFT.       |
|     The default, NCORE=1 might be grossly inefficient on modern             |
|     multi-core architectures or massively parallel machines. Do your        |
|     own testing! More info at https://www.vasp.at/wiki/index.php/NCORE      |
|     Unfortunately you need to use the default for GW and RPA                |
|     calculations (for HF NCORE is supported but not extensively tested      |
|     yet).                                                                   |
|                                                                             |
 -----------------------------------------------------------------------------

 -----------------------------------------------------------------------------
|                                                                             |
|               ----> ADVICE to this user running VASP <----                  |
|                                                                             |
|     You have a (more or less) 'large supercell' and for larger cells it     |
|     might be more efficient to use real-space projection operators.         |
|     Therefore, try LREAL= Auto in the INCAR file.                           |
|     Mind: If you want to do very accurate calculations, keep the            |
|     reciprocal projection scheme (i.e. LREAL=.FALSE.).                      |
|                                                                             |
 -----------------------------------------------------------------------------

 LDA part: xc-table for Pade appr. of Perdew
 POSCAR found type information on POSCAR Li
 POSCAR found :  1 types and     504 ions
 POSCAR, INCAR and KPOINTS ok, starting setup
 FFT: planning ...
 WAVECAR not read
 entering main loop
       N       E                     dE             d eps       ncg     rms          rms(c)
DAV:   1    -0.262920176629E+03   -0.26292E+03   -0.12118E+05  4040   0.652E+02
DAV:   2    -0.867185259742E+03   -0.60427E+03   -0.55191E+03  4652   0.668E+01
DAV:   3    -0.912115933127E+03   -0.44931E+02   -0.41140E+02  5248   0.144E+01
DAV:   4    -0.913691484239E+03   -0.15756E+01   -0.15523E+01  4784   0.294E+00
DAV:   5    -0.913730141895E+03   -0.38658E-01   -0.38586E-01  4936   0.480E-01    0.117E+01
DAV:   6    -0.908955408295E+03    0.47747E+01   -0.16531E+01  4888   0.581E+00    0.963E+00
DAV:   7    -0.896832890486E+03    0.12123E+02   -0.16533E+01  4952   0.567E+00    0.569E+00
DAV:   8    -0.893587965586E+03    0.32449E+01   -0.95321E+00  4720   0.292E+00    0.313E+00
DAV:   9    -0.893294067775E+03    0.29390E+00   -0.38560E+00  4792   0.202E+00    0.245E+00
DAV:  10    -0.892725717361E+03    0.56835E+00   -0.17195E+00  4760   0.130E+00    0.135E+00
DAV:  11    -0.892652646339E+03    0.73071E-01   -0.58943E-01  4568   0.654E-01    0.837E-01
DAV:  12    -0.892657835748E+03   -0.51894E-02   -0.16706E-01  4888   0.453E-01    0.727E-01
DAV:  13    -0.892607016438E+03    0.50819E-01   -0.74223E-02  4832   0.294E-01    0.327E-01
DAV:  14    -0.892615684462E+03   -0.86680E-02   -0.26264E-02  4864   0.190E-01    0.313E-01
DAV:  15    -0.892603701086E+03    0.11983E-01   -0.17816E-02  4864   0.149E-01    0.120E-01
DAV:  16    -0.892603396309E+03    0.30478E-03   -0.49769E-03  4608   0.658E-02    0.753E-02
DAV:  17    -0.892603327257E+03    0.69052E-04   -0.15882E-03  4632   0.417E-02    0.537E-02
DAV:  18    -0.892603042303E+03    0.28495E-03   -0.55728E-04  4608   0.275E-02    0.300E-02
DAV:  19    -0.892602980375E+03    0.61927E-04   -0.19420E-04  4544   0.133E-02    0.142E-02
DAV:  20    -0.892602970096E+03    0.10279E-04   -0.70586E-05  4528   0.808E-03    0.864E-03
DAV:  21    -0.892602969998E+03    0.97791E-07   -0.18432E-05  3312   0.536E-03
   1 F= -.89260297E+03 E0= -.89254163E+03  d E =-.122676E+00
