Li                                      
           1
   -10.853500   18.798813    0.000000
   -18.606000  -10.742179    0.000000
     0.000000    0.000000   22.765000
   Li
   504
Direct configuration=     1
   0.03006035  0.97921358  0.01387961
   0.93270536  0.05186502  0.69462155
   0.84250230  0.06935756  0.31524177
   0.79121279  0.14375277  0.00323430
   0.73636076  0.19305978  0.65739028
   0.63948890  0.21351879  0.32293032
   0.58363149  0.26298814  0.98535687
   0.50408519  0.29247218  0.65391485
   0.43719727  0.34492092  0.31352551
   0.37244243  0.35724834  0.97448200
   0.30954033  0.43180614  0.66479555
   0.20615623  0.49523275  0.33946199
   0.06921334  0.05982813  0.69736063
   0.98966390  0.11305723  0.32662144
   0.91752948  0.11560808  0.02733531
   0.87834951  0.15515892  0.67701175
   0.78730839  0.17877068  0.33314025
   0.71809776  0.26318942  0.00303911
   0.64938592  0.29749701  0.68187341
   0.55983753  0.32614375  0.34516025
   0.53873609  0.39222269  0.99318157
   0.43276904  0.45370777  0.68649338
   0.33635830  0.46383713  0.32985463
   0.30005301  0.49197433  0.00991226
   0.14757742  0.07201092  0.33264122
   0.08361529  0.10678781  0.00214775
   0.02978378  0.17900182  0.69782397
   0.92850343  0.20947777  0.34802303
   0.86278961  0.26421240  0.00881161
   0.80233115  0.27085791  0.65651144
   0.73466679  0.32489895  0.32328356
   0.66138192  0.40813929  0.99709104
   0.57586334  0.41308329  0.66657835
   0.49150533  0.44939878  0.33457723
   0.43140704  0.52099442  0.98881845
   0.33585855  0.54712756  0.68929854
   0.21292346  0.12415566  0.98449177
   0.16863298  0.17657998  0.65912528
   0.08956962  0.23773237  0.34315109
   0.01755945  0.23270525  0.98283368
   0.92736809  0.25726975  0.66779610
   0.86544065  0.32867287  0.31102071
   0.78136780  0.38885083  0.97204658
   0.70117413  0.40934587  0.68020895
   0.62137918  0.43688160  0.33119875
   0.59984094  0.53548790  0.99395310
   0.49052067  0.52016654  0.67579400
   0.43217559  0.58107702  0.33497413
   0.29019332  0.18362912  0.65662868
   0.21652678  0.20022555  0.32869220
   0.13203872  0.23822204  0.01462859
   0.06715497  0.29868638  0.67273940
   0.02240721  0.33846372  0.33063586
   0.91442964  0.37153823  0.99831829
   0.86558977  0.40190341  0.65353534
   0.77554535  0.47969382  0.34194056
   0.72278627  0.54827676  0.01697671
   0.62589331  0.54632207  0.67062806
   0.54694882  0.57395491  0.35628358
   0.53399459  0.64480427  0.01029056
   0.33995371  0.18628369  0.31925155
   0.26844333  0.21783717  0.00159282
   0.24481115  0.27582138  0.67344393
   0.15965341  0.35779992  0.31401415
   0.07764765  0.36654471  0.98379691
   0.98705035  0.43517973  0.67770829
   0.90923445  0.45052851  0.33305988
   0.83672144  0.49241787  0.97668502
   0.78956430  0.53444601  0.66503151
   0.68656985  0.57125293  0.33712568
   0.65898041  0.68000716  0.98590595
   0.55708177  0.66359167  0.67445417
   0.42862466  0.24819990  0.98757003
   0.36166817  0.32565953  0.67614226
   0.27844339  0.33163579  0.32168844
   0.22692976  0.37635771  0.98455358
   0.17579429  0.40106032  0.67977002
   0.04486655  0.45770981  0.33390027
   0.01816058  0.48980668  0.98236984
   0.89555750  0.52992684  0.68996233
   0.84477292  0.57195247  0.32005231
   0.82061111  0.65396200  0.98640796
   0.68630637  0.67899467  0.66830943
   0.62634697  0.69746760  0.34078986
   0.14606496  0.46104641  0.02054568
   0.05932892  0.54898507  0.66296676
   0.98691827  0.59194198  0.31899978
   0.93262082  0.61750177  0.98311851
   0.83418992  0.65528419  0.66447578
   0.77975957  0.71914314  0.33152212
   0.71471895  0.77564887  0.00288728
   0.20939502  0.55279972  0.65957134
   0.13961659  0.57529570  0.33457587
   0.09295024  0.61430265  0.99190440
   0.96840013  0.65123988  0.64401429
   0.89150321  0.71826236  0.30465345
   0.86194514  0.76866153  0.00639633
   0.77729042  0.80591142  0.67330693
   0.29412586  0.58488706  0.33207015
   0.23737412  0.60360171  0.99385670
   0.11752667  0.66371745  0.66617056
   0.05384612  0.69829508  0.34012642
   0.02706600  0.73644303  0.99152109
   0.91256134  0.79597425  0.65399878
   0.84251421  0.84471003  0.33548766
   0.37648305  0.63140103  0.99429378
   0.27440773  0.68325220  0.64481958
   0.22081156  0.70968318  0.33237304
   0.17361044  0.74235136  0.99349286
   0.06267668  0.77762721  0.64314579
   0.99656361  0.82653012  0.33184742
   0.93956984  0.85372774  0.96784765
   0.43028965  0.64725782  0.65419773
   0.35919414  0.71700035  0.34135786
   0.31033416  0.74091846  0.97575786
   0.21848110  0.79243875  0.67461442
   0.11529647  0.84806095  0.35009563
   0.08011712  0.86368868  0.98238944
   0.00437331  0.92845299  0.64210404
   0.91929516  0.95575692  0.31653587
   0.86144635  0.98090600  0.98977905
   0.79174174  0.03294695  0.66565731
   0.70626614  0.08294663  0.36493960
   0.62520625  0.14007369  0.99781235
   0.59221786  0.16086392  0.65665018
   0.49067992  0.22360248  0.34528881
   0.06498723  0.97269822  0.34144971
   0.16493544  0.98882259  0.00808286
   0.22223779  0.03552420  0.67528750
   0.27139866  0.09822427  0.32715437
   0.36111116  0.11300343  0.98140904
   0.42985734  0.17030937  0.67382917
   0.85213212  0.94040039  0.66434721
   0.75333603  0.96368898  0.33524207
   0.70528502  0.02077472  0.99994062
   0.66759026  0.04964073  0.65553658
   0.56880400  0.09136840  0.32550043
   0.48932215  0.13368621  0.99501565
   0.15594525  0.92554121  0.69533711
   0.21577328  0.95026405  0.33972037
   0.30379584  0.00485333  0.97968234
   0.35404558  0.04670046  0.67294295
   0.41845716  0.10027731  0.34803803
   0.77658533  0.88721082  0.00316275
   0.65833353  0.91347897  0.67471600
   0.63037727  0.94876784  0.35420910
   0.56635255  0.02444693  0.00691080
   0.51600031  0.02541054  0.66415970
   0.22003699  0.87336914  0.01568677
   0.30358317  0.92268440  0.69989366
   0.34421423  0.95350940  0.37232080
   0.44243773  0.00765431  0.96647547
   0.69844380  0.84742659  0.33442844
   0.62454503  0.89816843  0.04747635
   0.54928651  0.93439574  0.69088526
   0.47997622  0.95232763  0.33937134
   0.27878343  0.81804936  0.32267443
   0.36707573  0.86694074  0.00000142
   0.41462810  0.91412711  0.65934631
   0.61717362  0.78474892  0.66345350
   0.57668206  0.84040521  0.32812361
   0.48874856  0.90723459  0.99555351
   0.33547470  0.79620177  0.68852307
   0.41312750  0.81757245  0.35004607
   0.57343073  0.76313116  0.00761196
   0.48010933  0.80230525  0.66839026
   0.44894090  0.75464914  0.00559225
   0.49173786  0.71483654  0.33424688
   0.00652138  0.99852762  0.79608737
   0.94171194  0.04771161  0.42062761
   0.82391178  0.06853171  0.11898274
   0.80270115  0.12388566  0.76532582
   0.70016948  0.14989908  0.43560799
   0.66270358  0.20275368  0.10842882
   0.58238895  0.26502590  0.77873631
   0.50509546  0.28215664  0.44987378
   0.43666080  0.32220846  0.11352534
   0.34910839  0.39639045  0.80772563
   0.27286242  0.40320134  0.43690036
   0.21530422  0.44183838  0.09601013
   0.06337093  0.02536650  0.44111809
   0.98662667  0.07749784  0.10998506
   0.93288147  0.10903054  0.81034035
   0.83946516  0.15786187  0.43898921
   0.77135429  0.20768264  0.11926488
   0.72037915  0.25435665  0.77432972
   0.62910615  0.28814866  0.41688318
   0.58706315  0.34835753  0.12306103
   0.50212247  0.37110740  0.80725294
   0.41797143  0.41479400  0.44133251
   0.37927104  0.43203478  0.11241820
   0.30381291  0.51540585  0.78201733
   0.15665848  0.06481625  0.11806645
   0.09503954  0.11510794  0.79876106
   0.02883208  0.18041037  0.44013578
   0.93283266  0.20629383  0.10297214
   0.85983779  0.24402555  0.79065257
   0.78226871  0.29920530  0.44558275
   0.73151444  0.33937341  0.10925299
   0.66232927  0.38149446  0.78023842
   0.57119044  0.39908554  0.44356840
   0.51139279  0.46524106  0.09997895
   0.42756979  0.51824868  0.81978515
   0.34204041  0.52162028  0.46234946
   0.21755597  0.12571643  0.77408241
   0.14456707  0.15996427  0.46399257
   0.06039627  0.19422237  0.12779608
   0.01519380  0.23514081  0.80336076
   0.92365036  0.29674819  0.44191237
   0.85553476  0.33892321  0.11407478
   0.77754535  0.37421050  0.77543858
   0.71077907  0.44568414  0.45838637
   0.64304071  0.45634521  0.11647623
   0.58322228  0.48165633  0.79544712
   0.48684048  0.49218695  0.48390359
   0.46738315  0.57784181  0.10271157
   0.29638942  0.17634536  0.43788494
   0.21569256  0.19642594  0.11389252
   0.15780718  0.24460693  0.76245526
   0.09596561  0.29559835  0.45296686
   0.00255929  0.34270450  0.10133956
   0.92796353  0.34774619  0.76508167
   0.84907641  0.40525149  0.45785938
   0.77173527  0.48370541  0.10667715
   0.73855879  0.51549160  0.76543354
   0.64739959  0.56623867  0.46177864
   0.59006788  0.60265043  0.11842799
   0.49227336  0.60941892  0.77395352
   0.35610351  0.19807752  0.10095346
   0.32107786  0.24836103  0.77403592
   0.23704170  0.29784357  0.44580133
   0.16299935  0.34667527  0.12101681
   0.07940571  0.35665289  0.78306775
   0.00195797  0.41070143  0.44035124
   0.93374408  0.47853580  0.10824059
   0.86880886  0.48743722  0.77412736
   0.77362661  0.55677614  0.43938772
   0.75072436  0.60867416  0.11489815
   0.63645322  0.61241777  0.78547164
   0.55098470  0.66483852  0.43501458
   0.45233284  0.25975619  0.77968329
   0.37937735  0.31371549  0.41700265
   0.27927046  0.31257822  0.09695254
   0.23389764  0.37190215  0.78528144
   0.12755516  0.40704591  0.43767961
   0.07263799  0.45855217  0.11467407
   0.00202441  0.49172769  0.75301303
   0.93135789  0.52713206  0.42744368
   0.84791928  0.61096291  0.08671813
   0.79505752  0.63479545  0.75024923
   0.71401182  0.69117152  0.43599223
   0.63342769  0.71995608  0.11900827
   0.15858691  0.49438582  0.76974735
   0.06911582  0.55977765  0.43093613
   0.00788442  0.59565090  0.11811668
   0.93647451  0.61185162  0.76324841
   0.86008078  0.66940953  0.42742466
   0.80584291  0.72613551  0.09387333
   0.72697032  0.75688613  0.77629980
   0.21650596  0.53481538  0.45457545
   0.15510575  0.58523679  0.11160708
   0.07268299  0.60821144  0.77323463
   0.98102601  0.66483021  0.42428836
   0.94390485  0.71464764  0.08735835
   0.86059721  0.74927970  0.77274697
   0.76956248  0.79562167  0.45826100
   0.30228439  0.55366980  0.10391978
   0.19808705  0.63042717  0.76415096
   0.12529587  0.69271524  0.42641882
   0.09472744  0.70122649  0.10000308
   0.03704255  0.76328834  0.75548717
   0.94994236  0.79365521  0.44927758
   0.83713794  0.83307419  0.08841257
   0.35472145  0.64415393  0.74767795
   0.26957473  0.66480124  0.44468173
   0.24131681  0.69804767  0.10786996
   0.15151189  0.72954410  0.78277319
   0.07809772  0.80346620  0.44090313
   0.99057026  0.83071477  0.09736003
   0.93296442  0.86425432  0.75690939
   0.42488287  0.62492612  0.45801972
   0.35856857  0.69161760  0.10070852
   0.28047036  0.72538768  0.77890124
   0.21470462  0.78509938  0.45373151
   0.14190224  0.80974951  0.12619399
   0.05989813  0.88753077  0.78511983
   0.97879100  0.91124549  0.44724293
   0.92707837  0.93792521  0.10605069
   0.87060397  0.99716702  0.80651622
   0.78137480  0.01294878  0.43566265
   0.69402882  0.07682513  0.11831014
   0.66168248  0.09910730  0.77678760
   0.58446982  0.14329653  0.43413078
   0.51328731  0.21606937  0.10458351
   0.07710626  0.91782331  0.11426193
   0.16209437  0.99536226  0.77967899
   0.22031232  0.03982074  0.45041033
   0.28868055  0.08600988  0.10437888
   0.35747305  0.12526130  0.79163802
   0.42616210  0.17650921  0.45220053
   0.82550841  0.91032581  0.43990926
   0.77540961  0.96926554  0.10239178
   0.73624756  0.00380637  0.77251040
   0.64284536  0.02800844  0.42688922
   0.55678856  0.07238817  0.11159422
   0.47629463  0.11449149  0.77329961
   0.12033559  0.91995661  0.44323322
   0.24380449  0.94483814  0.11439332
   0.29779317  0.99948297  0.77002787
   0.35616745  0.05875469  0.44103377
   0.42154570  0.06402406  0.10721222
   0.78490856  0.86619648  0.79285000
   0.68235004  0.89360214  0.44986889
   0.62208335  0.96833537  0.12999897
   0.61146474  0.98518134  0.80027953
   0.49158410  0.05787262  0.46355594
   0.19830010  0.86120683  0.78009449
   0.26505513  0.90026866  0.44886551
   0.36474722  0.93654735  0.09855192
   0.46087585  0.97086179  0.76419003
   0.70790067  0.84719291  0.11196986
   0.65214385  0.85896158  0.80594868
   0.52711738  0.90270377  0.44420525
   0.47508970  0.94575121  0.11363407
   0.28029311  0.82039249  0.10132329
   0.32089348  0.85822509  0.78959837
   0.42328284  0.90825497  0.44558450
   0.60203500  0.78616837  0.45632229
   0.51749443  0.84084243  0.13526608
   0.51462289  0.86112322  0.77739848
   0.35352467  0.79655514  0.43832692
   0.42187358  0.79727826  0.10470001
   0.59487822  0.74949998  0.78040863
   0.47468277  0.78126479  0.45160249
   0.44641408  0.75130908  0.77898526
   0.48802319  0.70055772  0.12887028
   0.02092193  0.01445131  0.23246024
   0.92549902  0.01682561  0.90444337
   0.84703466  0.07576250  0.55777054
   0.74805410  0.14760698  0.24459858
   0.73434177  0.16448537  0.89435244
   0.63937908  0.18646122  0.56652596
   0.54742220  0.25577860  0.22737256
   0.49485861  0.30474773  0.89137193
   0.45067709  0.34860007  0.54395456
   0.36535838  0.37722524  0.23001939
   0.28121325  0.40740197  0.88225065
   0.21305798  0.47910725  0.55825817
   0.08195540  0.01039986  0.89247308
   0.96562148  0.06972348  0.56931387
   0.92281558  0.14102002  0.21693862
   0.86718096  0.17007252  0.90154924
   0.80687450  0.20832808  0.53181742
   0.70288351  0.26290667  0.22763085
   0.64809449  0.32649550  0.88800928
   0.60424569  0.32880085  0.55246133
   0.52050946  0.39765212  0.24885528
   0.44329819  0.43165311  0.89454773
   0.35577037  0.44836317  0.55493591
   0.28534283  0.47742674  0.20042246
   0.15285106  0.07126189  0.56918084
   0.07646411  0.11888418  0.22398178
   0.99743170  0.15302243  0.91214189
   0.91884513  0.19740055  0.54841610
   0.85464674  0.25033147  0.22665286
   0.82181947  0.28555571  0.88419875
   0.73348715  0.32176070  0.56756572
   0.64965549  0.38630301  0.23297851
   0.58535697  0.42976144  0.90292429
   0.49265301  0.44698781  0.55213617
   0.42727013  0.49263987  0.20909826
   0.35376082  0.51832125  0.87697149
   0.22546897  0.12389140  0.22459588
   0.13977102  0.17282730  0.91986596
   0.06044113  0.20816276  0.57596162
   0.99649498  0.25678961  0.21762173
   0.94017958  0.27749532  0.89378861
   0.87215368  0.33609652  0.53608793
   0.78609656  0.39831491  0.20543795
   0.74864213  0.41013837  0.89304802
   0.62712076  0.45827690  0.57471581
   0.55585280  0.51718823  0.24308267
   0.51739123  0.57406990  0.89281895
   0.42769059  0.57483231  0.58464726
   0.30375423  0.16591091  0.88484529
   0.22188615  0.20465912  0.53723069
   0.13203993  0.26223990  0.24132831
   0.08065152  0.28439202  0.89131594
   0.99460344  0.32688708  0.55194010
   0.95220933  0.38669326  0.21283547
   0.84711313  0.40866210  0.90329016
   0.77770248  0.46215016  0.56977374
   0.70978399  0.51425420  0.22505102
   0.65123803  0.54437480  0.89413482
   0.56712004  0.58109114  0.56292292
   0.50396387  0.60503851  0.25465330
   0.35291128  0.22488430  0.54275503
   0.27112316  0.27553707  0.19202166
   0.20745810  0.27362376  0.88451735
   0.16263662  0.35202371  0.59201135
   0.09609823  0.40194200  0.22265483
   0.99458971  0.38881309  0.86993702
   0.94174479  0.48255165  0.53613091
   0.86812319  0.51650285  0.22182899
   0.75574179  0.56407944  0.89924088
   0.71902740  0.58366139  0.56206346
   0.62330590  0.62397824  0.23563946
   0.57392611  0.65897332  0.86972251
   0.41367321  0.26487420  0.23142030
   0.36763631  0.28922679  0.87734807
   0.30641818  0.33744735  0.54368351
   0.21345898  0.39069671  0.23983287
   0.14649538  0.39559602  0.87505109
   0.09282867  0.46063059  0.55682688
   0.99538611  0.51518014  0.21144810
   0.93175033  0.54092864  0.86663208
   0.84961579  0.59825763  0.54498968
   0.78421679  0.63482459  0.20860461
   0.70395855  0.68496856  0.87637656
   0.63236149  0.71087528  0.54379243
   0.13372263  0.51417345  0.22636021
   0.06245760  0.52249842  0.88564840
   0.97052153  0.58377117  0.55951749
   0.92967768  0.64577275  0.21294294
   0.85780548  0.68009695  0.87952955
   0.78315620  0.72055577  0.54068631
   0.70014309  0.77283828  0.20591524
   0.20824829  0.52125642  0.88823940
   0.11160155  0.61411883  0.55350340
   0.08123193  0.63889775  0.21655370
   0.01716026  0.68639253  0.86518104
   0.92512870  0.72446480  0.56628330
   0.87112470  0.75219551  0.19011130
   0.79299608  0.78588218  0.88530332
   0.27733695  0.59472660  0.55207442
   0.22191750  0.62070986  0.21241095
   0.15093723  0.66048730  0.85965957
   0.03843369  0.72417746  0.54611344
   0.99936394  0.74590156  0.18088136
   0.94141081  0.75798814  0.85739817
   0.87691603  0.82044108  0.54001312
   0.33695194  0.63201065  0.21232581
   0.28478469  0.65487007  0.86019499
   0.17359887  0.70077461  0.53399391
   0.16367128  0.73882349  0.24374387
   0.09845682  0.79217194  0.88377402
   0.00930053  0.85283929  0.54263452
   0.91631496  0.86780838  0.22024373
   0.41801164  0.64719950  0.88239205
   0.37571530  0.69735265  0.58735723
   0.30773149  0.76223905  0.20911534
   0.22263123  0.77415123  0.89435562
   0.12772376  0.81634343  0.53590816
   0.06529781  0.88678980  0.25044526
   0.01091391  0.88625393  0.87623443
   0.90818829  0.95608288  0.54768854
   0.86527439  0.99804364  0.22149740
   0.78495098  0.03679961  0.89726610
   0.69387709  0.08107453  0.52567430
   0.61587295  0.12914199  0.23176147
   0.58470644  0.18455976  0.89091888
   0.50258318  0.20646186  0.54611263
   0.08670345  0.99876905  0.56145495
   0.14513984  0.97915326  0.21676502
   0.20824900  0.06388851  0.87875101
   0.29632377  0.09319545  0.54755826
   0.34271847  0.12329833  0.21527257
   0.42036792  0.17461181  0.88774917
   0.83315100  0.89405923  0.86754283
   0.75959631  0.94538952  0.54902088
   0.71409107  0.01642050  0.23768425
   0.65068151  0.04255108  0.90774728
   0.58368658  0.05458402  0.56888579
   0.44988471  0.14307583  0.22350908
   0.16442567  0.91023689  0.87365390
   0.23364654  0.95258449  0.54715792
   0.28625194  0.00179572  0.22359233
   0.38346059  0.02028344  0.87177971
   0.44086011  0.09326395  0.58522117
   0.76937823  0.89068240  0.22662124
   0.71803624  0.92245931  0.91303980
   0.61395521  0.93675381  0.54502428
   0.54442244  0.98729283  0.23041958
   0.49078183  0.07299822  0.88602473
   0.21804226  0.87538143  0.22827041
   0.28870649  0.92386693  0.89976900
   0.36484456  0.96012037  0.54070169
   0.40852519  0.99343138  0.23654679
   0.70410502  0.83592451  0.56165279
   0.63013887  0.90148536  0.22157080
   0.57637342  0.93067301  0.89288367
   0.48010604  0.94611337  0.56452851
   0.28041164  0.83023881  0.57709622
   0.35403491  0.86230878  0.23014667
   0.44759359  0.91619639  0.88077417
   0.63605272  0.77992525  0.93606923
   0.51718425  0.83132159  0.57875596
   0.48125495  0.86663352  0.23896771
   0.35882662  0.79781720  0.87911009
   0.40988332  0.83383633  0.55103270
   0.55329200  0.74108094  0.26160403
   0.48554997  0.79314926  0.89679190
   0.43874047  0.73884662  0.22293743
   0.48242678  0.69687253  0.55384401
