 500 500   0   0
  0.2153794E+02  0.2208300E-08  0.2208300E-08  0.2208300E-08  0.5000000E-15
  1.000000000000000E-004
  CAR 
 Li                                      
      3.23687253     -3.50672564  301      0.24352077      1.00000000
     -3.507  0.0000E+00  0.0000E+00
     -3.484  0.0000E+00  0.0000E+00
     -3.462  0.0000E+00  0.0000E+00
     -3.439  0.0000E+00  0.0000E+00
     -3.417  0.0000E+00  0.0000E+00
     -3.394  0.0000E+00  0.0000E+00
     -3.372  0.2470E-13  0.5551E-15
     -3.349  0.8976E-10  0.2018E-11
     -3.327  0.1032E-06  0.2321E-08
     -3.304  0.3961E-04  0.8928E-06
     -3.282  0.5124E-02  0.1161E-03
     -3.259  0.2260E+00  0.5196E-02
     -3.237  0.3450E+01  0.8275E-01
     -3.215  0.1854E+02  0.4995E+00
     -3.192  0.3558E+02  0.1299E+01
     -3.170  0.2457E+02  0.1852E+01
     -3.147  0.6584E+01  0.2000E+01
     -3.125  0.8467E+01  0.2190E+01
     -3.102  0.4553E+02  0.3213E+01
     -3.080  0.9922E+02  0.5444E+01
     -3.057  0.8334E+02  0.7317E+01
     -3.035  0.2724E+02  0.7929E+01
     -3.012  0.8766E+01  0.8126E+01
     -2.990  0.3691E+02  0.8956E+01
     -2.967  0.9354E+02  0.1106E+02
     -2.945  0.9139E+02  0.1311E+02
     -2.922  0.3458E+02  0.1389E+02
     -2.900  0.9897E+01  0.1411E+02
     -2.877  0.3694E+02  0.1494E+02
     -2.855  0.1079E+03  0.1737E+02
     -2.832  0.1297E+03  0.2029E+02
     -2.810  0.6353E+02  0.2171E+02
     -2.787  0.1808E+02  0.2212E+02
     -2.765  0.4401E+02  0.2311E+02
     -2.742  0.1337E+03  0.2611E+02
     -2.720  0.1888E+03  0.3036E+02
     -2.697  0.1229E+03  0.3312E+02
     -2.675  0.3641E+02  0.3394E+02
     -2.653  0.1883E+02  0.3436E+02
     -2.630  0.5919E+02  0.3569E+02
     -2.608  0.9846E+02  0.3791E+02
     -2.585  0.6999E+02  0.3948E+02
     -2.563  0.2286E+02  0.3999E+02
     -2.540  0.2488E+02  0.4055E+02
     -2.518  0.9544E+02  0.4270E+02
     -2.495  0.1801E+03  0.4675E+02
     -2.473  0.1585E+03  0.5031E+02
     -2.450  0.6629E+02  0.5180E+02
     -2.428  0.3748E+02  0.5264E+02
     -2.405  0.1138E+03  0.5520E+02
     -2.383  0.2300E+03  0.6037E+02
     -2.360  0.2476E+03  0.6594E+02
     -2.338  0.1395E+03  0.6907E+02
     -2.315  0.3964E+02  0.6996E+02
     -2.293  0.2701E+02  0.7057E+02
     -2.270  0.7621E+02  0.7228E+02
     -2.248  0.1004E+03  0.7454E+02
     -2.225  0.5364E+02  0.7575E+02
     -2.203  0.2071E+02  0.7621E+02
     -2.180  0.5958E+02  0.7755E+02
     -2.158  0.1582E+03  0.8111E+02
     -2.136  0.2064E+03  0.8575E+02
     -2.113  0.1377E+03  0.8884E+02
     -2.091  0.5348E+02  0.9004E+02
     -2.068  0.6108E+02  0.9142E+02
     -2.046  0.1594E+03  0.9500E+02
     -2.023  0.2444E+03  0.1005E+03
     -2.001  0.2129E+03  0.1053E+03
     -1.978  0.9925E+02  0.1075E+03
     -1.956  0.3491E+02  0.1083E+03
     -1.933  0.7250E+02  0.1099E+03
     -1.911  0.1609E+03  0.1135E+03
     -1.888  0.1750E+03  0.1175E+03
     -1.866  0.9345E+02  0.1196E+03
     -1.843  0.5237E+02  0.1208E+03
     -1.821  0.1282E+03  0.1236E+03
     -1.798  0.2396E+03  0.1290E+03
     -1.776  0.2380E+03  0.1344E+03
     -1.753  0.1261E+03  0.1372E+03
     -1.731  0.4606E+02  0.1382E+03
     -1.708  0.8050E+02  0.1401E+03
     -1.686  0.2002E+03  0.1446E+03
     -1.663  0.2636E+03  0.1505E+03
     -1.641  0.1788E+03  0.1545E+03
     -1.619  0.6481E+02  0.1560E+03
     -1.596  0.5060E+02  0.1571E+03
     -1.574  0.1248E+03  0.1599E+03
     -1.551  0.1791E+03  0.1639E+03
     -1.529  0.1302E+03  0.1668E+03
     -1.506  0.5481E+02  0.1681E+03
     -1.484  0.5953E+02  0.1694E+03
     -1.461  0.1267E+03  0.1723E+03
     -1.439  0.1627E+03  0.1759E+03
     -1.416  0.1248E+03  0.1787E+03
     -1.394  0.6572E+02  0.1802E+03
     -1.371  0.9501E+02  0.1823E+03
     -1.349  0.2249E+03  0.1874E+03
     -1.326  0.3447E+03  0.1951E+03
     -1.304  0.3446E+03  0.2029E+03
     -1.281  0.2225E+03  0.2079E+03
     -1.259  0.1045E+03  0.2102E+03
     -1.236  0.1272E+03  0.2131E+03
     -1.214  0.2353E+03  0.2184E+03
     -1.191  0.2426E+03  0.2238E+03
     -1.169  0.1410E+03  0.2270E+03
     -1.146  0.6582E+02  0.2285E+03
     -1.124  0.7119E+02  0.2301E+03
     -1.102  0.1358E+03  0.2331E+03
     -1.079  0.1968E+03  0.2376E+03
     -1.057  0.1587E+03  0.2411E+03
     -1.034  0.1263E+03  0.2440E+03
     -1.012  0.2044E+03  0.2486E+03
     -0.989  0.2754E+03  0.2548E+03
     -0.967  0.2541E+03  0.2605E+03
     -0.944  0.1680E+03  0.2642E+03
     -0.922  0.6812E+02  0.2658E+03
     -0.899  0.3108E+02  0.2665E+03
     -0.877  0.5962E+02  0.2678E+03
     -0.854  0.8927E+02  0.2698E+03
     -0.832  0.7355E+02  0.2715E+03
     -0.809  0.6548E+02  0.2730E+03
     -0.787  0.1511E+03  0.2763E+03
     -0.764  0.2748E+03  0.2825E+03
     -0.742  0.3376E+03  0.2901E+03
     -0.719  0.3242E+03  0.2974E+03
     -0.697  0.2541E+03  0.3031E+03
     -0.674  0.1991E+03  0.3076E+03
     -0.652  0.2038E+03  0.3122E+03
     -0.629  0.2795E+03  0.3185E+03
     -0.607  0.3231E+03  0.3257E+03
     -0.584  0.2517E+03  0.3314E+03
     -0.562  0.1622E+03  0.3350E+03
     -0.540  0.1090E+03  0.3375E+03
     -0.517  0.9708E+02  0.3397E+03
     -0.495  0.1229E+03  0.3424E+03
     -0.472  0.1367E+03  0.3455E+03
     -0.450  0.1809E+03  0.3496E+03
     -0.427  0.2096E+03  0.3543E+03
     -0.405  0.1951E+03  0.3587E+03
     -0.382  0.1888E+03  0.3629E+03
     -0.360  0.1586E+03  0.3665E+03
     -0.337  0.1315E+03  0.3694E+03
     -0.315  0.1923E+03  0.3737E+03
     -0.292  0.2867E+03  0.3802E+03
     -0.270  0.3238E+03  0.3875E+03
     -0.247  0.2823E+03  0.3938E+03
     -0.225  0.2064E+03  0.3984E+03
     -0.202  0.2008E+03  0.4030E+03
     -0.180  0.2321E+03  0.4082E+03
     -0.157  0.1990E+03  0.4127E+03
     -0.135  0.1173E+03  0.4153E+03
     -0.112  0.7824E+02  0.4170E+03
     -0.090  0.1440E+03  0.4203E+03
     -0.067  0.2507E+03  0.4259E+03
     -0.045  0.3081E+03  0.4328E+03
     -0.023  0.2939E+03  0.4395E+03
     -0.000  0.2284E+03  0.4446E+03
      0.022  0.1891E+03  0.4488E+03
      0.045  0.2160E+03  0.4537E+03
      0.067  0.2328E+03  0.4589E+03
      0.090  0.1959E+03  0.4633E+03
      0.112  0.1576E+03  0.4669E+03
      0.135  0.1860E+03  0.4711E+03
      0.157  0.2454E+03  0.4766E+03
      0.180  0.2799E+03  0.4829E+03
      0.202  0.2933E+03  0.4895E+03
      0.225  0.2770E+03  0.4957E+03
      0.247  0.2257E+03  0.5008E+03
      0.270  0.1994E+03  0.5052E+03
      0.292  0.2300E+03  0.5104E+03
      0.315  0.2575E+03  0.5162E+03
      0.337  0.2437E+03  0.5217E+03
      0.360  0.2259E+03  0.5268E+03
      0.382  0.2667E+03  0.5327E+03
      0.405  0.3426E+03  0.5404E+03
      0.427  0.3784E+03  0.5490E+03
      0.450  0.3713E+03  0.5573E+03
      0.472  0.3581E+03  0.5653E+03
      0.494  0.3429E+03  0.5731E+03
      0.517  0.3204E+03  0.5803E+03
      0.539  0.2925E+03  0.5868E+03
      0.562  0.2654E+03  0.5928E+03
      0.584  0.2529E+03  0.5985E+03
      0.607  0.2653E+03  0.6044E+03
      0.629  0.2530E+03  0.6101E+03
      0.652  0.1756E+03  0.6141E+03
      0.674  0.8753E+02  0.6161E+03
      0.697  0.8637E+02  0.6180E+03
      0.719  0.1433E+03  0.6212E+03
      0.742  0.1632E+03  0.6249E+03
      0.764  0.1620E+03  0.6285E+03
      0.787  0.1600E+03  0.6321E+03
      0.809  0.1626E+03  0.6358E+03
      0.832  0.1942E+03  0.6401E+03
      0.854  0.2384E+03  0.6455E+03
      0.877  0.2598E+03  0.6513E+03
      0.899  0.2520E+03  0.6570E+03
      0.922  0.2548E+03  0.6627E+03
      0.944  0.2763E+03  0.6689E+03
      0.967  0.2983E+03  0.6756E+03
      0.989  0.3157E+03  0.6827E+03
      1.011  0.3152E+03  0.6898E+03
      1.034  0.3042E+03  0.6967E+03
      1.056  0.2817E+03  0.7030E+03
      1.079  0.2526E+03  0.7087E+03
      1.101  0.2196E+03  0.7136E+03
      1.124  0.1746E+03  0.7175E+03
      1.146  0.1561E+03  0.7210E+03
      1.169  0.1910E+03  0.7253E+03
      1.191  0.2299E+03  0.7305E+03
      1.214  0.2436E+03  0.7360E+03
      1.236  0.2462E+03  0.7415E+03
      1.259  0.2421E+03  0.7470E+03
      1.281  0.2276E+03  0.7521E+03
      1.304  0.2116E+03  0.7568E+03
      1.326  0.2027E+03  0.7614E+03
      1.349  0.1939E+03  0.7658E+03
      1.371  0.1650E+03  0.7695E+03
      1.394  0.1284E+03  0.7723E+03
      1.416  0.1341E+03  0.7754E+03
      1.439  0.1610E+03  0.7790E+03
      1.461  0.1639E+03  0.7827E+03
      1.484  0.1434E+03  0.7859E+03
      1.506  0.1203E+03  0.7886E+03
      1.528  0.1079E+03  0.7910E+03
      1.551  0.1207E+03  0.7937E+03
      1.573  0.1495E+03  0.7971E+03
      1.596  0.1846E+03  0.8012E+03
      1.618  0.2227E+03  0.8062E+03
      1.641  0.2427E+03  0.8117E+03
      1.663  0.2522E+03  0.8174E+03
      1.686  0.2660E+03  0.8234E+03
      1.708  0.2773E+03  0.8296E+03
      1.731  0.2812E+03  0.8359E+03
      1.753  0.2863E+03  0.8423E+03
      1.776  0.2861E+03  0.8488E+03
      1.798  0.2658E+03  0.8547E+03
      1.821  0.2265E+03  0.8598E+03
      1.843  0.1940E+03  0.8642E+03
      1.866  0.1801E+03  0.8682E+03
      1.888  0.1688E+03  0.8720E+03
      1.911  0.1540E+03  0.8755E+03
      1.933  0.1215E+03  0.8782E+03
      1.956  0.8359E+02  0.8801E+03
      1.978  0.8799E+02  0.8821E+03
      2.001  0.1351E+03  0.8851E+03
      2.023  0.1708E+03  0.8890E+03
      2.046  0.1731E+03  0.8929E+03
      2.068  0.1664E+03  0.8966E+03
      2.090  0.1641E+03  0.9003E+03
      2.113  0.1670E+03  0.9040E+03
      2.135  0.1762E+03  0.9080E+03
      2.158  0.1739E+03  0.9119E+03
      2.180  0.1637E+03  0.9156E+03
      2.203  0.1421E+03  0.9188E+03
      2.225  0.1230E+03  0.9216E+03
      2.248  0.1385E+03  0.9247E+03
      2.270  0.1568E+03  0.9282E+03
      2.293  0.1442E+03  0.9314E+03
      2.315  0.1317E+03  0.9344E+03
      2.338  0.1281E+03  0.9373E+03
      2.360  0.1202E+03  0.9400E+03
      2.383  0.1158E+03  0.9426E+03
      2.405  0.1010E+03  0.9448E+03
      2.428  0.8641E+02  0.9468E+03
      2.450  0.1094E+03  0.9492E+03
      2.473  0.1335E+03  0.9522E+03
      2.495  0.1447E+03  0.9555E+03
      2.518  0.1583E+03  0.9591E+03
      2.540  0.1627E+03  0.9627E+03
      2.563  0.1646E+03  0.9664E+03
      2.585  0.1671E+03  0.9702E+03
      2.607  0.1701E+03  0.9740E+03
      2.630  0.1741E+03  0.9779E+03
      2.652  0.1686E+03  0.9817E+03
      2.675  0.1352E+03  0.9847E+03
      2.697  0.8720E+02  0.9867E+03
      2.720  0.4351E+02  0.9877E+03
      2.742  0.1257E+02  0.9880E+03
      2.765  0.1756E+01  0.9880E+03
      2.787  0.2412E+01  0.9881E+03
      2.810  0.1626E+02  0.9884E+03
      2.832  0.5365E+02  0.9896E+03
      2.855  0.9425E+02  0.9917E+03
      2.877  0.1145E+03  0.9943E+03
      2.900  0.1230E+03  0.9971E+03
      2.922  0.1134E+03  0.9996E+03
      2.945  0.7498E+02  0.1001E+04
      2.967  0.2624E+02  0.1002E+04
      2.990  0.3866E+01  0.1002E+04
      3.012  0.2152E+00  0.1002E+04
      3.035  0.4294E-02  0.1002E+04
      3.057  0.2978E-04  0.1002E+04
      3.080  0.7042E-07  0.1002E+04
      3.102  0.5611E-10  0.1002E+04
      3.124  0.9878E-14  0.1002E+04
      3.147  0.0000E+00  0.1002E+04
      3.169  0.0000E+00  0.1002E+04
      3.192  0.0000E+00  0.1002E+04
      3.214  0.0000E+00  0.1002E+04
      3.237  0.0000E+00  0.1002E+04
