       N       E                     dE             d eps       ncg     rms          rms(c)
DAV:   1    -0.319831489562E+03   -0.31983E+03   -0.11948E+05  4008   0.651E+02
DAV:   2    -0.892978499194E+03   -0.57315E+03   -0.52583E+03  4588   0.653E+01
DAV:   3    -0.933870627338E+03   -0.40892E+02   -0.37268E+02  5208   0.138E+01
DAV:   4    -0.935267264050E+03   -0.13966E+01   -0.13753E+01  4664   0.278E+00
DAV:   5    -0.935298918672E+03   -0.31655E-01   -0.31602E-01  4816   0.447E-01    0.712E+00
DAV:   6    -0.931845894877E+03    0.34530E+01   -0.60389E+00  4576   0.292E+00    0.521E+00
DAV:   7    -0.930129686109E+03    0.17162E+01   -0.49529E+00  4656   0.301E+00    0.405E+00
DAV:   8    -0.928143033430E+03    0.19867E+01   -0.25457E+00  4592   0.181E+00    0.208E+00
DAV:   9    -0.927804114462E+03    0.33892E+00   -0.15631E+00  4376   0.988E-01    0.106E+00
DAV:  10    -0.927905822967E+03   -0.10171E+00   -0.37810E-01  4768   0.650E-01    0.106E+00
DAV:  11    -0.927768146593E+03    0.13768E+00   -0.18513E-01  4568   0.479E-01    0.469E-01
DAV:  12    -0.927762866030E+03    0.52806E-02   -0.47251E-02  4352   0.176E-01    0.232E-01
DAV:  13    -0.927765823649E+03   -0.29576E-02   -0.11090E-02  4760   0.128E-01    0.205E-01
DAV:  14    -0.927760987202E+03    0.48364E-02   -0.46959E-03  4648   0.930E-02    0.913E-02
DAV:  15    -0.927760387735E+03    0.59947E-03   -0.14864E-03  4512   0.430E-02    0.461E-02
DAV:  16    -0.927760323034E+03    0.64701E-04   -0.81080E-04  4352   0.242E-02    0.224E-02
DAV:  17    -0.927760294828E+03    0.28206E-04   -0.14676E-04  4800   0.135E-02    0.163E-02
DAV:  18    -0.927760259444E+03    0.35384E-04   -0.44168E-05  4520   0.687E-03    0.631E-03
DAV:  19    -0.927760254231E+03    0.52129E-05   -0.14438E-05  2480   0.380E-03
   1 F= -.92776025E+03 E0= -.92771352E+03  d E =-.934640E-01
