Li                                      
           1
    22.083000   -0.000000    0.000000
    -0.000000   22.083000    0.000000
     0.000000    0.000000   22.083000
   Li
   500
Direct configuration=     1
   0.99592348  0.00747268  0.00122851
   0.99218374  0.10287186  0.10130955
   0.99442869  0.21212020  0.20584700
   0.01004044  0.29219712  0.29974417
   0.00177896  0.40872773  0.41049513
   0.01574604  0.48822136  0.49625865
   0.01038929  0.59386553  0.60036211
   0.00619486  0.68861283  0.70723697
   0.99358208  0.79622623  0.80249268
   0.98488442  0.90186402  0.89463552
   0.10167065  0.99874967  0.08855251
   0.10782073  0.08762813  0.19435793
   0.10300950  0.19526719  0.28910379
   0.10230954  0.29647012  0.38967308
   0.11469192  0.40329518  0.49830812
   0.09295746  0.49496064  0.58739588
   0.09717554  0.59964132  0.69157272
   0.10261520  0.68901262  0.78995389
   0.08768076  0.80041518  0.90215467
   0.09471036  0.89524506  0.99930828
   0.21949990  0.00156241  0.19655803
   0.21793538  0.09337610  0.29071827
   0.19567296  0.19347417  0.39031614
   0.21008733  0.29092289  0.48895160
   0.19468785  0.40898151  0.58975792
   0.19965882  0.48994371  0.70219494
   0.19210580  0.59865175  0.78829129
   0.18780475  0.70404283  0.90286041
   0.21278407  0.79360244  0.01032938
   0.20056031  0.90069445  0.10062268
   0.30805948  0.00240550  0.30439189
   0.29392440  0.10691061  0.40057084
   0.31651217  0.19583109  0.51392959
   0.29459555  0.29915974  0.60520052
   0.29852509  0.38748857  0.69227786
   0.29312649  0.50879229  0.80465998
   0.28927242  0.61306299  0.88976050
   0.29715579  0.70752442  0.99002524
   0.28673421  0.79293761  0.09909370
   0.30162505  0.89081792  0.18964281
   0.40593747  0.00868387  0.42051593
   0.40434909  0.10894084  0.51913217
   0.40381258  0.20325418  0.62100804
   0.40224578  0.31069676  0.70363364
   0.40012827  0.41380363  0.79989923
   0.38724088  0.52165121  0.91561520
   0.40635125  0.60470532  0.01492590
   0.39537980  0.70329478  0.10309992
   0.38815734  0.80716385  0.21122250
   0.39296327  0.91061738  0.30044906
   0.50963737  0.01080608  0.50202429
   0.48871470  0.12079233  0.60832973
   0.49997428  0.21129904  0.70177874
   0.49523371  0.30605929  0.80413499
   0.49518496  0.40083640  0.90787754
   0.48832530  0.49648394  0.00614469
   0.48782005  0.60711100  0.11621920
   0.50040265  0.68784091  0.20229511
   0.49816375  0.80020897  0.30095729
   0.50581857  0.90983354  0.39759005
   0.59769444  0.01832823  0.60392885
   0.59519360  0.10872421  0.70074919
   0.59838412  0.19582086  0.80212693
   0.59647246  0.28899494  0.90333094
   0.58404186  0.41301330  0.99795989
   0.60240801  0.50488804  0.11353971
   0.59904229  0.59526519  0.21134809
   0.60888445  0.69332714  0.30776174
   0.59856628  0.80103624  0.39791656
   0.59454608  0.90527697  0.50462157
   0.71137728  0.00675434  0.69491036
   0.70083847  0.10615450  0.79014071
   0.69390792  0.19450413  0.90903426
   0.69034947  0.30697070  0.00694636
   0.69419157  0.41940070  0.08513988
   0.69926817  0.49206264  0.19932806
   0.69899559  0.59153597  0.32278685
   0.70408053  0.69234971  0.40061055
   0.70810762  0.79702410  0.50682867
   0.70341655  0.91303670  0.58670506
   0.79765868  0.99541432  0.79083621
   0.79220650  0.10405831  0.88204026
   0.80322857  0.20200786  0.98896044
   0.79846117  0.30194029  0.09105986
   0.79947193  0.40763563  0.20467555
   0.79728740  0.49945542  0.30279967
   0.79521187  0.59441410  0.42554869
   0.79984203  0.69738264  0.50444240
   0.80385887  0.80127864  0.59617784
   0.79490836  0.88683427  0.69524535
   0.88427534  0.99246246  0.88239239
   0.88496314  0.09414755  0.99196695
   0.88471970  0.19158275  0.09607045
   0.90637133  0.31179687  0.21005920
   0.90170222  0.39576372  0.30909131
   0.91179645  0.50292098  0.39655497
   0.91110344  0.59268802  0.50618824
   0.90672565  0.69199292  0.61897669
   0.91214342  0.79430934  0.69413316
   0.90017965  0.89277277  0.78219150
   0.10378179  0.09465036  0.00152982
   0.10012547  0.19009774  0.10034050
   0.11144672  0.29430631  0.18793741
   0.10531532  0.39703046  0.29789445
   0.11416966  0.51330836  0.41276436
   0.09404802  0.60956438  0.50430244
   0.09369414  0.71103191  0.59983213
   0.09258023  0.79943642  0.69772919
   0.08551402  0.88966205  0.80700201
   0.09218789  0.99146492  0.90595985
   0.22370580  0.09474425  0.09516121
   0.20714195  0.19099596  0.20137493
   0.21009036  0.30226132  0.30819527
   0.19087812  0.39461434  0.41108031
   0.19841948  0.50384713  0.50725218
   0.20049950  0.61033900  0.60884532
   0.19380182  0.71520836  0.69698589
   0.20624877  0.80025061  0.78441205
   0.20211387  0.90261778  0.90640718
   0.21918553  0.98711688  0.99893878
   0.30999513  0.10443386  0.18536305
   0.31286996  0.20736051  0.29519519
   0.30412156  0.28578990  0.40740611
   0.30121278  0.39644618  0.49533789
   0.30934283  0.49280278  0.59189749
   0.29712031  0.58982626  0.69307969
   0.28574368  0.69951123  0.79718923
   0.30148837  0.79784320  0.89897724
   0.30746565  0.88908205  0.99437677
   0.31638072  0.00352880  0.10114684
   0.39783678  0.09687085  0.29472392
   0.40347344  0.20390524  0.40300935
   0.40109120  0.29678519  0.49599649
   0.39266609  0.40086055  0.59569167
   0.39342154  0.50378421  0.69671154
   0.39864222  0.59244533  0.80140030
   0.40307955  0.70418076  0.89883550
   0.40388746  0.79222432  0.99828148
   0.40214489  0.89644676  0.09706378
   0.38484340  0.00843379  0.19588177
   0.50060819  0.10337011  0.39842665
   0.50213183  0.20306780  0.50253597
   0.51465081  0.30422209  0.59454202
   0.49664092  0.39153405  0.70853725
   0.49100671  0.50403605  0.80421480
   0.49783249  0.61586715  0.90166142
   0.48881799  0.70469861  0.99869587
   0.50646778  0.77086084  0.10860585
   0.50100905  0.89193171  0.21025387
   0.50640542  0.99210129  0.29620066
   0.59396564  0.10147328  0.48704190
   0.59444818  0.19453087  0.59640155
   0.61155824  0.29681192  0.71003706
   0.60271634  0.39827923  0.81957997
   0.59230915  0.49936035  0.90383840
   0.57823853  0.61295544  0.00477464
   0.60767013  0.69234129  0.10426015
   0.62270303  0.78086256  0.20980677
   0.61387264  0.89381802  0.29885172
   0.60344585  0.99578810  0.40458262
   0.70349273  0.10914409  0.59576808
   0.70734345  0.20772198  0.68710187
   0.70510033  0.29137254  0.81146302
   0.70604108  0.38886432  0.89576342
   0.69060905  0.51014918  0.00459523
   0.70680549  0.60493137  0.10324404
   0.71418389  0.69600804  0.21432439
   0.70983188  0.80884475  0.30121973
   0.70655214  0.89018671  0.42108675
   0.70609735  0.00827071  0.49970448
   0.81536925  0.09698728  0.70504379
   0.79525258  0.19154215  0.80160729
   0.80784934  0.29817752  0.91889075
   0.80512121  0.39519426  0.99051750
   0.79290543  0.51492576  0.08595975
   0.80289000  0.58172467  0.20850264
   0.81596290  0.69718530  0.31275194
   0.79565490  0.79513133  0.40169671
   0.81142430  0.90587060  0.49874497
   0.80612709  0.00079434  0.58434540
   0.90016530  0.08903523  0.79336294
   0.89733832  0.18064472  0.89005482
   0.92345864  0.28391747  0.99629269
   0.89699581  0.40183111  0.09868176
   0.91155121  0.50206850  0.19502532
   0.90363959  0.58684552  0.31183980
   0.89606620  0.69395460  0.40885029
   0.90148873  0.79929158  0.48409232
   0.91337716  0.90222509  0.59749914
   0.89154425  0.00095479  0.69745667
   0.00670677  0.08984914  0.89912907
   0.00412172  0.17603873  0.00758797
   0.01299657  0.29457634  0.09357577
   0.99986197  0.39865495  0.19314670
   0.00341346  0.49872647  0.29917479
   0.02154488  0.60184222  0.40281311
   0.99435466  0.69571238  0.49589277
   0.01045738  0.79604655  0.59991658
   0.99120422  0.90935898  0.70433531
   0.99863636  0.00760620  0.79760572
   0.20005866  0.20231245  0.00024031
   0.19875787  0.29429885  0.09276221
   0.21325746  0.39630337  0.19857133
   0.19515473  0.49660361  0.30454257
   0.20531898  0.60231437  0.39822939
   0.20531114  0.70070305  0.50676627
   0.20927592  0.81565900  0.59492173
   0.19808280  0.89658489  0.68537154
   0.18496857  0.00080276  0.81321285
   0.18862158  0.10275847  0.91202507
   0.29491424  0.20778301  0.10051990
   0.29361032  0.30717612  0.20935063
   0.30996728  0.41088765  0.30570581
   0.30395476  0.51135617  0.40502575
   0.29125880  0.61296893  0.50211966
   0.30989769  0.72124590  0.59668748
   0.30051619  0.81470506  0.69809814
   0.29403582  0.89252977  0.80406119
   0.30403061  0.97903254  0.89744783
   0.28818295  0.10182076  0.99088075
   0.40299541  0.22254250  0.18845171
   0.38750691  0.30493772  0.30026384
   0.39313100  0.39036706  0.39592189
   0.40051586  0.51390685  0.48161418
   0.40851777  0.59552244  0.58915697
   0.38218320  0.69008932  0.69989488
   0.40039103  0.80598594  0.78492334
   0.40349251  0.88516520  0.90602333
   0.39422907  0.00166050  0.98083203
   0.39126797  0.10964888  0.08833731
   0.48765638  0.21962081  0.29504861
   0.50258321  0.31154488  0.40111962
   0.48276705  0.41552351  0.49891051
   0.49472986  0.49162391  0.59747170
   0.49995421  0.60095960  0.71134192
   0.49365119  0.70948260  0.79920248
   0.50714464  0.80368193  0.89681896
   0.50549094  0.89037199  0.99866446
   0.48965140  0.00056005  0.09922520
   0.49885157  0.10019658  0.20084687
   0.59985590  0.20627643  0.39077693
   0.59304338  0.31798333  0.49066107
   0.59008141  0.40415521  0.59234052
   0.61013566  0.49454989  0.70645721
   0.59142094  0.60597149  0.80899406
   0.60507478  0.71326403  0.91570634
   0.60869952  0.79938141  0.00584520
   0.58920537  0.89688530  0.10185236
   0.60733206  0.98945087  0.18967122
   0.59646915  0.09487927  0.30901478
   0.69120978  0.22497404  0.49599484
   0.70483381  0.31508102  0.60398080
   0.69246282  0.38977537  0.71608698
   0.69328139  0.50072201  0.81285648
   0.69609429  0.58674437  0.88719408
   0.69542551  0.69405618  0.98713010
   0.69432471  0.78456826  0.10505617
   0.69884357  0.89101389  0.18571439
   0.69304769  0.00528932  0.28570265
   0.69341136  0.10956146  0.39226106
   0.79741547  0.20362020  0.60568144
   0.80548208  0.29215925  0.69469978
   0.79343131  0.38855103  0.81011172
   0.79561965  0.48362237  0.90499056
   0.78519398  0.60168307  0.99851475
   0.79756486  0.69745439  0.08195735
   0.78473136  0.78935748  0.19653586
   0.78804531  0.90495863  0.29200150
   0.79214354  0.01810615  0.38948985
   0.80715032  0.10908031  0.50450624
   0.89824780  0.20316539  0.69325213
   0.89793740  0.29266170  0.80897431
   0.90371417  0.39233995  0.89904433
   0.91084742  0.50584511  0.00044439
   0.89135226  0.59769979  0.09030386
   0.89114556  0.68498601  0.20439154
   0.89639561  0.79327030  0.29063141
   0.88800640  0.90875656  0.38747262
   0.90215039  0.99025423  0.49164070
   0.89278444  0.09984978  0.59093082
   0.99117564  0.19534207  0.79069549
   0.98673777  0.28754330  0.89281680
   0.99521680  0.41015505  0.99155918
   0.99332913  0.50681709  0.09722435
   0.00540645  0.60852570  0.20055599
   0.99642405  0.69201203  0.30513802
   0.99318972  0.79831958  0.39541360
   0.99941473  0.91867707  0.49153374
   0.00510818  0.99358250  0.59216692
   0.99703081  0.09068662  0.70212140
   0.09373193  0.19457630  0.91278356
   0.08222726  0.31103440  0.99526468
   0.09679125  0.39410837  0.09933357
   0.11035065  0.49825372  0.20369199
   0.11454346  0.60408350  0.30279095
   0.11532996  0.70630942  0.40562022
   0.09098666  0.80554834  0.50184842
   0.09427660  0.89093146  0.59533718
   0.09662239  0.01472357  0.70553027
   0.10347620  0.09479909  0.81296716
   0.29059757  0.29497976  0.98451529
   0.29700607  0.39983461  0.07944346
   0.29899228  0.49433954  0.19278749
   0.30195820  0.58285144  0.28201313
   0.28879968  0.69103889  0.39771322
   0.31393422  0.81438278  0.50040803
   0.31556072  0.91550482  0.59449281
   0.30825637  0.98387386  0.72037582
   0.28375240  0.08706882  0.80135465
   0.29953997  0.18996947  0.89988216
   0.40507694  0.31076667  0.10777633
   0.39731834  0.40656946  0.20105031
   0.40631871  0.49146892  0.30018780
   0.38963516  0.60218806  0.40180136
   0.39648347  0.70168651  0.49654433
   0.40203784  0.81024034  0.60491350
   0.39751529  0.89021613  0.70210347
   0.39953384  0.99279809  0.78912219
   0.39341663  0.08847183  0.89101671
   0.40453443  0.20992599  0.00019187
   0.51081749  0.29147533  0.18702928
   0.50013810  0.38971617  0.30399741
   0.50982358  0.50318459  0.38990039
   0.50161354  0.59814293  0.49828813
   0.49542341  0.70489685  0.58740483
   0.49762759  0.79981904  0.69183766
   0.51191506  0.89962673  0.77961962
   0.48846284  0.99568868  0.89104650
   0.48940087  0.09473739  0.98992677
   0.51235826  0.19922135  0.10168870
   0.60033012  0.29797024  0.29471111
   0.60052542  0.40022975  0.38981142
   0.59273098  0.49693898  0.49641102
   0.59639593  0.59377638  0.60468883
   0.59867476  0.71197569  0.69176698
   0.61415625  0.79975762  0.78549509
   0.59084106  0.89589134  0.89413213
   0.59130991  0.99376964  0.01002848
   0.59623948  0.09513458  0.09080270
   0.60147692  0.19493012  0.19180521
   0.69419376  0.30174995  0.39220742
   0.69794379  0.40361285  0.49589271
   0.70136310  0.49616667  0.60999016
   0.69734713  0.60317752  0.70903782
   0.69090586  0.70129517  0.79250534
   0.69280027  0.79455614  0.90574918
   0.69307146  0.89125963  0.00124252
   0.70254674  0.98529117  0.09925479
   0.69346864  0.10527290  0.19092640
   0.69784873  0.20455710  0.29744177
   0.80423275  0.30238842  0.49635315
   0.79596073  0.39765226  0.60040220
   0.80575060  0.49073758  0.70929810
   0.79762520  0.60100270  0.80283460
   0.80016726  0.69439925  0.89690866
   0.79925817  0.79863836  0.99684017
   0.79571237  0.88354672  0.10823661
   0.78553177  0.01095199  0.19952022
   0.78953783  0.10112197  0.28845847
   0.79200566  0.18623072  0.39890219
   0.91003000  0.30576304  0.59180910
   0.90482456  0.39419778  0.72769192
   0.89742180  0.48438743  0.82758460
   0.88920711  0.59514051  0.90214692
   0.91768961  0.70425960  0.99644156
   0.91105085  0.79041175  0.10932472
   0.89922160  0.89853722  0.20066764
   0.90030598  0.99543341  0.29040292
   0.89021066  0.10171119  0.38637310
   0.90851984  0.19250303  0.49039008
   0.00957988  0.30266989  0.69847960
   0.00017957  0.40552614  0.79999563
   0.01287728  0.50744433  0.91500937
   0.01824758  0.59559498  0.00005228
   0.99936959  0.69093915  0.11205165
   0.99292352  0.78300216  0.21676456
   0.02270865  0.90878422  0.30733813
   0.00208445  0.02878642  0.41339041
   0.00203545  0.08292727  0.49702496
   0.99863980  0.20651643  0.59730259
   0.09763383  0.29288192  0.80540803
   0.08946663  0.40223607  0.91210189
   0.09379016  0.50559703  0.01281848
   0.10979997  0.60341656  0.11753255
   0.11254372  0.71301911  0.21322972
   0.10708362  0.79946923  0.31699185
   0.11015291  0.91917776  0.40445581
   0.11867707  0.99991485  0.52423301
   0.10655483  0.10818229  0.59744278
   0.09351346  0.18679460  0.70836708
   0.19110434  0.30403390  0.89554528
   0.19467892  0.40644430  0.98869608
   0.18545954  0.49060668  0.10020862
   0.20905109  0.59206851  0.20439121
   0.22234585  0.70365649  0.27546563
   0.20966087  0.80112800  0.40605445
   0.21076957  0.90089037  0.50138525
   0.20504815  0.00879107  0.61196878
   0.21119701  0.11194572  0.70461469
   0.19584283  0.18306244  0.80678566
   0.39359784  0.39609040  0.00172798
   0.38747805  0.48975315  0.09104327
   0.39129351  0.57576637  0.19263286
   0.37810442  0.71063670  0.29384835
   0.39891928  0.81188475  0.39646756
   0.41106454  0.91021810  0.49887115
   0.39778370  0.00902120  0.60253667
   0.39351174  0.11889557  0.70540750
   0.39681022  0.22059753  0.79569940
   0.39254692  0.29929087  0.89220449
   0.50741847  0.39598952  0.09357363
   0.49811850  0.49887944  0.19308272
   0.49759074  0.60457594  0.30172345
   0.49690567  0.69661809  0.39467122
   0.49555001  0.79644691  0.48451111
   0.49509892  0.91047441  0.59160828
   0.49193677  0.00533234  0.70013714
   0.50374097  0.10791191  0.79027531
   0.50107413  0.19828514  0.90831144
   0.49399251  0.30659005  0.01234908
   0.60671706  0.40268734  0.20053240
   0.59702155  0.50538744  0.30907748
   0.60995764  0.60913097  0.40500837
   0.59929389  0.68712713  0.49220886
   0.59950727  0.79915276  0.58351853
   0.60617419  0.88996334  0.69913877
   0.61094751  0.99183380  0.79675176
   0.60213835  0.09862711  0.90628815
   0.60560788  0.19083183  0.00684224
   0.59640082  0.29707653  0.09157838
   0.70217135  0.40239241  0.28768273
   0.69944001  0.48306172  0.40863224
   0.69758225  0.59099192  0.50950927
   0.70622812  0.69441219  0.59157402
   0.70203082  0.80056449  0.68072949
   0.70435279  0.89707315  0.79243584
   0.69140757  0.00218604  0.90500714
   0.71092400  0.09379620  0.01190094
   0.68878657  0.20759355  0.08738067
   0.70190149  0.30916971  0.19038227
   0.81879996  0.39207354  0.39861651
   0.80688563  0.48963490  0.49438980
   0.80857731  0.59775708  0.61748604
   0.80282488  0.70584455  0.69893241
   0.79538016  0.79439440  0.78454701
   0.79224002  0.89945992  0.88354408
   0.78265841  0.99385855  0.01208272
   0.80473765  0.10522367  0.10110514
   0.77879867  0.21345525  0.18557789
   0.80464227  0.29483219  0.30184280
   0.90842143  0.40740652  0.49852462
   0.90480210  0.48857774  0.61610870
   0.91464571  0.59284129  0.72322188
   0.89966786  0.69446735  0.79904213
   0.89567569  0.79728643  0.88795548
   0.88822431  0.89817666  0.99330137
   0.89568737  0.99432909  0.10987624
   0.89849030  0.10372640  0.20588916
   0.89544748  0.18953989  0.28329911
   0.90165557  0.28731176  0.39984375
   0.99450088  0.38855050  0.59918983
   0.00458357  0.49280895  0.71710550
   0.00166867  0.60194641  0.81119816
   0.00255511  0.69578153  0.90303948
   0.01228148  0.80281128  0.01135499
   0.99826766  0.90210361  0.09803552
   0.00200658  0.00204084  0.19968338
   0.01226609  0.09096733  0.29114204
   0.00316916  0.18250730  0.41005387
   0.00697146  0.30322556  0.50889768
   0.09007227  0.39312872  0.70201437
   0.11095011  0.50648799  0.79821277
   0.10906917  0.60627087  0.89523301
   0.10038635  0.69407410  0.01528969
   0.10386120  0.80298880  0.10883202
   0.09872383  0.90545564  0.18509476
   0.10223240  0.00397417  0.29726960
   0.11094824  0.09642874  0.39753949
   0.08755890  0.18531189  0.49405323
   0.09624258  0.29886117  0.58016271
   0.18892240  0.40971325  0.80397987
   0.20418622  0.51093258  0.90241925
   0.20121515  0.60910656  0.01375651
   0.18754859  0.69799181  0.11523875
   0.20125571  0.80790522  0.20065903
   0.20936215  0.91481763  0.29518965
   0.19583088  0.00972485  0.40733459
   0.22009151  0.12048084  0.50170382
   0.20281315  0.21202564  0.61021317
   0.18808741  0.29910271  0.69821713
   0.29737105  0.40770445  0.91280410
   0.28482321  0.51743848  0.99834005
   0.29394751  0.62337736  0.10257482
   0.29176695  0.71055817  0.20502089
   0.29339179  0.80610511  0.30011910
   0.29885955  0.91360653  0.41457225
   0.29389542  0.01303334  0.50905399
   0.29824944  0.10163793  0.62041798
   0.30045192  0.21461949  0.71629590
   0.29639259  0.30439603  0.79958646
