 432 432   0   0
  0.1857636E+02  0.2002080E-08  0.2002080E-08  0.2002080E-08  0.5000000E-15
  1.000000000000000E-004
  CAR 
 Li                                      
      4.03245322     -3.32643902  301      0.64366676      1.00000000
     -3.326  0.0000E+00  0.0000E+00
     -3.302  0.0000E+00  0.0000E+00
     -3.277  0.0000E+00  0.0000E+00
     -3.253  0.0000E+00  0.0000E+00
     -3.228  0.0000E+00  0.0000E+00
     -3.204  0.0000E+00  0.0000E+00
     -3.179  0.0000E+00  0.0000E+00
     -3.155  0.6585E-12  0.1615E-13
     -3.130  0.2835E-08  0.6957E-10
     -3.106  0.3293E-05  0.8083E-07
     -3.081  0.1043E-02  0.2566E-04
     -3.057  0.9144E-01  0.2269E-02
     -3.032  0.2269E+01  0.5792E-01
     -3.008  0.1636E+02  0.4593E+00
     -2.983  0.3520E+02  0.1323E+01
     -2.958  0.2289E+02  0.1884E+01
     -2.934  0.4599E+01  0.1997E+01
     -2.909  0.3494E+01  0.2083E+01
     -2.885  0.2528E+02  0.2703E+01
     -2.860  0.7433E+02  0.4526E+01
     -2.836  0.8994E+02  0.6733E+01
     -2.811  0.4357E+02  0.7801E+01
     -2.787  0.8273E+01  0.8004E+01
     -2.762  0.9281E+01  0.8232E+01
     -2.738  0.4488E+02  0.9333E+01
     -2.713  0.8999E+02  0.1154E+02
     -2.689  0.7410E+02  0.1336E+02
     -2.664  0.2363E+02  0.1394E+02
     -2.640  0.6143E+01  0.1409E+02
     -2.615  0.2966E+02  0.1482E+02
     -2.591  0.9291E+02  0.1709E+02
     -2.566  0.1204E+03  0.2005E+02
     -2.541  0.6515E+02  0.2165E+02
     -2.517  0.1592E+02  0.2204E+02
     -2.492  0.2276E+02  0.2259E+02
     -2.468  0.8482E+02  0.2467E+02
     -2.443  0.1586E+03  0.2857E+02
     -2.419  0.1482E+03  0.3220E+02
     -2.394  0.6269E+02  0.3374E+02
     -2.370  0.1137E+02  0.3402E+02
     -2.345  0.1612E+02  0.3441E+02
     -2.321  0.6494E+02  0.3601E+02
     -2.296  0.9705E+02  0.3839E+02
     -2.272  0.5411E+02  0.3971E+02
     -2.247  0.1287E+02  0.4003E+02
     -2.223  0.2114E+02  0.4055E+02
     -2.198  0.8258E+02  0.4257E+02
     -2.174  0.1514E+03  0.4629E+02
     -2.149  0.1454E+03  0.4985E+02
     -2.124  0.7223E+02  0.5163E+02
     -2.100  0.2705E+02  0.5229E+02
     -2.075  0.6649E+02  0.5392E+02
     -2.051  0.1589E+03  0.5782E+02
     -2.026  0.2205E+03  0.6323E+02
     -2.002  0.1847E+03  0.6776E+02
     -1.977  0.7769E+02  0.6966E+02
     -1.953  0.1789E+02  0.7010E+02
     -1.928  0.2974E+02  0.7083E+02
     -1.904  0.7296E+02  0.7262E+02
     -1.879  0.8499E+02  0.7471E+02
     -1.855  0.4401E+02  0.7579E+02
     -1.830  0.1613E+02  0.7618E+02
     -1.806  0.5066E+02  0.7742E+02
     -1.781  0.1360E+03  0.8076E+02
     -1.757  0.1845E+03  0.8529E+02
     -1.732  0.1358E+03  0.8862E+02
     -1.707  0.5035E+02  0.8985E+02
     -1.683  0.2638E+02  0.9050E+02
     -1.658  0.9135E+02  0.9274E+02
     -1.634  0.1975E+03  0.9758E+02
     -1.609  0.2290E+03  0.1032E+03
     -1.585  0.1464E+03  0.1068E+03
     -1.560  0.4561E+02  0.1079E+03
     -1.536  0.2336E+02  0.1085E+03
     -1.511  0.7951E+02  0.1104E+03
     -1.487  0.1550E+03  0.1142E+03
     -1.462  0.1511E+03  0.1179E+03
     -1.438  0.7245E+02  0.1197E+03
     -1.413  0.3794E+02  0.1207E+03
     -1.389  0.9756E+02  0.1230E+03
     -1.364  0.1936E+03  0.1278E+03
     -1.340  0.2243E+03  0.1333E+03
     -1.315  0.1434E+03  0.1368E+03
     -1.290  0.5194E+02  0.1381E+03
     -1.266  0.5907E+02  0.1395E+03
     -1.241  0.1497E+03  0.1432E+03
     -1.217  0.2232E+03  0.1487E+03
     -1.192  0.1936E+03  0.1534E+03
     -1.168  0.8766E+02  0.1556E+03
     -1.143  0.2676E+02  0.1562E+03
     -1.119  0.5405E+02  0.1576E+03
     -1.094  0.1246E+03  0.1606E+03
     -1.070  0.1573E+03  0.1645E+03
     -1.045  0.1065E+03  0.1671E+03
     -1.021  0.3433E+02  0.1679E+03
     -0.996  0.2158E+02  0.1685E+03
     -0.972  0.7931E+02  0.1704E+03
     -0.947  0.1479E+03  0.1740E+03
     -0.923  0.1457E+03  0.1776E+03
     -0.898  0.9504E+02  0.1799E+03
     -0.873  0.9809E+02  0.1824E+03
     -0.849  0.1843E+03  0.1869E+03
     -0.824  0.2638E+03  0.1933E+03
     -0.800  0.2790E+03  0.2002E+03
     -0.775  0.2356E+03  0.2060E+03
     -0.751  0.1385E+03  0.2094E+03
     -0.726  0.9477E+02  0.2117E+03
     -0.702  0.1571E+03  0.2155E+03
     -0.677  0.1948E+03  0.2203E+03
     -0.653  0.1680E+03  0.2244E+03
     -0.628  0.1053E+03  0.2270E+03
     -0.604  0.4584E+02  0.2281E+03
     -0.579  0.6963E+02  0.2299E+03
     -0.555  0.1571E+03  0.2337E+03
     -0.530  0.1849E+03  0.2382E+03
     -0.506  0.1183E+03  0.2411E+03
     -0.481  0.6135E+02  0.2427E+03
     -0.456  0.1138E+03  0.2454E+03
     -0.432  0.2050E+03  0.2505E+03
     -0.407  0.2459E+03  0.2565E+03
     -0.383  0.2240E+03  0.2620E+03
     -0.358  0.1527E+03  0.2657E+03
     -0.334  0.1114E+03  0.2685E+03
     -0.309  0.9237E+02  0.2707E+03
     -0.285  0.4372E+02  0.2718E+03
     -0.260  0.2273E+02  0.2724E+03
     -0.236  0.7115E+02  0.2741E+03
     -0.211  0.1569E+03  0.2780E+03
     -0.187  0.2157E+03  0.2833E+03
     -0.162  0.2286E+03  0.2889E+03
     -0.138  0.1991E+03  0.2938E+03
     -0.113  0.1545E+03  0.2975E+03
     -0.089  0.1526E+03  0.3013E+03
     -0.064  0.1736E+03  0.3055E+03
     -0.039  0.1932E+03  0.3103E+03
     -0.015  0.2126E+03  0.3155E+03
      0.010  0.2264E+03  0.3210E+03
      0.034  0.2186E+03  0.3264E+03
      0.059  0.1684E+03  0.3305E+03
      0.083  0.1057E+03  0.3331E+03
      0.108  0.1064E+03  0.3357E+03
      0.132  0.1335E+03  0.3390E+03
      0.157  0.1552E+03  0.3428E+03
      0.181  0.1668E+03  0.3469E+03
      0.206  0.1988E+03  0.3518E+03
      0.230  0.2359E+03  0.3576E+03
      0.255  0.2565E+03  0.3639E+03
      0.279  0.2643E+03  0.3704E+03
      0.304  0.2303E+03  0.3760E+03
      0.328  0.1520E+03  0.3797E+03
      0.353  0.1248E+03  0.3828E+03
      0.378  0.1608E+03  0.3867E+03
      0.402  0.1913E+03  0.3914E+03
      0.427  0.1973E+03  0.3963E+03
      0.451  0.1771E+03  0.4006E+03
      0.476  0.1321E+03  0.4039E+03
      0.500  0.1175E+03  0.4067E+03
      0.525  0.1496E+03  0.4104E+03
      0.549  0.1748E+03  0.4147E+03
      0.574  0.1890E+03  0.4193E+03
      0.598  0.1860E+03  0.4239E+03
      0.623  0.1734E+03  0.4282E+03
      0.647  0.1867E+03  0.4327E+03
      0.672  0.2063E+03  0.4378E+03
      0.696  0.2078E+03  0.4429E+03
      0.721  0.2121E+03  0.4481E+03
      0.745  0.2100E+03  0.4532E+03
      0.770  0.1937E+03  0.4580E+03
      0.795  0.1786E+03  0.4624E+03
      0.819  0.1520E+03  0.4661E+03
      0.844  0.1509E+03  0.4698E+03
      0.868  0.1806E+03  0.4742E+03
      0.893  0.1921E+03  0.4790E+03
      0.917  0.1882E+03  0.4836E+03
      0.942  0.2119E+03  0.4888E+03
      0.966  0.2427E+03  0.4947E+03
      0.991  0.2515E+03  0.5009E+03
      1.015  0.2521E+03  0.5071E+03
      1.040  0.2419E+03  0.5130E+03
      1.064  0.2350E+03  0.5188E+03
      1.089  0.2324E+03  0.5245E+03
      1.113  0.2310E+03  0.5301E+03
      1.138  0.2365E+03  0.5359E+03
      1.162  0.2366E+03  0.5417E+03
      1.187  0.2331E+03  0.5475E+03
      1.212  0.2212E+03  0.5529E+03
      1.236  0.2064E+03  0.5580E+03
      1.261  0.2019E+03  0.5629E+03
      1.285  0.2147E+03  0.5682E+03
      1.310  0.2292E+03  0.5738E+03
      1.334  0.2323E+03  0.5795E+03
      1.359  0.2134E+03  0.5847E+03
      1.383  0.2017E+03  0.5897E+03
      1.408  0.2008E+03  0.5946E+03
      1.432  0.1977E+03  0.5994E+03
      1.457  0.2001E+03  0.6044E+03
      1.481  0.1897E+03  0.6090E+03
      1.506  0.1798E+03  0.6134E+03
      1.530  0.1819E+03  0.6179E+03
      1.555  0.1766E+03  0.6222E+03
      1.579  0.1765E+03  0.6265E+03
      1.604  0.1831E+03  0.6310E+03
      1.629  0.1855E+03  0.6356E+03
      1.653  0.1797E+03  0.6400E+03
      1.678  0.1712E+03  0.6442E+03
      1.702  0.1516E+03  0.6479E+03
      1.727  0.1205E+03  0.6509E+03
      1.751  0.1035E+03  0.6534E+03
      1.776  0.1175E+03  0.6563E+03
      1.800  0.1331E+03  0.6596E+03
      1.825  0.1428E+03  0.6631E+03
      1.849  0.1496E+03  0.6667E+03
      1.874  0.1516E+03  0.6704E+03
      1.898  0.1476E+03  0.6741E+03
      1.923  0.1498E+03  0.6777E+03
      1.947  0.1609E+03  0.6817E+03
      1.972  0.1699E+03  0.6859E+03
      1.996  0.1669E+03  0.6899E+03
      2.021  0.1550E+03  0.6938E+03
      2.046  0.1516E+03  0.6975E+03
      2.070  0.1606E+03  0.7014E+03
      2.095  0.1685E+03  0.7055E+03
      2.119  0.1721E+03  0.7098E+03
      2.144  0.1660E+03  0.7138E+03
      2.168  0.1670E+03  0.7179E+03
      2.193  0.1726E+03  0.7222E+03
      2.217  0.1655E+03  0.7262E+03
      2.242  0.1674E+03  0.7303E+03
      2.266  0.1773E+03  0.7347E+03
      2.291  0.1734E+03  0.7389E+03
      2.315  0.1691E+03  0.7431E+03
      2.340  0.1673E+03  0.7472E+03
      2.364  0.1579E+03  0.7511E+03
      2.389  0.1356E+03  0.7544E+03
      2.413  0.1278E+03  0.7575E+03
      2.438  0.1333E+03  0.7608E+03
      2.463  0.1416E+03  0.7643E+03
      2.487  0.1521E+03  0.7680E+03
      2.512  0.1390E+03  0.7714E+03
      2.536  0.1178E+03  0.7743E+03
      2.561  0.1131E+03  0.7771E+03
      2.585  0.1068E+03  0.7797E+03
      2.610  0.1078E+03  0.7823E+03
      2.634  0.1115E+03  0.7851E+03
      2.659  0.1053E+03  0.7877E+03
      2.683  0.9564E+02  0.7900E+03
      2.708  0.9437E+02  0.7923E+03
      2.732  0.8385E+02  0.7944E+03
      2.757  0.5007E+02  0.7956E+03
      2.781  0.1505E+02  0.7960E+03
      2.806  0.6342E+01  0.7961E+03
      2.831  0.2759E+02  0.7968E+03
      2.855  0.6556E+02  0.7984E+03
      2.880  0.8005E+02  0.8004E+03
      2.904  0.5114E+02  0.8016E+03
      2.929  0.1400E+02  0.8020E+03
      2.953  0.3144E+01  0.8020E+03
      2.978  0.1610E+02  0.8024E+03
      3.002  0.5258E+02  0.8037E+03
      3.027  0.7485E+02  0.8056E+03
      3.051  0.6999E+02  0.8073E+03
      3.076  0.6939E+02  0.8090E+03
      3.100  0.8633E+02  0.8111E+03
      3.125  0.1156E+03  0.8139E+03
      3.149  0.1188E+03  0.8169E+03
      3.174  0.1124E+03  0.8196E+03
      3.198  0.1216E+03  0.8226E+03
      3.223  0.1259E+03  0.8257E+03
      3.248  0.1143E+03  0.8285E+03
      3.272  0.1110E+03  0.8312E+03
      3.297  0.1221E+03  0.8342E+03
      3.321  0.1200E+03  0.8371E+03
      3.346  0.1087E+03  0.8398E+03
      3.370  0.1010E+03  0.8423E+03
      3.395  0.8997E+02  0.8445E+03
      3.419  0.7389E+02  0.8463E+03
      3.444  0.5721E+02  0.8477E+03
      3.468  0.4296E+02  0.8488E+03
      3.493  0.4536E+02  0.8499E+03
      3.517  0.5308E+02  0.8512E+03
      3.542  0.5669E+02  0.8526E+03
      3.566  0.6442E+02  0.8541E+03
      3.591  0.8222E+02  0.8562E+03
      3.615  0.9379E+02  0.8585E+03
      3.640  0.9928E+02  0.8609E+03
      3.665  0.8953E+02  0.8631E+03
      3.689  0.6500E+02  0.8647E+03
      3.714  0.3926E+02  0.8657E+03
      3.738  0.1266E+02  0.8660E+03
      3.763  0.1477E+01  0.8660E+03
      3.787  0.5378E-01  0.8660E+03
      3.812  0.5723E-03  0.8660E+03
      3.836  0.1718E-05  0.8660E+03
      3.861  0.1423E-08  0.8660E+03
      3.885  0.3213E-12  0.8660E+03
      3.910  0.0000E+00  0.8660E+03
      3.934  0.0000E+00  0.8660E+03
      3.959  0.0000E+00  0.8660E+03
      3.983  0.0000E+00  0.8660E+03
      4.008  0.0000E+00  0.8660E+03
      4.032  0.0000E+00  0.8660E+03
