       N       E                     dE             d eps       ncg     rms          rms(c)
DAV:   1    -0.216755671248E+03   -0.21676E+03   -0.10728E+05  3464   0.664E+02
DAV:   2    -0.756494774553E+03   -0.53974E+03   -0.49294E+03  3996   0.698E+01
DAV:   3    -0.793588088504E+03   -0.37093E+02   -0.33853E+02  4376   0.145E+01
DAV:   4    -0.794771438813E+03   -0.11834E+01   -0.11678E+01  3976   0.285E+00
DAV:   5    -0.794798184747E+03   -0.26746E-01   -0.26714E-01  4104   0.452E-01    0.874E+00
DAV:   6    -0.792903881489E+03    0.18943E+01   -0.97135E+00  3984   0.502E+00    0.752E+00
DAV:   7    -0.785540127208E+03    0.73638E+01   -0.84813E+00  4032   0.440E+00    0.412E+00
DAV:   8    -0.783823572772E+03    0.17166E+01   -0.36653E+00  3928   0.213E+00    0.223E+00
DAV:   9    -0.783511708455E+03    0.31186E+00   -0.20465E+00  3728   0.116E+00    0.113E+00
DAV:  10    -0.783514160036E+03   -0.24516E-02   -0.31246E-01  4064   0.593E-01    0.852E-01
DAV:  11    -0.783455514306E+03    0.58646E-01   -0.11076E-01  3968   0.418E-01    0.505E-01
DAV:  12    -0.783442371251E+03    0.13143E-01   -0.30313E-02  3808   0.181E-01    0.210E-01
DAV:  13    -0.783441504461E+03    0.86679E-03   -0.11346E-02  3824   0.105E-01    0.110E-01
DAV:  14    -0.783441473779E+03    0.30683E-04   -0.23295E-03  3872   0.591E-02    0.759E-02
DAV:  15    -0.783440922509E+03    0.55127E-03   -0.84075E-04  3848   0.397E-02    0.411E-02
DAV:  16    -0.783440772183E+03    0.15033E-03   -0.39872E-04  3760   0.185E-02    0.146E-02
DAV:  17    -0.783440767969E+03    0.42135E-05   -0.83598E-05  4048   0.108E-02
   1 F= -.78344077E+03 E0= -.78339660E+03  d E =-.883271E-01
