Li                                      
           1
    20.020800    0.000000    0.000000
     0.000000   20.020800    0.000000
     0.000000    0.000000   20.020800
   Li
   432
Direct configuration=     1
   0.01234022  0.98703447  0.97891313
   0.94818038  0.06958701  0.07477972
   0.83511981  0.16698324  0.17622048
   0.73864807  0.23617880  0.26830704
   0.66424318  0.34548760  0.32493093
   0.57333551  0.40564520  0.39152932
   0.50147169  0.48513312  0.50706851
   0.41847713  0.56813210  0.59252056
   0.32137323  0.66972712  0.67288336
   0.23349351  0.76602255  0.73770796
   0.17125007  0.82470184  0.82990186
   0.07829109  0.89830041  0.89798857
   0.07067682  0.92805327  0.07720872
   0.02088613  0.00192020  0.20540178
   0.91327331  0.10672707  0.26953888
   0.85085899  0.18214515  0.35903358
   0.75078128  0.29272982  0.41076781
   0.66638002  0.33688557  0.49155486
   0.57678461  0.42743701  0.57508978
   0.50247628  0.47825783  0.70544701
   0.39967238  0.56938851  0.74879358
   0.33589698  0.69542337  0.81571901
   0.23175673  0.75330986  0.89568110
   0.15873902  0.84321686  0.99480152
   0.15143487  0.83922433  0.17651747
   0.09699799  0.92580418  0.28747476
   0.97671793  0.00833856  0.34267986
   0.92508600  0.08227067  0.42746216
   0.83138439  0.19667347  0.49086032
   0.73385818  0.28397177  0.56307810
   0.65420502  0.36720144  0.67249442
   0.56776846  0.41344036  0.76827068
   0.49444935  0.50698120  0.86452100
   0.42190199  0.59759599  0.89989576
   0.32376526  0.66626678  0.00911247
   0.23348762  0.74859979  0.09912271
   0.23428392  0.75829371  0.26690085
   0.16309120  0.83363341  0.36129909
   0.09685079  0.93062410  0.43437773
   0.99748199  0.98386667  0.50636892
   0.91495340  0.08867042  0.57533556
   0.79336929  0.19642465  0.64279440
   0.74468798  0.27359131  0.73676973
   0.67452987  0.35652070  0.83295955
   0.58091355  0.41738435  0.92772556
   0.49114282  0.51389401  0.00020798
   0.40422634  0.56092652  0.07857718
   0.32199280  0.66885303  0.16695374
   0.35783889  0.66614051  0.33810907
   0.25724670  0.75348932  0.43992511
   0.16867840  0.83065222  0.50837190
   0.08272554  0.92879561  0.57221040
   0.99160703  0.00620348  0.68560051
   0.90270769  0.10655011  0.74655362
   0.82743543  0.18340686  0.83886066
   0.74465168  0.24330754  0.92488489
   0.68749291  0.31969136  0.00538683
   0.58643281  0.41966625  0.07577556
   0.48187960  0.50759395  0.14618071
   0.42318623  0.57415540  0.23527246
   0.42578107  0.57114203  0.42077623
   0.33729506  0.65819250  0.50708315
   0.24487965  0.73768876  0.58807468
   0.12879445  0.81789992  0.65438207
   0.07082946  0.90580918  0.74184812
   0.99331874  0.99518240  0.82394255
   0.92498332  0.09193366  0.91974520
   0.82687179  0.15437475  0.00506198
   0.75397920  0.24391702  0.09690873
   0.65591596  0.31976080  0.16622064
   0.57322513  0.42060665  0.23143707
   0.49572210  0.48604842  0.32349016
   0.08044832  0.05541469  0.90383407
   0.01688673  0.15573209  0.99750783
   0.92295961  0.21891674  0.07619947
   0.83488628  0.31715795  0.17680134
   0.74214988  0.41234430  0.22706447
   0.66007986  0.49368432  0.30988856
   0.58901047  0.55705601  0.41035253
   0.50888409  0.64530538  0.50798800
   0.41957832  0.72985352  0.58329385
   0.33281913  0.82799310  0.64847078
   0.23492093  0.88253460  0.73183867
   0.15469379  0.99209611  0.82319646
   0.16841760  0.98848894  0.99622565
   0.08655048  0.07331850  0.09569385
   0.00556137  0.18471183  0.17855688
   0.91670576  0.24522899  0.27289370
   0.82921831  0.35690960  0.33078680
   0.74493567  0.45028380  0.40649707
   0.66708191  0.49988977  0.48507058
   0.59845073  0.55913183  0.59048274
   0.49551617  0.64470721  0.66732429
   0.42390979  0.74361459  0.72393144
   0.33171085  0.82118512  0.81623420
   0.27486342  0.90611037  0.88757798
   0.24255983  0.90029175  0.06971178
   0.18150995  0.98892085  0.18349661
   0.10664906  0.08343802  0.27180472
   0.00228211  0.18452657  0.34959534
   0.91601150  0.28446489  0.42883342
   0.83241107  0.35799563  0.49594210
   0.74932305  0.42140776  0.57804135
   0.66144371  0.47736162  0.69595392
   0.58710661  0.56573855  0.77642571
   0.49953033  0.65735871  0.83128206
   0.41241186  0.75870642  0.92030174
   0.31709214  0.83270629  0.99280997
   0.32101310  0.82662724  0.16459013
   0.27407625  0.90391729  0.25405767
   0.18776021  0.99388228  0.34670630
   0.09274059  0.08022403  0.39491382
   0.01799792  0.18035514  0.50572019
   0.91139434  0.26545295  0.57846266
   0.84769073  0.35382744  0.66239050
   0.76003108  0.42149634  0.77005237
   0.66986167  0.48485304  0.86624418
   0.57969694  0.59412107  0.93476845
   0.50449869  0.67074436  0.01873282
   0.41408699  0.76064990  0.09638479
   0.42477929  0.74077734  0.24950766
   0.33705267  0.82667511  0.33401721
   0.26072219  0.90551967  0.43509606
   0.18099744  0.01288689  0.48156808
   0.08732671  0.08994704  0.57829224
   0.00211372  0.17234533  0.64701972
   0.90878766  0.24761133  0.75426391
   0.82254827  0.33328464  0.84671488
   0.75897294  0.40760673  0.94208205
   0.67743110  0.51039087  0.99620766
   0.59174857  0.58234436  0.10148963
   0.48926773  0.66752776  0.15266090
   0.51311073  0.63679555  0.32119458
   0.44908236  0.75081102  0.43172494
   0.33782958  0.83526070  0.51730738
   0.23223481  0.90552920  0.58010883
   0.15047283  0.99336770  0.67680235
   0.05999962  0.10307081  0.75588834
   0.00292699  0.16187012  0.85233000
   0.91435100  0.24979683  0.93596417
   0.81777543  0.32656169  0.00958867
   0.74824880  0.41007960  0.09318895
   0.66377175  0.50661560  0.15662671
   0.58159916  0.57737235  0.23414544
   0.15752698  0.14206535  0.83418906
   0.09070642  0.24620084  0.92155434
   0.02134104  0.33508084  0.01424067
   0.91691316  0.39679855  0.07817387
   0.85309318  0.49256645  0.17510654
   0.74514685  0.57825720  0.23007319
   0.67358544  0.65440194  0.31091885
   0.59091171  0.74091133  0.41004519
   0.52391209  0.82337810  0.49967839
   0.41474247  0.91648194  0.58150753
   0.33649423  0.98559800  0.66086307
   0.25233167  0.06160667  0.75717235
   0.26534833  0.06592778  0.91109275
   0.16984363  0.15932818  0.97757568
   0.07642029  0.23596718  0.08368214
   0.99578251  0.30950752  0.14728482
   0.92288176  0.40100693  0.24476076
   0.83504038  0.49446143  0.31532056
   0.76849319  0.57693975  0.38360548
   0.67186256  0.64201303  0.48918898
   0.58244469  0.72628646  0.58630422
   0.51553259  0.83312080  0.65317502
   0.42073683  0.90831677  0.73588242
   0.34590895  0.95602374  0.80190367
   0.33001577  0.98707157  0.00676421
   0.25391016  0.07605588  0.07812763
   0.17374827  0.17533717  0.16755493
   0.08826379  0.23985046  0.25741292
   0.01750511  0.33244019  0.32079629
   0.94458489  0.42496038  0.40478667
   0.85192271  0.50003490  0.49318007
   0.74005982  0.56475931  0.57565192
   0.65013403  0.64789317  0.67649750
   0.56383256  0.74070838  0.75329273
   0.49621112  0.81749596  0.83901892
   0.42537278  0.91519028  0.90851120
   0.41126073  0.89496589  0.06391546
   0.33371923  0.98721364  0.14554571
   0.26027075  0.07769888  0.23145431
   0.19136999  0.18252869  0.32339580
   0.09958395  0.26199986  0.42370230
   0.02798271  0.32347518  0.51731835
   0.94679868  0.44108417  0.58503790
   0.84289008  0.48969246  0.67114535
   0.74213352  0.56998232  0.77536956
   0.65777880  0.67307992  0.83675054
   0.59936130  0.75268011  0.92349169
   0.50706258  0.83194432  0.99326437
   0.51244335  0.84556089  0.18437263
   0.40542626  0.92862400  0.24678687
   0.32529343  0.99402530  0.34635783
   0.26710862  0.09891527  0.41717031
   0.18277944  0.14817999  0.51602666
   0.09281500  0.26701297  0.59751512
   0.99245995  0.33548693  0.69180999
   0.93199598  0.44588432  0.76926428
   0.83503819  0.50474835  0.83735712
   0.74978832  0.60174946  0.93100087
   0.67698363  0.68469090  0.02585919
   0.58464822  0.75794869  0.08572272
   0.57821610  0.71908109  0.23641480
   0.48984175  0.82668899  0.31877132
   0.41536580  0.91208090  0.43204352
   0.33787349  0.00536762  0.51031396
   0.26509878  0.08512311  0.60312210
   0.15860963  0.15783336  0.69533450
   0.07830494  0.23117973  0.77670855
   0.98282370  0.33754669  0.86315568
   0.91107353  0.41462620  0.93470669
   0.82213840  0.49693802  0.00997931
   0.76600460  0.58628957  0.10479647
   0.67133529  0.67755873  0.15959923
   0.23853049  0.24246384  0.76150571
   0.16841983  0.33127400  0.84707947
   0.08742629  0.41585985  0.91688433
   0.00043483  0.52821950  0.99691593
   0.92001351  0.56525553  0.07342199
   0.86843704  0.68125405  0.17325603
   0.75823075  0.76717208  0.24721286
   0.64594590  0.80936105  0.34635991
   0.57782718  0.92571629  0.42000719
   0.48401078  0.00443366  0.49423172
   0.40594490  0.08728783  0.59207203
   0.31783777  0.17926877  0.67924298
   0.34419940  0.14840817  0.83028946
   0.25986936  0.23565448  0.91450216
   0.15571385  0.31816346  0.01306118
   0.11777677  0.43688669  0.08849061
   0.00602236  0.47522464  0.16400532
   0.93835349  0.56919105  0.25244389
   0.85645030  0.66458156  0.29689129
   0.77125344  0.74788490  0.40968290
   0.67053940  0.81319952  0.52092895
   0.57656442  0.92088030  0.56995288
   0.49635087  0.99814622  0.67415313
   0.41257706  0.08258777  0.72976121
   0.39374530  0.06213994  0.90727873
   0.32254989  0.15101013  0.00240318
   0.24258260  0.25726921  0.07147048
   0.16106209  0.30368133  0.17083921
   0.10360847  0.38453999  0.23879152
   0.01705577  0.47968107  0.31829918
   0.92893857  0.59007090  0.41687203
   0.81710345  0.66668349  0.50046781
   0.75342699  0.73889217  0.58887776
   0.64913142  0.84646071  0.66109588
   0.58379142  0.93065453  0.75930125
   0.48847569  0.99985424  0.83419529
   0.51039297  0.01078764  0.98821721
   0.41759513  0.07986860  0.09135972
   0.32551476  0.17548808  0.13762234
   0.27792053  0.25598483  0.24846150
   0.18332310  0.33392293  0.33552750
   0.08965944  0.42738814  0.43009719
   0.01661176  0.51080056  0.49767701
   0.91563228  0.58639980  0.57991195
   0.81398065  0.65347799  0.67757428
   0.72574404  0.76009200  0.74471049
   0.68152523  0.81187626  0.83133806
   0.59098276  0.91573839  0.90963499
   0.59129403  0.92725090  0.05907067
   0.50751648  0.98968738  0.16356107
   0.39482949  0.07027216  0.24976156
   0.33370095  0.17475300  0.33353456
   0.25919251  0.24070782  0.44209959
   0.18072601  0.33346679  0.52384236
   0.08942602  0.40155584  0.60789759
   0.98845339  0.50193170  0.66294792
   0.90915132  0.58787007  0.73833387
   0.83253288  0.68591955  0.82931896
   0.76365968  0.74197071  0.94144429
   0.68234893  0.82080798  0.99379795
   0.65529141  0.85116370  0.17589572
   0.58853728  0.91496954  0.26639030
   0.49072939  0.01357128  0.32342018
   0.41514240  0.07970964  0.41280361
   0.33678304  0.15735559  0.49435218
   0.24971352  0.24713071  0.59169435
   0.15720957  0.32085966  0.70020248
   0.06349848  0.41675317  0.76122582
   0.98253590  0.50638513  0.86762250
   0.88933823  0.59755945  0.92137573
   0.83708143  0.68024144  0.01503592
   0.77027228  0.77203361  0.10789408
   0.34785388  0.33672416  0.67871248
   0.25349977  0.41225077  0.74823110
   0.17030348  0.48622187  0.84087430
   0.08030115  0.60114931  0.90330283
   0.99433724  0.65927041  0.99039132
   0.92059254  0.78431716  0.09087208
   0.86901072  0.85707414  0.15389895
   0.76650491  0.90567519  0.25835186
   0.66640526  0.01008944  0.33051361
   0.55334350  0.09192946  0.40253721
   0.47656553  0.16927132  0.48790171
   0.40993340  0.25103502  0.57893511
   0.42941722  0.25258826  0.76893415
   0.32612101  0.33202904  0.83198310
   0.23801305  0.42720975  0.90173836
   0.18327722  0.51869486  0.97254208
   0.08930869  0.58173733  0.06769817
   0.98091123  0.65544178  0.13659336
   0.92553104  0.77409942  0.24808255
   0.84496068  0.83120501  0.33537895
   0.73498314  0.91534922  0.41294282
   0.63465596  0.00343149  0.48982040
   0.59199252  0.10387881  0.58495445
   0.49807427  0.18035759  0.65557766
   0.49736255  0.16858202  0.84597079
   0.40070259  0.24788722  0.93072747
   0.32503398  0.34095842  0.01485354
   0.23405333  0.41910727  0.08511579
   0.17788778  0.52420262  0.18255170
   0.08140082  0.57147980  0.24332802
   0.01462849  0.65862574  0.33277500
   0.91033561  0.73800237  0.40280182
   0.82566017  0.81723802  0.51606347
   0.74289351  0.93230393  0.55540287
   0.64881340  0.01408478  0.64582669
   0.58514094  0.09578005  0.74141114
   0.59715821  0.10473912  0.90112270
   0.50410081  0.15559681  0.99080432
   0.43576077  0.24269911  0.07189648
   0.34558965  0.33279304  0.15307551
   0.23996063  0.42339393  0.23697482
   0.17010212  0.50942206  0.33391345
   0.08331537  0.61158017  0.41846378
   0.99956954  0.66456224  0.50098281
   0.89791343  0.73761702  0.59335844
   0.82862470  0.85528767  0.65757779
   0.73305387  0.91918187  0.73213513
   0.68678042  0.02070831  0.81928381
   0.68149533  0.01928383  0.99320871
   0.58035512  0.08665011  0.10467165
   0.49723928  0.17697964  0.18403023
   0.39898873  0.24827115  0.21798581
   0.34007861  0.33618879  0.31625377
   0.24738900  0.40458362  0.40904405
   0.16861038  0.49126269  0.50952945
   0.07311084  0.58528936  0.58248515
   0.99420874  0.66474134  0.67737658
   0.93063514  0.75072972  0.74439088
   0.81762115  0.84252576  0.82963422
   0.75285909  0.91541226  0.89500962
   0.76817847  0.92808699  0.07511542
   0.68535317  0.98566300  0.17741845
   0.58631223  0.08504367  0.25263333
   0.48381003  0.18452299  0.29721342
   0.40028385  0.26625352  0.39119678
   0.32330442  0.33881307  0.51967401
   0.25701396  0.40769357  0.61654644
   0.16355801  0.51073006  0.66468788
   0.07767430  0.56911981  0.75438245
   0.97925973  0.65767264  0.83114538
   0.93362652  0.75276727  0.89498080
   0.84099729  0.83787602  0.99687070
   0.42210464  0.42492994  0.60781669
   0.33437318  0.49412400  0.67504756
   0.26137105  0.57724213  0.76356144
   0.16288289  0.65938370  0.81974920
   0.08613449  0.74371382  0.89673899
   0.00125219  0.82734921  0.99879782
   0.93535409  0.93098974  0.08677838
   0.82283263  0.02711360  0.18322852
   0.71823053  0.11704338  0.26386475
   0.64821880  0.16455803  0.36249768
   0.55467228  0.28009760  0.41247851
   0.48488595  0.35168789  0.49560432
   0.50166875  0.31606020  0.67327014
   0.43206136  0.41237613  0.75246630
   0.34015968  0.47096712  0.83011185
   0.26726881  0.59347816  0.90127572
   0.17357252  0.66634793  0.00386188
   0.08463561  0.75889907  0.09541477
   0.00999202  0.86817099  0.19042761
   0.91113511  0.93096849  0.25437730
   0.83922543  0.00988155  0.33264203
   0.74359122  0.07422963  0.42030663
   0.65467128  0.17473985  0.48371996
   0.57609871  0.27817002  0.56224273
   0.59961223  0.25964523  0.77916413
   0.50098982  0.34555411  0.83808463
   0.39300008  0.40721305  0.91803693
   0.31651394  0.49708145  0.00077936
   0.25074928  0.59242027  0.07575775
   0.14994186  0.65161168  0.16563746
   0.07164057  0.74721288  0.24863121
   0.00177825  0.84631423  0.34331340
   0.90576707  0.90152391  0.41961030
   0.81278762  0.01168221  0.47772853
   0.72712833  0.09134656  0.56590897
   0.65045220  0.19925467  0.64627504
   0.67272361  0.17144450  0.81829016
   0.58716975  0.27108496  0.90696562
   0.49215134  0.34560386  0.99300491
   0.42376828  0.40597697  0.09649478
   0.31122754  0.51792296  0.15049633
   0.25631937  0.60224068  0.27389224
   0.16104244  0.64337531  0.34676436
   0.09157605  0.76522211  0.41904692
   0.99349373  0.82048319  0.49628487
   0.89528457  0.92542567  0.58783613
   0.83464754  0.01679409  0.66753278
   0.74399492  0.10607284  0.72698883
   0.75731209  0.09716248  0.90466831
   0.65659618  0.15360380  0.00372167
   0.57157604  0.25905376  0.07050221
   0.49166101  0.32060382  0.14851735
   0.41094603  0.41203515  0.21609821
   0.32586431  0.48792055  0.33258620
   0.25420492  0.56891627  0.41466616
   0.17751115  0.65269385  0.50975451
   0.06772274  0.74796616  0.59199709
   0.98886354  0.84320366  0.65852710
   0.90306401  0.91463467  0.74402252
   0.83168155  0.00840589  0.84466873
   0.84111627  0.00444226  0.99600795
   0.75925822  0.08920559  0.10086749
   0.66093713  0.17347772  0.15441997
   0.59604193  0.23504785  0.22503924
   0.50214940  0.33022238  0.28910585
   0.41335689  0.41043767  0.41732550
   0.33514524  0.48344755  0.48475948
   0.26247703  0.56473495  0.56949108
   0.16389311  0.64768456  0.66083021
   0.07760471  0.74314564  0.74714741
   0.01324689  0.82865163  0.81361932
   0.91058615  0.90217762  0.90442675
