 504 504   0   0
  0.2301818E+02  0.2235821E-08  0.2212889E-08  0.2344795E-08  0.5000000E-15
  1.000000000000000E-004
  CAR 
 Li                                      
      2.82580479     -3.57065351  301      0.07884552      1.00000000
     -3.571  0.0000E+00  0.0000E+00
     -3.549  0.0000E+00  0.0000E+00
     -3.528  0.0000E+00  0.0000E+00
     -3.507  0.0000E+00  0.0000E+00
     -3.485  0.0000E+00  0.0000E+00
     -3.464  0.0000E+00  0.0000E+00
     -3.443  0.2213E-13  0.4718E-15
     -3.421  0.5311E-10  0.1133E-11
     -3.400  0.4720E-07  0.1008E-08
     -3.379  0.1562E-04  0.3341E-06
     -3.357  0.1939E-02  0.4167E-04
     -3.336  0.9100E-01  0.1982E-02
     -3.315  0.1634E+01  0.3681E-01
     -3.293  0.1136E+02  0.2789E+00
     -3.272  0.3092E+02  0.9381E+00
     -3.251  0.3323E+02  0.1647E+01
     -3.230  0.1451E+02  0.1956E+01
     -3.208  0.7446E+01  0.2115E+01
     -3.187  0.2735E+02  0.2698E+01
     -3.166  0.7007E+02  0.4192E+01
     -3.144  0.9373E+02  0.6190E+01
     -3.123  0.6301E+02  0.7534E+01
     -3.102  0.2122E+02  0.7986E+01
     -3.080  0.1826E+02  0.8375E+01
     -3.059  0.5671E+02  0.9585E+01
     -3.038  0.9399E+02  0.1159E+02
     -3.016  0.7669E+02  0.1322E+02
     -2.995  0.3516E+02  0.1397E+02
     -2.974  0.2922E+02  0.1460E+02
     -2.952  0.6054E+02  0.1589E+02
     -2.931  0.9663E+02  0.1795E+02
     -2.910  0.1050E+03  0.2019E+02
     -2.888  0.6782E+02  0.2163E+02
     -2.867  0.4350E+02  0.2256E+02
     -2.846  0.7772E+02  0.2422E+02
     -2.824  0.1237E+03  0.2686E+02
     -2.803  0.1410E+03  0.2986E+02
     -2.782  0.1181E+03  0.3238E+02
     -2.760  0.6352E+02  0.3373E+02
     -2.739  0.3690E+02  0.3452E+02
     -2.718  0.5939E+02  0.3579E+02
     -2.696  0.8610E+02  0.3762E+02
     -2.675  0.7783E+02  0.3928E+02
     -2.654  0.5570E+02  0.4047E+02
     -2.633  0.6376E+02  0.4183E+02
     -2.611  0.9011E+02  0.4375E+02
     -2.590  0.1153E+03  0.4621E+02
     -2.569  0.1274E+03  0.4892E+02
     -2.547  0.1196E+03  0.5147E+02
     -2.526  0.1134E+03  0.5389E+02
     -2.505  0.1232E+03  0.5652E+02
     -2.483  0.1425E+03  0.5956E+02
     -2.462  0.1614E+03  0.6300E+02
     -2.441  0.1572E+03  0.6635E+02
     -2.419  0.1238E+03  0.6899E+02
     -2.398  0.8153E+02  0.7073E+02
     -2.377  0.5559E+02  0.7191E+02
     -2.355  0.5979E+02  0.7319E+02
     -2.334  0.7616E+02  0.7481E+02
     -2.313  0.7286E+02  0.7637E+02
     -2.291  0.8814E+02  0.7824E+02
     -2.270  0.1201E+03  0.8081E+02
     -2.249  0.1367E+03  0.8372E+02
     -2.227  0.1452E+03  0.8682E+02
     -2.206  0.1429E+03  0.8986E+02
     -2.185  0.1273E+03  0.9258E+02
     -2.163  0.1216E+03  0.9517E+02
     -2.142  0.1326E+03  0.9800E+02
     -2.121  0.1631E+03  0.1015E+03
     -2.099  0.1828E+03  0.1054E+03
     -2.078  0.1612E+03  0.1088E+03
     -2.057  0.1053E+03  0.1111E+03
     -2.036  0.5993E+02  0.1123E+03
     -2.014  0.7550E+02  0.1139E+03
     -1.993  0.1286E+03  0.1167E+03
     -1.972  0.1560E+03  0.1200E+03
     -1.950  0.1440E+03  0.1231E+03
     -1.929  0.1352E+03  0.1260E+03
     -1.908  0.1483E+03  0.1291E+03
     -1.886  0.1685E+03  0.1327E+03
     -1.865  0.1780E+03  0.1365E+03
     -1.844  0.1687E+03  0.1401E+03
     -1.822  0.1452E+03  0.1432E+03
     -1.801  0.1352E+03  0.1461E+03
     -1.780  0.1413E+03  0.1491E+03
     -1.758  0.1573E+03  0.1525E+03
     -1.737  0.1634E+03  0.1559E+03
     -1.716  0.1378E+03  0.1589E+03
     -1.694  0.1097E+03  0.1612E+03
     -1.673  0.1081E+03  0.1635E+03
     -1.652  0.1183E+03  0.1660E+03
     -1.630  0.1152E+03  0.1685E+03
     -1.609  0.1118E+03  0.1709E+03
     -1.588  0.1319E+03  0.1737E+03
     -1.566  0.1515E+03  0.1769E+03
     -1.545  0.1554E+03  0.1802E+03
     -1.524  0.1622E+03  0.1837E+03
     -1.502  0.1675E+03  0.1873E+03
     -1.481  0.1662E+03  0.1908E+03
     -1.460  0.1762E+03  0.1946E+03
     -1.439  0.2027E+03  0.1989E+03
     -1.417  0.2251E+03  0.2037E+03
     -1.396  0.2320E+03  0.2086E+03
     -1.375  0.2169E+03  0.2133E+03
     -1.353  0.1887E+03  0.2173E+03
     -1.332  0.1755E+03  0.2210E+03
     -1.311  0.1661E+03  0.2246E+03
     -1.289  0.1521E+03  0.2278E+03
     -1.268  0.1377E+03  0.2307E+03
     -1.247  0.1228E+03  0.2334E+03
     -1.225  0.1305E+03  0.2361E+03
     -1.204  0.1522E+03  0.2394E+03
     -1.183  0.1671E+03  0.2430E+03
     -1.161  0.1694E+03  0.2466E+03
     -1.140  0.1651E+03  0.2501E+03
     -1.119  0.1739E+03  0.2538E+03
     -1.097  0.1905E+03  0.2579E+03
     -1.076  0.1937E+03  0.2620E+03
     -1.055  0.1859E+03  0.2660E+03
     -1.033  0.1663E+03  0.2695E+03
     -1.012  0.1405E+03  0.2725E+03
     -0.991  0.1452E+03  0.2756E+03
     -0.969  0.1742E+03  0.2793E+03
     -0.948  0.1768E+03  0.2831E+03
     -0.927  0.1643E+03  0.2866E+03
     -0.905  0.1673E+03  0.2901E+03
     -0.884  0.1935E+03  0.2943E+03
     -0.863  0.2261E+03  0.2991E+03
     -0.841  0.2371E+03  0.3041E+03
     -0.820  0.2300E+03  0.3090E+03
     -0.799  0.2198E+03  0.3137E+03
     -0.778  0.2139E+03  0.3183E+03
     -0.756  0.2166E+03  0.3229E+03
     -0.735  0.2299E+03  0.3278E+03
     -0.714  0.2380E+03  0.3329E+03
     -0.692  0.2203E+03  0.3376E+03
     -0.671  0.1759E+03  0.3413E+03
     -0.650  0.1517E+03  0.3446E+03
     -0.628  0.1702E+03  0.3482E+03
     -0.607  0.1866E+03  0.3522E+03
     -0.586  0.1821E+03  0.3561E+03
     -0.564  0.1757E+03  0.3598E+03
     -0.543  0.1846E+03  0.3637E+03
     -0.522  0.1974E+03  0.3680E+03
     -0.500  0.2007E+03  0.3722E+03
     -0.479  0.1955E+03  0.3764E+03
     -0.458  0.2042E+03  0.3808E+03
     -0.436  0.2231E+03  0.3855E+03
     -0.415  0.2357E+03  0.3905E+03
     -0.394  0.2438E+03  0.3957E+03
     -0.372  0.2476E+03  0.4010E+03
     -0.351  0.2478E+03  0.4063E+03
     -0.330  0.2422E+03  0.4115E+03
     -0.308  0.2347E+03  0.4165E+03
     -0.287  0.2262E+03  0.4213E+03
     -0.266  0.2220E+03  0.4260E+03
     -0.244  0.2247E+03  0.4308E+03
     -0.223  0.2231E+03  0.4356E+03
     -0.202  0.2132E+03  0.4401E+03
     -0.181  0.2114E+03  0.4446E+03
     -0.159  0.2116E+03  0.4491E+03
     -0.138  0.2023E+03  0.4534E+03
     -0.117  0.1952E+03  0.4576E+03
     -0.095  0.1925E+03  0.4617E+03
     -0.074  0.2010E+03  0.4660E+03
     -0.053  0.2196E+03  0.4707E+03
     -0.031  0.2247E+03  0.4755E+03
     -0.010  0.2240E+03  0.4803E+03
      0.011  0.2380E+03  0.4853E+03
      0.033  0.2579E+03  0.4908E+03
      0.054  0.2764E+03  0.4967E+03
      0.075  0.2924E+03  0.5030E+03
      0.097  0.2966E+03  0.5093E+03
      0.118  0.2889E+03  0.5154E+03
      0.139  0.2815E+03  0.5214E+03
      0.161  0.2822E+03  0.5275E+03
      0.182  0.2878E+03  0.5336E+03
      0.203  0.2849E+03  0.5397E+03
      0.225  0.2704E+03  0.5454E+03
      0.246  0.2604E+03  0.5510E+03
      0.267  0.2597E+03  0.5565E+03
      0.289  0.2685E+03  0.5622E+03
      0.310  0.2750E+03  0.5681E+03
      0.331  0.2702E+03  0.5739E+03
      0.353  0.2599E+03  0.5794E+03
      0.374  0.2436E+03  0.5846E+03
      0.395  0.2195E+03  0.5893E+03
      0.416  0.2071E+03  0.5937E+03
      0.438  0.2156E+03  0.5983E+03
      0.459  0.2265E+03  0.6031E+03
      0.480  0.2252E+03  0.6079E+03
      0.502  0.2194E+03  0.6126E+03
      0.523  0.2233E+03  0.6174E+03
      0.544  0.2243E+03  0.6222E+03
      0.566  0.2179E+03  0.6268E+03
      0.587  0.2221E+03  0.6315E+03
      0.608  0.2372E+03  0.6366E+03
      0.630  0.2488E+03  0.6419E+03
      0.651  0.2511E+03  0.6472E+03
      0.672  0.2466E+03  0.6525E+03
      0.694  0.2551E+03  0.6579E+03
      0.715  0.2665E+03  0.6636E+03
      0.736  0.2614E+03  0.6692E+03
      0.758  0.2579E+03  0.6747E+03
      0.779  0.2609E+03  0.6803E+03
      0.800  0.2477E+03  0.6855E+03
      0.822  0.2342E+03  0.6905E+03
      0.843  0.2338E+03  0.6955E+03
      0.864  0.2369E+03  0.7006E+03
      0.886  0.2379E+03  0.7056E+03
      0.907  0.2373E+03  0.7107E+03
      0.928  0.2455E+03  0.7159E+03
      0.950  0.2531E+03  0.7213E+03
      0.971  0.2443E+03  0.7265E+03
      0.992  0.2307E+03  0.7315E+03
      1.013  0.2265E+03  0.7363E+03
      1.035  0.2291E+03  0.7412E+03
      1.056  0.2271E+03  0.7460E+03
      1.077  0.2291E+03  0.7509E+03
      1.099  0.2318E+03  0.7558E+03
      1.120  0.2252E+03  0.7607E+03
      1.141  0.2224E+03  0.7654E+03
      1.163  0.2288E+03  0.7703E+03
      1.184  0.2347E+03  0.7753E+03
      1.205  0.2324E+03  0.7802E+03
      1.227  0.2246E+03  0.7850E+03
      1.248  0.2224E+03  0.7898E+03
      1.269  0.2357E+03  0.7948E+03
      1.291  0.2449E+03  0.8000E+03
      1.312  0.2378E+03  0.8051E+03
      1.333  0.2269E+03  0.8099E+03
      1.355  0.2225E+03  0.8147E+03
      1.376  0.2278E+03  0.8195E+03
      1.397  0.2347E+03  0.8245E+03
      1.419  0.2280E+03  0.8294E+03
      1.440  0.2159E+03  0.8340E+03
      1.461  0.2097E+03  0.8385E+03
      1.483  0.2080E+03  0.8429E+03
      1.504  0.2082E+03  0.8473E+03
      1.525  0.2080E+03  0.8518E+03
      1.547  0.2100E+03  0.8562E+03
      1.568  0.2136E+03  0.8608E+03
      1.589  0.2127E+03  0.8653E+03
      1.610  0.2005E+03  0.8696E+03
      1.632  0.1890E+03  0.8736E+03
      1.653  0.1898E+03  0.8777E+03
      1.674  0.1913E+03  0.8818E+03
      1.696  0.1843E+03  0.8857E+03
      1.717  0.1819E+03  0.8896E+03
      1.738  0.1834E+03  0.8935E+03
      1.760  0.1809E+03  0.8973E+03
      1.781  0.1809E+03  0.9012E+03
      1.802  0.1916E+03  0.9053E+03
      1.824  0.1969E+03  0.9095E+03
      1.845  0.1852E+03  0.9134E+03
      1.866  0.1729E+03  0.9171E+03
      1.888  0.1640E+03  0.9206E+03
      1.909  0.1585E+03  0.9240E+03
      1.930  0.1575E+03  0.9273E+03
      1.952  0.1572E+03  0.9307E+03
      1.973  0.1554E+03  0.9340E+03
      1.994  0.1505E+03  0.9372E+03
      2.016  0.1497E+03  0.9404E+03
      2.037  0.1511E+03  0.9436E+03
      2.058  0.1521E+03  0.9469E+03
      2.080  0.1605E+03  0.9503E+03
      2.101  0.1649E+03  0.9538E+03
      2.122  0.1591E+03  0.9572E+03
      2.144  0.1593E+03  0.9606E+03
      2.165  0.1599E+03  0.9640E+03
      2.186  0.1516E+03  0.9672E+03
      2.207  0.1480E+03  0.9704E+03
      2.229  0.1519E+03  0.9736E+03
      2.250  0.1556E+03  0.9770E+03
      2.271  0.1553E+03  0.9803E+03
      2.293  0.1411E+03  0.9833E+03
      2.314  0.1255E+03  0.9860E+03
      2.335  0.1230E+03  0.9886E+03
      2.357  0.1216E+03  0.9912E+03
      2.378  0.1173E+03  0.9937E+03
      2.399  0.1181E+03  0.9962E+03
      2.421  0.1202E+03  0.9987E+03
      2.442  0.1190E+03  0.1001E+04
      2.463  0.1153E+03  0.1004E+04
      2.485  0.1025E+03  0.1006E+04
      2.506  0.8588E+02  0.1008E+04
      2.527  0.6428E+02  0.1009E+04
      2.549  0.3178E+02  0.1010E+04
      2.570  0.8027E+01  0.1010E+04
      2.591  0.9095E+00  0.1010E+04
      2.613  0.4314E-01  0.1010E+04
      2.634  0.8210E-03  0.1010E+04
      2.655  0.6094E-05  0.1010E+04
      2.677  0.1731E-07  0.1010E+04
      2.698  0.1857E-10  0.1010E+04
      2.719  0.5207E-14  0.1010E+04
      2.741  0.0000E+00  0.1010E+04
      2.762  0.0000E+00  0.1010E+04
      2.783  0.0000E+00  0.1010E+04
      2.804  0.0000E+00  0.1010E+04
      2.826  0.0000E+00  0.1010E+04
