 running on   64 total cores
 distrk:  each k-point on   32 cores,    2 groups
 distr:  one band on   32 cores,    1 groups
 vasp.6.2.1 16May21 (build Nov 23 2021 15:40:41) complex                        
  
 POSCAR found type information on POSCAR Li
 POSCAR found :  1 types and     504 ions
 scaLAPACK will be used
 -----------------------------------------------------------------------------
|                                                                             |
|           W    W    AA    RRRRR   N    N  II  N    N   GGGG   !!!           |
|           W    W   A  A   R    R  NN   N  II  NN   N  G    G  !!!           |
|           W    W  A    A  R    R  N N  N  II  N N  N  G       !!!           |
|           W WW W  AAAAAA  RRRRR   N  N N  II  N  N N  G  GGG   !            |
|           WW  WW  A    A  R   R   N   NN  II  N   NN  G    G                |
|           W    W  A    A  R    R  N    N  II  N    N   GGGG   !!!           |
|                                                                             |
|     For optimal performance we recommend to set                             |
|       NCORE = 2 up to number-of-cores-per-socket                            |
|     NCORE specifies how many cores store one orbital (NPAR=cpu/NCORE).      |
|     This setting can greatly improve the performance of VASP for DFT.       |
|     The default, NCORE=1 might be grossly inefficient on modern             |
|     multi-core architectures or massively parallel machines. Do your        |
|     own testing! More info at https://www.vasp.at/wiki/index.php/NCORE      |
|     Unfortunately you need to use the default for GW and RPA                |
|     calculations (for HF NCORE is supported but not extensively tested      |
|     yet).                                                                   |
|                                                                             |
 -----------------------------------------------------------------------------

 -----------------------------------------------------------------------------
|                                                                             |
|               ----> ADVICE to this user running VASP <----                  |
|                                                                             |
|     You have a (more or less) 'large supercell' and for larger cells it     |
|     might be more efficient to use real-space projection operators.         |
|     Therefore, try LREAL= Auto in the INCAR file.                           |
|     Mind: If you want to do very accurate calculations, keep the            |
|     reciprocal projection scheme (i.e. LREAL=.FALSE.).                      |
|                                                                             |
 -----------------------------------------------------------------------------

 LDA part: xc-table for Pade appr. of Perdew
 POSCAR found type information on POSCAR Li
 POSCAR found :  1 types and     504 ions
 POSCAR, INCAR and KPOINTS ok, starting setup
 FFT: planning ...
 WAVECAR not read
 entering main loop
       N       E                     dE             d eps       ncg     rms          rms(c)
DAV:   1    -0.311861862180E+03   -0.31186E+03   -0.11803E+05  4040   0.644E+02
DAV:   2    -0.878215385382E+03   -0.56635E+03   -0.51822E+03  4644   0.639E+01
DAV:   3    -0.920106688149E+03   -0.41891E+02   -0.38343E+02  5240   0.137E+01
DAV:   4    -0.921610755879E+03   -0.15041E+01   -0.14799E+01  4752   0.283E+00
DAV:   5    -0.921646519981E+03   -0.35764E-01   -0.35689E-01  4912   0.462E-01    0.938E+00
DAV:   6    -0.924158485740E+03   -0.25120E+01   -0.10416E+01  4880   0.517E+00    0.916E+00
DAV:   7    -0.911137249235E+03    0.13021E+02   -0.10653E+01  5112   0.484E+00    0.495E+00
DAV:   8    -0.908857942523E+03    0.22793E+01   -0.63579E+00  4752   0.249E+00    0.299E+00
DAV:   9    -0.908493621330E+03    0.36432E+00   -0.36861E+00  4664   0.177E+00    0.207E+00
DAV:  10    -0.908050499219E+03    0.44312E+00   -0.14633E+00  4640   0.117E+00    0.114E+00
DAV:  11    -0.907983017026E+03    0.67482E-01   -0.43622E-01  4400   0.532E-01    0.618E-01
DAV:  12    -0.908009599174E+03   -0.26582E-01   -0.90606E-02  5032   0.347E-01    0.593E-01
DAV:  13    -0.907968574884E+03    0.41024E-01   -0.51817E-02  4864   0.265E-01    0.278E-01
DAV:  14    -0.907973767651E+03   -0.51928E-02   -0.17432E-02  4760   0.152E-01    0.241E-01
DAV:  15    -0.907966311195E+03    0.74565E-02   -0.11834E-02  4680   0.121E-01    0.981E-02
DAV:  16    -0.907966032035E+03    0.27916E-03   -0.31887E-03  4488   0.533E-02    0.612E-02
DAV:  17    -0.907965986671E+03    0.45364E-04   -0.10080E-03  4552   0.329E-02    0.420E-02
DAV:  18    -0.907965796956E+03    0.18972E-03   -0.39336E-04  4536   0.221E-02    0.230E-02
DAV:  19    -0.907965761338E+03    0.35619E-04   -0.12889E-04  4424   0.107E-02    0.106E-02
DAV:  20    -0.907965754280E+03    0.70572E-05   -0.42479E-05  4424   0.644E-03
   1 F= -.90796575E+03 E0= -.90789875E+03  d E =-.134015E+00
