 running on   64 total cores
 distrk:  each k-point on   32 cores,    2 groups
 distr:  one band on   32 cores,    1 groups
 vasp.6.2.1 16May21 (build Nov 23 2021 15:40:41) complex                        
  
 POSCAR found type information on POSCAR Li
 POSCAR found :  1 types and     504 ions
 scaLAPACK will be used
 -----------------------------------------------------------------------------
|                                                                             |
|           W    W    AA    RRRRR   N    N  II  N    N   GGGG   !!!           |
|           W    W   A  A   R    R  NN   N  II  NN   N  G    G  !!!           |
|           W    W  A    A  R    R  N N  N  II  N N  N  G       !!!           |
|           W WW W  AAAAAA  RRRRR   N  N N  II  N  N N  G  GGG   !            |
|           WW  WW  A    A  R   R   N   NN  II  N   NN  G    G                |
|           W    W  A    A  R    R  N    N  II  N    N   GGGG   !!!           |
|                                                                             |
|     For optimal performance we recommend to set                             |
|       NCORE = 2 up to number-of-cores-per-socket                            |
|     NCORE specifies how many cores store one orbital (NPAR=cpu/NCORE).      |
|     This setting can greatly improve the performance of VASP for DFT.       |
|     The default, NCORE=1 might be grossly inefficient on modern             |
|     multi-core architectures or massively parallel machines. Do your        |
|     own testing! More info at https://www.vasp.at/wiki/index.php/NCORE      |
|     Unfortunately you need to use the default for GW and RPA                |
|     calculations (for HF NCORE is supported but not extensively tested      |
|     yet).                                                                   |
|                                                                             |
 -----------------------------------------------------------------------------

 -----------------------------------------------------------------------------
|                                                                             |
|               ----> ADVICE to this user running VASP <----                  |
|                                                                             |
|     You have a (more or less) 'large supercell' and for larger cells it     |
|     might be more efficient to use real-space projection operators.         |
|     Therefore, try LREAL= Auto in the INCAR file.                           |
|     Mind: If you want to do very accurate calculations, keep the            |
|     reciprocal projection scheme (i.e. LREAL=.FALSE.).                      |
|                                                                             |
 -----------------------------------------------------------------------------

 LDA part: xc-table for Pade appr. of Perdew
 POSCAR found type information on POSCAR Li
 POSCAR found :  1 types and     504 ions
 POSCAR, INCAR and KPOINTS ok, starting setup
 FFT: planning ...
 WAVECAR not read
 entering main loop
       N       E                     dE             d eps       ncg     rms          rms(c)
DAV:   1    -0.284539104530E+03   -0.28454E+03   -0.12309E+05  4040   0.658E+02
DAV:   2    -0.895070297749E+03   -0.61053E+03   -0.55869E+03  4644   0.681E+01
DAV:   3    -0.938185385121E+03   -0.43115E+02   -0.39273E+02  5152   0.143E+01
DAV:   4    -0.939664452304E+03   -0.14791E+01   -0.14544E+01  4688   0.288E+00
DAV:   5    -0.939698429122E+03   -0.33977E-01   -0.33911E-01  4840   0.464E-01    0.944E+00
DAV:   6    -0.933930642680E+03    0.57678E+01   -0.12453E+01  4576   0.464E+00    0.716E+00
DAV:   7    -0.930336919733E+03    0.35937E+01   -0.98965E+00  4664   0.447E+00    0.556E+00
DAV:   8    -0.926510905573E+03    0.38260E+01   -0.45844E+00  4616   0.277E+00    0.300E+00
DAV:   9    -0.926035705144E+03    0.47520E+00   -0.25476E+00  4600   0.163E+00    0.209E+00
DAV:  10    -0.925618124753E+03    0.41758E+00   -0.11942E+00  4552   0.112E+00    0.120E+00
DAV:  11    -0.925543755103E+03    0.74370E-01   -0.39725E-01  4344   0.509E-01    0.659E-01
DAV:  12    -0.925554476784E+03   -0.10722E-01   -0.87280E-02  4736   0.319E-01    0.560E-01
DAV:  13    -0.925526641498E+03    0.27835E-01   -0.44963E-02  4672   0.251E-01    0.299E-01
DAV:  14    -0.925522446904E+03    0.41946E-02   -0.13841E-02  4608   0.131E-01    0.171E-01
DAV:  15    -0.925523632454E+03   -0.11855E-02   -0.73437E-03  4656   0.101E-01    0.158E-01
DAV:  16    -0.925520623602E+03    0.30089E-02   -0.38286E-03  4592   0.703E-02    0.589E-02
DAV:  17    -0.925520516903E+03    0.10670E-03   -0.10648E-03  4432   0.304E-02    0.346E-02
DAV:  18    -0.925520459330E+03    0.57573E-04   -0.34245E-04  4456   0.195E-02    0.232E-02
DAV:  19    -0.925520409375E+03    0.49955E-04   -0.10960E-04  4472   0.126E-02    0.145E-02
DAV:  20    -0.925520380153E+03    0.29222E-04   -0.42391E-05  4440   0.660E-03    0.613E-03
DAV:  21    -0.925520374892E+03    0.52601E-05   -0.13849E-05  2328   0.357E-03
   1 F= -.92552037E+03 E0= -.92545992E+03  d E =-.120919E+00
