Li                                      
           1
   -10.636430   18.422837    0.000000
   -18.233880  -10.527336    0.000000
    -0.000000    0.000000   22.309700
   Li
   504
Direct configuration=     1
   0.00061692  0.99861537  0.99976211
   0.93054284  0.04335986  0.66496867
   0.85029732  0.08534931  0.32118229
   0.79075859  0.13146752  0.02146163
   0.71997652  0.17090120  0.67892386
   0.65178978  0.20756588  0.31673305
   0.57624063  0.24960908  0.01411201
   0.49799591  0.28446961  0.67271757
   0.43280521  0.32191312  0.30481077
   0.35709562  0.38025885  0.00239001
   0.28622949  0.40378967  0.67247876
   0.22260906  0.45173991  0.32971333
   0.06365253  0.04225985  0.65777463
   0.00472189  0.08283759  0.34363386
   0.92930702  0.12181155  0.01181881
   0.85985889  0.16953119  0.66019486
   0.79087515  0.21077974  0.31955586
   0.71753844  0.24664774  0.01640339
   0.63751889  0.28481411  0.67546861
   0.56253906  0.32791921  0.33040764
   0.49219081  0.37515823  0.01677045
   0.43009386  0.41348938  0.65311427
   0.35414512  0.44533734  0.37020878
   0.28367882  0.49619612  0.01356460
   0.14469950  0.07511868  0.34001942
   0.07243787  0.12333972  0.00285166
   0.99978120  0.17900882  0.67359404
   0.92134853  0.20831732  0.32350734
   0.85701238  0.25506129  0.01040090
   0.78785543  0.27949317  0.66805774
   0.71567473  0.32255066  0.32781176
   0.64115701  0.36917314  0.01498847
   0.56706952  0.41556639  0.65510267
   0.49597971  0.45702689  0.33278521
   0.42795129  0.49552319  0.99431630
   0.34756917  0.54044227  0.66994874
   0.21344801  0.11888568  0.01341563
   0.14809520  0.15653727  0.66715847
   0.07780181  0.20615215  0.32047602
   0.99274166  0.24801566  0.01257322
   0.93052943  0.28476417  0.66489535
   0.85096964  0.32926697  0.33160394
   0.79089232  0.37391403  0.00881974
   0.72163805  0.41496542  0.67764058
   0.64273586  0.44504631  0.32820012
   0.58291500  0.49206561  0.00714112
   0.50137960  0.53242285  0.67885489
   0.42280266  0.57923617  0.34253341
   0.27754691  0.15468245  0.65321484
   0.21334386  0.19959944  0.32545265
   0.14823615  0.24410093  0.03169397
   0.07551180  0.28296879  0.65655203
   0.01371144  0.33040833  0.33077133
   0.94178662  0.36983264  0.03910797
   0.85744081  0.41591665  0.65494949
   0.78872794  0.45887546  0.33907342
   0.71315022  0.50189552  0.00888835
   0.64714521  0.53197762  0.66671869
   0.56572507  0.58262572  0.34241540
   0.48878633  0.61963476  0.00403378
   0.35815656  0.20581415  0.32212541
   0.28822098  0.24795700  0.00067761
   0.20976792  0.29776174  0.66361277
   0.14410704  0.33579111  0.32690411
   0.06411379  0.38304303  0.02580809
   0.01136340  0.42321963  0.64699082
   0.93285767  0.46146071  0.31959148
   0.85258579  0.50188860  0.98849810
   0.78382627  0.53430727  0.64618296
   0.71346027  0.57963341  0.35897813
   0.63274765  0.61655762  0.00795045
   0.55987958  0.66362662  0.64829235
   0.42463782  0.24500703  0.02446992
   0.36154843  0.28438130  0.66628519
   0.28219385  0.33896224  0.32755052
   0.20931605  0.37828282  0.99871700
   0.14619789  0.42062803  0.67889270
   0.07660713  0.46029908  0.33445351
   0.00448594  0.50105786  0.01919903
   0.92789513  0.54425591  0.67931687
   0.84656998  0.57566710  0.34115918
   0.77828333  0.61387712  0.00747645
   0.70337717  0.66455838  0.65460946
   0.63921236  0.69961593  0.34449528
   0.14709606  0.50119321  0.00732647
   0.07014169  0.53981703  0.64425961
   0.00255014  0.59182981  0.32411636
   0.93038112  0.62315119  0.00819066
   0.84826295  0.65885729  0.65434568
   0.77845508  0.70387459  0.33997699
   0.70510329  0.74216937  0.98825182
   0.21035543  0.54040444  0.66492451
   0.14294326  0.58447190  0.34271742
   0.07848033  0.61812891  0.01125039
   0.00037073  0.67534647  0.67456383
   0.93436964  0.70029851  0.32719584
   0.84982557  0.74438343  0.00865481
   0.77399881  0.79146211  0.68313232
   0.28233291  0.58649246  0.34311365
   0.21730718  0.63153917  0.98923271
   0.14794141  0.66334381  0.65364417
   0.07452141  0.70870979  0.35065212
   0.00831203  0.74870742  0.99871109
   0.92390563  0.79968645  0.65394977
   0.84797480  0.84307894  0.35435095
   0.36085244  0.61713158  0.99102164
   0.29282252  0.65996486  0.66291676
   0.21641688  0.69928613  0.33376509
   0.14342253  0.74565632  0.99816950
   0.07003105  0.79407668  0.65573020
   0.01086963  0.83342881  0.33305555
   0.93137323  0.87089364  0.00685762
   0.42283164  0.66423288  0.65525463
   0.35320619  0.70222276  0.31783750
   0.28222785  0.76059872  0.99051158
   0.21306214  0.78760578  0.66515520
   0.14351269  0.82749502  0.35543417
   0.07343162  0.87241863  0.00480767
   0.00721677  0.92303910  0.65964645
   0.92052351  0.95836089  0.32521179
   0.85878250  0.99792938  0.00354089
   0.78090968  0.04606966  0.67360964
   0.70483606  0.08797642  0.32853750
   0.64498891  0.13305828  0.97839968
   0.56882926  0.16489413  0.66674204
   0.49943697  0.21513277  0.32786884
   0.07082811  0.95899341  0.34075536
   0.13843901  0.99047907  0.98045055
   0.21850236  0.04605864  0.66829535
   0.28454728  0.07596856  0.34298590
   0.35826807  0.11279459  0.01659300
   0.43553070  0.17210877  0.65364919
   0.85442614  0.91759603  0.67364988
   0.78698599  0.95314899  0.31172815
   0.71750526  0.00446769  0.97521313
   0.63976956  0.04577052  0.70507194
   0.56753970  0.07092959  0.32939539
   0.50306718  0.12128206  0.98835813
   0.14203748  0.91031804  0.66136105
   0.21935084  0.96247764  0.33453379
   0.29226412  0.00809239  0.99626300
   0.35247559  0.04183281  0.65749001
   0.42803884  0.07937318  0.32913940
   0.78538547  0.88321944  0.99151758
   0.71023563  0.92746607  0.68392403
   0.64013737  0.97372262  0.34164843
   0.56693331  0.98720484  0.98299809
   0.49408206  0.03495486  0.65746510
   0.22152077  0.87213056  0.99154065
   0.28717347  0.91888403  0.66411870
   0.36263363  0.95129334  0.32650417
   0.42359692  0.99951874  0.99874737
   0.71215371  0.83650319  0.33490053
   0.64933454  0.88080052  0.96627554
   0.57332426  0.91588687  0.67855748
   0.49664159  0.95780665  0.33469848
   0.29028496  0.83392341  0.31886037
   0.36531345  0.87782718  0.99963571
   0.43030341  0.91861436  0.65067197
   0.64628399  0.79378382  0.66531876
   0.56227274  0.82880849  0.31428648
   0.51012481  0.87409934  0.97504817
   0.34321061  0.79027212  0.65434293
   0.44175563  0.83663132  0.32254826
   0.55902539  0.74793999  0.00578491
   0.49928300  0.78219178  0.67093639
   0.43373623  0.74929727  0.97730554
   0.49605727  0.70525552  0.34299728
   0.00509949  0.99887920  0.75605103
   0.93350265  0.04138315  0.44566829
   0.83911760  0.07613765  0.10706829
   0.80157532  0.13445431  0.78071375
   0.73024041  0.17878686  0.41807159
   0.60606305  0.22602439  0.12407262
   0.58060933  0.26048501  0.78918420
   0.50824468  0.30068186  0.44168437
   0.42453998  0.33278787  0.11284479
   0.35840840  0.38202264  0.78020569
   0.30299617  0.39790763  0.46248052
   0.21135357  0.47165470  0.11692104
   0.06141558  0.03964069  0.43897230
   0.00145887  0.07311921  0.11632044
   0.94928794  0.12061514  0.78677424
   0.86384970  0.18446268  0.42942879
   0.75886612  0.21383535  0.11942467
   0.71312866  0.25214213  0.78311531
   0.64438422  0.28510118  0.43581567
   0.56406692  0.34272912  0.12894493
   0.51426945  0.39072464  0.77559954
   0.43450908  0.40646885  0.43335568
   0.35820489  0.46369089  0.09986341
   0.30649173  0.49808689  0.78118040
   0.13021435  0.09330366  0.12076302
   0.08692462  0.12451640  0.76067349
   0.99329097  0.16353858  0.44098010
   0.90952285  0.20550558  0.12070134
   0.85895691  0.24956975  0.77613627
   0.78356253  0.30677229  0.44289066
   0.70338873  0.34119328  0.11833306
   0.65689821  0.38421711  0.79638703
   0.58146789  0.41458047  0.43551837
   0.49260168  0.46328869  0.11266090
   0.42757943  0.51244230  0.77984927
   0.35543000  0.51991983  0.45134060
   0.23003951  0.12200226  0.78204596
   0.14317492  0.15852804  0.42867251
   0.06850504  0.20596578  0.12864464
   0.99807917  0.25558887  0.79363288
   0.91924827  0.29866535  0.44802604
   0.84813110  0.32774758  0.11683148
   0.78689351  0.38152641  0.79303473
   0.72402701  0.40832516  0.43253782
   0.63337011  0.47401363  0.09897149
   0.57226114  0.50566542  0.77836047
   0.49689494  0.54098287  0.43902818
   0.42151337  0.60717820  0.11313493
   0.29883646  0.15214079  0.45136741
   0.20927483  0.21575875  0.12387783
   0.13958895  0.24519507  0.78366506
   0.08588369  0.29802661  0.43420537
   0.00827214  0.33877042  0.13563608
   0.94315740  0.39389538  0.75513965
   0.86754715  0.42015374  0.43394111
   0.77640857  0.46961198  0.07846612
   0.72004088  0.50614576  0.77600831
   0.65964866  0.53221869  0.46186280
   0.57281917  0.60044479  0.12681247
   0.50608676  0.61699662  0.78084134
   0.33768130  0.21630832  0.12104973
   0.29268487  0.25436666  0.77646541
   0.22142479  0.27349107  0.42424724
   0.12611775  0.32708569  0.12887224
   0.07162606  0.36908744  0.79384560
   0.98999298  0.42239953  0.44683507
   0.93549540  0.47137243  0.12951320
   0.87270724  0.50340175  0.78853119
   0.79122322  0.53436717  0.45212941
   0.70096124  0.60062346  0.11132982
   0.65080716  0.62137610  0.77352105
   0.58124518  0.65452013  0.46095442
   0.43712161  0.24463623  0.77384025
   0.37412463  0.27800172  0.42207393
   0.27910485  0.33924761  0.09326716
   0.21280813  0.38250222  0.78231797
   0.15024730  0.41093127  0.43929383
   0.06549913  0.46240147  0.11525908
   0.02162782  0.51224654  0.78329501
   0.93584539  0.55261957  0.42771576
   0.85971187  0.59579479  0.10492654
   0.77230043  0.62707095  0.75820930
   0.71259782  0.65707246  0.43580799
   0.63895997  0.70725910  0.10957227
   0.14629848  0.50889908  0.76904679
   0.07921989  0.52330212  0.46521548
   0.99122834  0.59832062  0.11212882
   0.92543749  0.63250074  0.77925192
   0.84469316  0.66408112  0.45473396
   0.77785905  0.71646764  0.11632780
   0.71834006  0.75377989  0.78271241
   0.22329304  0.53347505  0.44511609
   0.13013807  0.59599404  0.09960380
   0.06485223  0.62701597  0.79521647
   0.99519614  0.64383139  0.45812228
   0.92474379  0.70562083  0.10823121
   0.85853707  0.75646798  0.76064717
   0.77622527  0.79682579  0.45896959
   0.28340664  0.58944528  0.10282375
   0.22833451  0.62320348  0.77426585
   0.13758682  0.67012470  0.45400072
   0.05728119  0.70930119  0.12058601
   0.01293474  0.75061863  0.76924804
   0.92010026  0.78603542  0.46372986
   0.85412239  0.83791621  0.11330465
   0.36919290  0.61945394  0.78351962
   0.29349397  0.65259258  0.44702465
   0.20326571  0.70982733  0.10952203
   0.14645973  0.75747982  0.78425769
   0.09430282  0.76773925  0.46880585
   0.00370661  0.83387181  0.11382762
   0.93266411  0.86962851  0.78538257
   0.44105468  0.66303824  0.45725058
   0.34647211  0.72019790  0.11328999
   0.28284644  0.75603262  0.75537175
   0.21693076  0.78666585  0.44555595
   0.14498818  0.82722666  0.11303573
   0.08087336  0.87269437  0.77947961
   0.99749589  0.91198132  0.46167117
   0.93545917  0.95404530  0.09557222
   0.86414138  0.00019158  0.80490942
   0.78606963  0.04313932  0.43243444
   0.68028711  0.08423999  0.09537566
   0.64254260  0.12824890  0.79928499
   0.58971797  0.16321984  0.43726485
   0.47977692  0.22525006  0.10418978
   0.06792296  0.96042681  0.11083326
   0.12686985  0.00517692  0.77022538
   0.21772965  0.03954980  0.44981467
   0.25987093  0.08569920  0.12058913
   0.35686877  0.12998100  0.76929376
   0.45426533  0.17748076  0.43809903
   0.84681407  0.92565144  0.44863485
   0.77114195  0.95311522  0.09640008
   0.70573893  0.99695122  0.80083897
   0.64940256  0.04469693  0.42852477
   0.54461258  0.08688563  0.09212867
   0.49733079  0.13449714  0.77225831
   0.12989276  0.91393101  0.46981397
   0.19043811  0.96337601  0.11544268
   0.29009115  0.00674569  0.77453563
   0.36022435  0.05166609  0.43714404
   0.40662611  0.08342200  0.12727955
   0.79000372  0.86455398  0.78981586
   0.70224208  0.92804905  0.45270155
   0.62108420  0.95948146  0.08704666
   0.55873641  0.98710474  0.77261624
   0.49518144  0.02935086  0.43759109
   0.22223541  0.87518512  0.78029951
   0.28496658  0.92273865  0.43645415
   0.35058415  0.95721429  0.10209168
   0.42394009  0.01261808  0.76273424
   0.69091263  0.83990807  0.10329749
   0.64773205  0.87151970  0.76946888
   0.56512597  0.92104899  0.46067771
   0.47951266  0.97293717  0.09559816
   0.27897630  0.83228348  0.10831877
   0.36766285  0.88054461  0.78870017
   0.41577105  0.90838422  0.45406402
   0.64183526  0.79368550  0.45139690
   0.55103215  0.85408836  0.11067129
   0.50459782  0.87598033  0.77060029
   0.35988662  0.77976169  0.43297068
   0.41971120  0.83202729  0.10599034
   0.58043067  0.75039011  0.76295873
   0.49195133  0.78709848  0.42356965
   0.43730190  0.74654408  0.75003227
   0.50313813  0.73000845  0.12570972
   0.99940441  0.00175474  0.22166304
   0.93671764  0.03096601  0.88335922
   0.85467514  0.09935421  0.54024231
   0.75725596  0.12563180  0.18792418
   0.71951339  0.17036754  0.90095536
   0.67132890  0.19716160  0.55193405
   0.55404706  0.25155186  0.23177584
   0.51283977  0.29397881  0.91191656
   0.43451730  0.31971157  0.53658096
   0.35430799  0.37715063  0.20811549
   0.28853888  0.43084727  0.89510008
   0.21999271  0.44631604  0.55313278
   0.08093351  0.04353516  0.89297736
   0.99263987  0.09295776  0.55188693
   0.90818537  0.10458943  0.22110394
   0.86264243  0.16263514  0.89858352
   0.78710410  0.21508195  0.54888874
   0.69262068  0.25494054  0.21250114
   0.65280110  0.30059920  0.90315528
   0.59092837  0.32202629  0.55356908
   0.48445492  0.36787941  0.22895737
   0.43903557  0.41796426  0.88323531
   0.35677244  0.44046932  0.54941686
   0.27999262  0.51328181  0.23085873
   0.14510311  0.06813134  0.54643094
   0.05491284  0.10779866  0.22504181
   0.00822326  0.16334140  0.89427386
   0.93001951  0.20855060  0.56415173
   0.84394237  0.24490217  0.20928331
   0.79415483  0.28765822  0.91256781
   0.72251055  0.33250905  0.56646612
   0.62721321  0.37644280  0.22483329
   0.58946886  0.42109097  0.90599028
   0.49799137  0.44622282  0.53943569
   0.43765572  0.51229941  0.22606479
   0.36086694  0.54672667  0.89244637
   0.19665355  0.12455777  0.21830275
   0.14970143  0.16318678  0.90710953
   0.08505703  0.20771807  0.55515333
   0.00739149  0.24771573  0.21818817
   0.93521059  0.29654281  0.89900602
   0.85139038  0.34286426  0.55626455
   0.77587944  0.38111222  0.21573675
   0.72031266  0.42600182  0.89916158
   0.66182582  0.44401808  0.54504315
   0.57331975  0.51340596  0.21100464
   0.50558888  0.53725772  0.88623293
   0.43674157  0.56679775  0.55370212
   0.28608068  0.15900844  0.90572736
   0.21058679  0.20461380  0.54522723
   0.14208052  0.25036632  0.22839352
   0.07825195  0.29767244  0.92289342
   0.00339296  0.32066217  0.54832300
   0.92808067  0.36697742  0.23826719
   0.85864592  0.41746432  0.90355071
   0.78185333  0.44606500  0.55141365
   0.70761616  0.52591901  0.22031132
   0.65340508  0.52787970  0.88586556
   0.57678408  0.57129847  0.54704105
   0.49619260  0.63725887  0.23531639
   0.37151663  0.19388854  0.57002200
   0.26374405  0.25365568  0.21746663
   0.21255363  0.30075383  0.88414050
   0.15758302  0.33677406  0.54294066
   0.06964929  0.38577029  0.22180985
   0.00648329  0.41410160  0.90997181
   0.91441676  0.45801950  0.54673655
   0.84929623  0.51281984  0.20781955
   0.78006439  0.54698176  0.89735864
   0.71840492  0.56303590  0.55460107
   0.64752860  0.63471941  0.23284268
   0.57526646  0.65745107  0.88521838
   0.41213522  0.24947580  0.20894361
   0.36116197  0.29205303  0.90474085
   0.29135644  0.32032750  0.55450534
   0.19902360  0.37794423  0.21962421
   0.14710258  0.43360959  0.89257109
   0.06419069  0.45005751  0.54850506
   0.98413887  0.50531349  0.20975668
   0.93632272  0.52952802  0.89369402
   0.85966475  0.56437906  0.54750675
   0.79154851  0.62624737  0.23278354
   0.71018891  0.65368630  0.89104786
   0.64843539  0.69780820  0.54762070
   0.12731737  0.52003119  0.20855022
   0.06597638  0.55402284  0.91253726
   0.00759325  0.57835434  0.56691319
   0.93266826  0.63461755  0.21618202
   0.85853902  0.65023112  0.89622805
   0.77753793  0.68922829  0.55978424
   0.71458131  0.75171219  0.22733368
   0.22186600  0.53508366  0.89259021
   0.15516877  0.57990747  0.53661640
   0.07476321  0.64720981  0.24084449
   0.00577464  0.67624312  0.88524045
   0.93045904  0.69881176  0.56877693
   0.86155759  0.74653398  0.23220205
   0.79141343  0.78291217  0.87906865
   0.29019647  0.57320521  0.55212525
   0.21748414  0.63899504  0.21781873
   0.15073523  0.67271887  0.88438010
   0.06932241  0.68519164  0.55230346
   0.98348826  0.76641846  0.22994849
   0.94417265  0.79569163  0.88305023
   0.84414056  0.83285481  0.55507472
   0.34215558  0.63492473  0.21300336
   0.30756470  0.66982575  0.86970263
   0.23052012  0.69826444  0.56060115
   0.14370170  0.75338122  0.23200295
   0.07876376  0.80184831  0.89617548
   0.00795572  0.82239177  0.54766639
   0.92730111  0.87566028  0.23360908
   0.43111211  0.65719978  0.88407758
   0.37890662  0.70444437  0.56978772
   0.28280043  0.74590716  0.23053450
   0.23454224  0.79599312  0.88061094
   0.14791015  0.83688629  0.55014140
   0.06684984  0.87918604  0.22629268
   0.00329513  0.92014902  0.86998504
   0.92467551  0.95971193  0.55572328
   0.84961850  0.99095738  0.21331517
   0.79231101  0.04459053  0.90389167
   0.73489097  0.09498594  0.56137786
   0.60287685  0.14232385  0.21788467
   0.57031959  0.17370895  0.91461046
   0.51511267  0.20857684  0.54674620
   0.07444794  0.95462836  0.53875992
   0.14979677  0.00346832  0.22410087
   0.21266901  0.04709926  0.88312377
   0.28636691  0.07696334  0.55196493
   0.33525506  0.12861133  0.21813411
   0.42031303  0.16690808  0.89962739
   0.86106140  0.90939432  0.90083003
   0.79594435  0.96471021  0.56083418
   0.71879237  0.99772723  0.20689946
   0.64103571  0.04447579  0.87113401
   0.57791985  0.08567627  0.55716648
   0.48736587  0.13201614  0.21109156
   0.15115791  0.92153564  0.88193173
   0.21864748  0.95134574  0.56423675
   0.28358024  0.00265161  0.22012769
   0.35519879  0.05597211  0.88625693
   0.43571966  0.08369491  0.54740905
   0.77509202  0.87051623  0.22145616
   0.72512341  0.89942686  0.85751726
   0.65900075  0.96976845  0.57817348
   0.56115821  0.00765023  0.21889781
   0.50483313  0.05504064  0.88980884
   0.21490303  0.86798444  0.22547421
   0.29463378  0.91033659  0.90239042
   0.35513701  0.96487466  0.54341722
   0.42495301  0.01323845  0.23204157
   0.71336901  0.83726699  0.55261765
   0.63162213  0.87215289  0.21724744
   0.58306465  0.90698785  0.86456693
   0.49153785  0.94859674  0.56299981
   0.29732759  0.84064998  0.54961336
   0.34957099  0.88802102  0.20398874
   0.45119464  0.93801085  0.87060673
   0.65332690  0.78531053  0.88020539
   0.57446282  0.82632931  0.55576248
   0.48373730  0.88345245  0.21450904
   0.36334795  0.78485612  0.87842502
   0.42840801  0.83953391  0.56129255
   0.56801919  0.75551458  0.20928284
   0.50297171  0.78664105  0.88706332
   0.42722678  0.75985222  0.23038990
   0.50584519  0.69683431  0.56169735
