 500 500   0   0
  0.2349479E+02  0.2273250E-08  0.2273250E-08  0.2273250E-08  0.5000000E-15
  1.000000000000000E-004
  CAR 
 Li                                      
      2.75095827     -3.59011992  301      0.02705310      1.00000000
     -3.590  0.0000E+00  0.0000E+00
     -3.569  0.0000E+00  0.0000E+00
     -3.548  0.0000E+00  0.0000E+00
     -3.527  0.0000E+00  0.0000E+00
     -3.506  0.0000E+00  0.0000E+00
     -3.484  0.0000E+00  0.0000E+00
     -3.463  0.1576E-13  0.3331E-15
     -3.442  0.3432E-10  0.7258E-12
     -3.421  0.3066E-07  0.6488E-09
     -3.400  0.1037E-04  0.2199E-06
     -3.379  0.1337E-02  0.2848E-04
     -3.358  0.6621E-01  0.1428E-02
     -3.336  0.1273E+01  0.2834E-01
     -3.315  0.9618E+01  0.2316E+00
     -3.294  0.2886E+02  0.8417E+00
     -3.273  0.3467E+02  0.1574E+01
     -3.252  0.1687E+02  0.1931E+01
     -3.231  0.6245E+01  0.2063E+01
     -3.210  0.2218E+02  0.2532E+01
     -3.189  0.6983E+02  0.4008E+01
     -3.167  0.1006E+03  0.6134E+01
     -3.146  0.6618E+02  0.7533E+01
     -3.125  0.2119E+02  0.7981E+01
     -3.104  0.1682E+02  0.8337E+01
     -3.083  0.5478E+02  0.9494E+01
     -3.062  0.9676E+02  0.1154E+02
     -3.041  0.8041E+02  0.1324E+02
     -3.019  0.3243E+02  0.1392E+02
     -2.998  0.2028E+02  0.1435E+02
     -2.977  0.5712E+02  0.1556E+02
     -2.956  0.1071E+03  0.1782E+02
     -2.935  0.1113E+03  0.2018E+02
     -2.914  0.6636E+02  0.2158E+02
     -2.893  0.3355E+02  0.2229E+02
     -2.871  0.5811E+02  0.2352E+02
     -2.850  0.1249E+03  0.2615E+02
     -2.829  0.1647E+03  0.2964E+02
     -2.808  0.1279E+03  0.3234E+02
     -2.787  0.6096E+02  0.3363E+02
     -2.766  0.2983E+02  0.3426E+02
     -2.745  0.5494E+02  0.3542E+02
     -2.724  0.9502E+02  0.3743E+02
     -2.702  0.8181E+02  0.3916E+02
     -2.681  0.3806E+02  0.3996E+02
     -2.660  0.3484E+02  0.4070E+02
     -2.639  0.8575E+02  0.4251E+02
     -2.618  0.1445E+03  0.4557E+02
     -2.597  0.1548E+03  0.4884E+02
     -2.576  0.1084E+03  0.5113E+02
     -2.554  0.6897E+02  0.5259E+02
     -2.533  0.9663E+02  0.5463E+02
     -2.512  0.1673E+03  0.5817E+02
     -2.491  0.2097E+03  0.6260E+02
     -2.470  0.1846E+03  0.6650E+02
     -2.449  0.1143E+03  0.6892E+02
     -2.428  0.5435E+02  0.7007E+02
     -2.406  0.5557E+02  0.7124E+02
     -2.385  0.9152E+02  0.7317E+02
     -2.364  0.8616E+02  0.7500E+02
     -2.343  0.4538E+02  0.7595E+02
     -2.322  0.4429E+02  0.7689E+02
     -2.301  0.1036E+03  0.7908E+02
     -2.280  0.1682E+03  0.8264E+02
     -2.258  0.1759E+03  0.8635E+02
     -2.237  0.1200E+03  0.8889E+02
     -2.216  0.7272E+02  0.9043E+02
     -2.195  0.1029E+03  0.9260E+02
     -2.174  0.1751E+03  0.9630E+02
     -2.153  0.2118E+03  0.1008E+03
     -2.132  0.1867E+03  0.1047E+03
     -2.111  0.1160E+03  0.1072E+03
     -2.089  0.6766E+02  0.1086E+03
     -2.068  0.9703E+02  0.1107E+03
     -2.047  0.1530E+03  0.1139E+03
     -2.026  0.1562E+03  0.1172E+03
     -2.005  0.1085E+03  0.1195E+03
     -1.984  0.8942E+02  0.1214E+03
     -1.963  0.1343E+03  0.1242E+03
     -1.941  0.1905E+03  0.1282E+03
     -1.920  0.2041E+03  0.1326E+03
     -1.899  0.1581E+03  0.1359E+03
     -1.878  0.9910E+02  0.1380E+03
     -1.857  0.1050E+03  0.1402E+03
     -1.836  0.1754E+03  0.1439E+03
     -1.815  0.2229E+03  0.1486E+03
     -1.793  0.1937E+03  0.1527E+03
     -1.772  0.1153E+03  0.1552E+03
     -1.751  0.6941E+02  0.1566E+03
     -1.730  0.1031E+03  0.1588E+03
     -1.709  0.1553E+03  0.1621E+03
     -1.688  0.1498E+03  0.1653E+03
     -1.667  0.1003E+03  0.1674E+03
     -1.646  0.8149E+02  0.1691E+03
     -1.624  0.1199E+03  0.1716E+03
     -1.603  0.1451E+03  0.1747E+03
     -1.582  0.1280E+03  0.1774E+03
     -1.561  0.1037E+03  0.1796E+03
     -1.540  0.1167E+03  0.1821E+03
     -1.519  0.1924E+03  0.1861E+03
     -1.498  0.2764E+03  0.1920E+03
     -1.476  0.3064E+03  0.1985E+03
     -1.455  0.2727E+03  0.2042E+03
     -1.434  0.1953E+03  0.2083E+03
     -1.413  0.1435E+03  0.2114E+03
     -1.392  0.1692E+03  0.2150E+03
     -1.371  0.2100E+03  0.2194E+03
     -1.350  0.2003E+03  0.2236E+03
     -1.328  0.1433E+03  0.2267E+03
     -1.307  0.9282E+02  0.2286E+03
     -1.286  0.1042E+03  0.2308E+03
     -1.265  0.1553E+03  0.2341E+03
     -1.244  0.1799E+03  0.2379E+03
     -1.223  0.1540E+03  0.2412E+03
     -1.202  0.1438E+03  0.2442E+03
     -1.181  0.1957E+03  0.2483E+03
     -1.159  0.2496E+03  0.2536E+03
     -1.138  0.2491E+03  0.2589E+03
     -1.117  0.1937E+03  0.2630E+03
     -1.096  0.1108E+03  0.2653E+03
     -1.075  0.6619E+02  0.2667E+03
     -1.054  0.8474E+02  0.2685E+03
     -1.033  0.9717E+02  0.2706E+03
     -1.011  0.8213E+02  0.2723E+03
     -0.990  0.1085E+03  0.2746E+03
     -0.969  0.1865E+03  0.2785E+03
     -0.948  0.2618E+03  0.2841E+03
     -0.927  0.2980E+03  0.2904E+03
     -0.906  0.2868E+03  0.2964E+03
     -0.885  0.2477E+03  0.3017E+03
     -0.863  0.2201E+03  0.3063E+03
     -0.842  0.2282E+03  0.3111E+03
     -0.821  0.2661E+03  0.3168E+03
     -0.800  0.2860E+03  0.3228E+03
     -0.779  0.2510E+03  0.3281E+03
     -0.758  0.1944E+03  0.3322E+03
     -0.737  0.1576E+03  0.3356E+03
     -0.715  0.1401E+03  0.3385E+03
     -0.694  0.1383E+03  0.3414E+03
     -0.673  0.1356E+03  0.3443E+03
     -0.652  0.1543E+03  0.3476E+03
     -0.631  0.2055E+03  0.3519E+03
     -0.610  0.2380E+03  0.3569E+03
     -0.589  0.2242E+03  0.3617E+03
     -0.568  0.1796E+03  0.3655E+03
     -0.546  0.1537E+03  0.3687E+03
     -0.525  0.1816E+03  0.3726E+03
     -0.504  0.2381E+03  0.3776E+03
     -0.483  0.2731E+03  0.3834E+03
     -0.462  0.2758E+03  0.3892E+03
     -0.441  0.2503E+03  0.3945E+03
     -0.420  0.2139E+03  0.3990E+03
     -0.398  0.2062E+03  0.4034E+03
     -0.377  0.2159E+03  0.4079E+03
     -0.356  0.2012E+03  0.4122E+03
     -0.335  0.1693E+03  0.4158E+03
     -0.314  0.1639E+03  0.4192E+03
     -0.293  0.1966E+03  0.4234E+03
     -0.272  0.2364E+03  0.4284E+03
     -0.250  0.2578E+03  0.4338E+03
     -0.229  0.2532E+03  0.4392E+03
     -0.208  0.2290E+03  0.4440E+03
     -0.187  0.2201E+03  0.4487E+03
     -0.166  0.2338E+03  0.4536E+03
     -0.145  0.2340E+03  0.4586E+03
     -0.124  0.2078E+03  0.4629E+03
     -0.103  0.1742E+03  0.4666E+03
     -0.081  0.1794E+03  0.4704E+03
     -0.060  0.2329E+03  0.4753E+03
     -0.039  0.2796E+03  0.4813E+03
     -0.018  0.2902E+03  0.4874E+03
      0.003  0.2865E+03  0.4934E+03
      0.024  0.2759E+03  0.4993E+03
      0.045  0.2479E+03  0.5045E+03
      0.067  0.2181E+03  0.5091E+03
      0.088  0.2165E+03  0.5137E+03
      0.109  0.2471E+03  0.5189E+03
      0.130  0.2790E+03  0.5248E+03
      0.151  0.3002E+03  0.5312E+03
      0.172  0.3215E+03  0.5380E+03
      0.193  0.3294E+03  0.5449E+03
      0.215  0.3220E+03  0.5517E+03
      0.236  0.3147E+03  0.5584E+03
      0.257  0.3125E+03  0.5650E+03
      0.278  0.3099E+03  0.5715E+03
      0.299  0.2965E+03  0.5778E+03
      0.320  0.2756E+03  0.5836E+03
      0.341  0.2529E+03  0.5890E+03
      0.362  0.2321E+03  0.5939E+03
      0.384  0.2168E+03  0.5985E+03
      0.405  0.2161E+03  0.6030E+03
      0.426  0.2268E+03  0.6078E+03
      0.447  0.2294E+03  0.6127E+03
      0.468  0.2212E+03  0.6173E+03
      0.489  0.2159E+03  0.6219E+03
      0.510  0.2119E+03  0.6264E+03
      0.532  0.1998E+03  0.6306E+03
      0.553  0.1844E+03  0.6345E+03
      0.574  0.1800E+03  0.6383E+03
      0.595  0.1941E+03  0.6424E+03
      0.616  0.2215E+03  0.6471E+03
      0.637  0.2421E+03  0.6522E+03
      0.658  0.2497E+03  0.6575E+03
      0.680  0.2622E+03  0.6630E+03
      0.701  0.2781E+03  0.6689E+03
      0.722  0.2805E+03  0.6748E+03
      0.743  0.2788E+03  0.6807E+03
      0.764  0.2836E+03  0.6867E+03
      0.785  0.2805E+03  0.6927E+03
      0.806  0.2668E+03  0.6983E+03
      0.827  0.2601E+03  0.7038E+03
      0.849  0.2574E+03  0.7092E+03
      0.870  0.2453E+03  0.7144E+03
      0.891  0.2305E+03  0.7193E+03
      0.912  0.2231E+03  0.7240E+03
      0.933  0.2261E+03  0.7288E+03
      0.954  0.2403E+03  0.7339E+03
      0.975  0.2492E+03  0.7391E+03
      0.997  0.2512E+03  0.7444E+03
      1.018  0.2443E+03  0.7496E+03
      1.039  0.2213E+03  0.7543E+03
      1.060  0.2070E+03  0.7587E+03
      1.081  0.2083E+03  0.7631E+03
      1.102  0.2003E+03  0.7673E+03
      1.123  0.1799E+03  0.7711E+03
      1.145  0.1655E+03  0.7746E+03
      1.166  0.1617E+03  0.7780E+03
      1.187  0.1571E+03  0.7813E+03
      1.208  0.1497E+03  0.7845E+03
      1.229  0.1507E+03  0.7877E+03
      1.250  0.1584E+03  0.7910E+03
      1.271  0.1690E+03  0.7946E+03
      1.293  0.1782E+03  0.7984E+03
      1.314  0.1877E+03  0.8023E+03
      1.335  0.2004E+03  0.8066E+03
      1.356  0.2157E+03  0.8111E+03
      1.377  0.2286E+03  0.8160E+03
      1.398  0.2374E+03  0.8210E+03
      1.419  0.2362E+03  0.8260E+03
      1.440  0.2306E+03  0.8308E+03
      1.462  0.2338E+03  0.8358E+03
      1.483  0.2323E+03  0.8407E+03
      1.504  0.2210E+03  0.8454E+03
      1.525  0.2090E+03  0.8498E+03
      1.546  0.2022E+03  0.8541E+03
      1.567  0.2036E+03  0.8584E+03
      1.588  0.1940E+03  0.8625E+03
      1.610  0.1715E+03  0.8661E+03
      1.631  0.1515E+03  0.8693E+03
      1.652  0.1456E+03  0.8724E+03
      1.673  0.1627E+03  0.8758E+03
      1.694  0.1758E+03  0.8795E+03
      1.715  0.1660E+03  0.8830E+03
      1.736  0.1566E+03  0.8863E+03
      1.758  0.1632E+03  0.8898E+03
      1.779  0.1729E+03  0.8935E+03
      1.800  0.1749E+03  0.8971E+03
      1.821  0.1726E+03  0.9008E+03
      1.842  0.1669E+03  0.9043E+03
      1.863  0.1627E+03  0.9078E+03
      1.884  0.1612E+03  0.9112E+03
      1.905  0.1593E+03  0.9145E+03
      1.927  0.1561E+03  0.9178E+03
      1.948  0.1479E+03  0.9210E+03
      1.969  0.1497E+03  0.9241E+03
      1.990  0.1596E+03  0.9275E+03
      2.011  0.1652E+03  0.9310E+03
      2.032  0.1680E+03  0.9345E+03
      2.053  0.1651E+03  0.9380E+03
      2.075  0.1571E+03  0.9414E+03
      2.096  0.1511E+03  0.9445E+03
      2.117  0.1440E+03  0.9476E+03
      2.138  0.1436E+03  0.9506E+03
      2.159  0.1565E+03  0.9539E+03
      2.180  0.1684E+03  0.9575E+03
      2.201  0.1762E+03  0.9612E+03
      2.223  0.1799E+03  0.9650E+03
      2.244  0.1804E+03  0.9688E+03
      2.265  0.1823E+03  0.9727E+03
      2.286  0.1825E+03  0.9765E+03
      2.307  0.1790E+03  0.9803E+03
      2.328  0.1680E+03  0.9839E+03
      2.349  0.1491E+03  0.9870E+03
      2.370  0.1413E+03  0.9900E+03
      2.392  0.1455E+03  0.9931E+03
      2.413  0.1473E+03  0.9962E+03
      2.434  0.1327E+03  0.9990E+03
      2.455  0.9209E+02  0.1001E+04
      2.476  0.3983E+02  0.1002E+04
      2.497  0.8859E+01  0.1002E+04
      2.518  0.8979E+00  0.1002E+04
      2.540  0.3868E-01  0.1002E+04
      2.561  0.6790E-03  0.1002E+04
      2.582  0.4728E-05  0.1002E+04
      2.603  0.1283E-07  0.1002E+04
      2.624  0.1341E-10  0.1002E+04
      2.645  0.5253E-14  0.1002E+04
      2.666  0.0000E+00  0.1002E+04
      2.688  0.0000E+00  0.1002E+04
      2.709  0.0000E+00  0.1002E+04
      2.730  0.0000E+00  0.1002E+04
      2.751  0.0000E+00  0.1002E+04
