       N       E                     dE             d eps       ncg     rms          rms(c)
DAV:   1    -0.316768132263E+03   -0.31677E+03   -0.11632E+05  4008   0.642E+02
DAV:   2    -0.871482704991E+03   -0.55471E+03   -0.50733E+03  4628   0.632E+01
DAV:   3    -0.912802706050E+03   -0.41320E+02   -0.37895E+02  5256   0.136E+01
DAV:   4    -0.914268033895E+03   -0.14653E+01   -0.14440E+01  4736   0.281E+00
DAV:   5    -0.914303426475E+03   -0.35393E-01   -0.35331E-01  4904   0.458E-01    0.950E+00
DAV:   6    -0.910987560343E+03    0.33159E+01   -0.10825E+01  4816   0.458E+00    0.785E+00
DAV:   7    -0.903324378033E+03    0.76632E+01   -0.10553E+01  5056   0.452E+00    0.492E+00
DAV:   8    -0.900440789824E+03    0.28836E+01   -0.60842E+00  4760   0.235E+00    0.241E+00
DAV:   9    -0.900078092363E+03    0.36270E+00   -0.31445E+00  4496   0.137E+00    0.129E+00
DAV:  10    -0.900156059690E+03   -0.77967E-01   -0.69582E-01  4688   0.780E-01    0.111E+00
DAV:  11    -0.900031364856E+03    0.12469E+00   -0.26515E-01  4704   0.553E-01    0.627E-01
DAV:  12    -0.900011386327E+03    0.19979E-01   -0.69403E-02  4488   0.235E-01    0.306E-01
DAV:  13    -0.900015208018E+03   -0.38217E-02   -0.23313E-02  4792   0.164E-01    0.246E-01
DAV:  14    -0.900010384439E+03    0.48236E-02   -0.11830E-02  4832   0.128E-01    0.145E-01
DAV:  15    -0.900008496648E+03    0.18878E-02   -0.36818E-03  4640   0.659E-02    0.683E-02
DAV:  16    -0.900008362153E+03    0.13450E-03   -0.16094E-03  4368   0.326E-02    0.304E-02
DAV:  17    -0.900008420494E+03   -0.58341E-04   -0.24819E-04  5208   0.190E-02    0.294E-02
DAV:  18    -0.900008305572E+03    0.11492E-03   -0.12163E-04  4952   0.137E-02    0.121E-02
DAV:  19    -0.900008296203E+03    0.93694E-05   -0.50464E-05  4568   0.698E-03
   1 F= -.90000830E+03 E0= -.89994968E+03  d E =-.117241E+00
