Li                                      
           1
    22.732500   -0.000000    0.000000
    -0.000000   22.732500    0.000000
     0.000000    0.000000   22.732500
   Li
   500
Direct configuration=     1
   0.98897648  0.00553137  0.00637698
   0.99607033  0.11198218  0.11158717
   0.00484356  0.21317865  0.20550800
   0.00482711  0.28909185  0.31916476
   0.00665339  0.38201874  0.39490041
   0.99963214  0.49198048  0.49024600
   0.00097843  0.60163670  0.61640977
   0.00105572  0.69695285  0.70254403
   0.03416440  0.81142824  0.81247599
   0.02886437  0.90703587  0.90218324
   0.12556183  0.02988401  0.10267198
   0.11061798  0.13254423  0.20735554
   0.11518690  0.21368111  0.30212539
   0.10123642  0.30764085  0.41317510
   0.08339370  0.39424500  0.51150946
   0.09443035  0.48306976  0.62435236
   0.11016557  0.58728391  0.71824665
   0.11251273  0.70064509  0.80142181
   0.11271128  0.80827715  0.90382217
   0.10873700  0.92978344  0.01692637
   0.21417028  0.97425315  0.20375818
   0.20086745  0.10020263  0.29955662
   0.19953687  0.21038857  0.43198609
   0.18727790  0.31933121  0.52995434
   0.18928960  0.42632950  0.61403090
   0.21660134  0.48226018  0.71609908
   0.21381443  0.58531327  0.79909129
   0.21091230  0.68984067  0.88890124
   0.21105337  0.82486925  0.00450077
   0.21012668  0.89751848  0.09715926
   0.29457529  0.03449422  0.31452994
   0.27899496  0.09924129  0.41417710
   0.32721677  0.20890456  0.51480443
   0.30174761  0.30336167  0.60776833
   0.30386383  0.39687494  0.68996415
   0.31674269  0.49720030  0.78875688
   0.31080039  0.58189004  0.91624225
   0.28875382  0.70056210  0.98774294
   0.28670919  0.76720244  0.09405739
   0.31228374  0.89847816  0.20252612
   0.42478587  0.00893988  0.40557308
   0.41528980  0.09366216  0.49453419
   0.41319805  0.18381074  0.59505843
   0.38865594  0.28223641  0.68898221
   0.43102810  0.40741094  0.77306291
   0.41585139  0.49718243  0.89478106
   0.41891465  0.61831085  0.00920573
   0.41127914  0.70075015  0.12629686
   0.38448909  0.77760403  0.22999294
   0.37558701  0.90017477  0.32745467
   0.51163293  0.01004494  0.50609394
   0.49625898  0.10511318  0.60160780
   0.51558458  0.20289804  0.69258396
   0.50361976  0.30654458  0.80102720
   0.51510830  0.40187416  0.90721201
   0.49079787  0.50374554  0.99841177
   0.50581524  0.59849399  0.10511536
   0.49267655  0.69398307  0.19321394
   0.49468032  0.79504328  0.30615478
   0.50444701  0.91039195  0.37315136
   0.60519938  0.99675004  0.57910259
   0.60911158  0.09498775  0.70616088
   0.60433654  0.19722206  0.79576862
   0.59476986  0.29183438  0.91423682
   0.60342416  0.39170695  0.01907005
   0.59662354  0.50385290  0.09442017
   0.60837152  0.60069715  0.18557764
   0.58043406  0.67675961  0.30170237
   0.60037270  0.79178340  0.39559750
   0.58341933  0.90905128  0.49484642
   0.70028614  0.98986968  0.70047629
   0.70642322  0.09535899  0.80975454
   0.69323342  0.18265053  0.91040139
   0.69364527  0.28119416  0.98800188
   0.70702150  0.40810062  0.09415750
   0.70056078  0.50915433  0.19574840
   0.71749687  0.58996592  0.30180973
   0.69448834  0.69530660  0.39535971
   0.69044194  0.80107948  0.49580780
   0.69376845  0.89300902  0.60473592
   0.79292798  0.99000248  0.79330030
   0.80528890  0.06635016  0.90021296
   0.77459694  0.20591085  0.98996023
   0.78382562  0.29575359  0.10571237
   0.78982424  0.40771047  0.20034343
   0.81154100  0.49553589  0.29650242
   0.83037693  0.59341238  0.39678979
   0.79844846  0.70987120  0.48506716
   0.79963264  0.80163398  0.60090058
   0.79098675  0.88233244  0.70506503
   0.91018129  0.00922316  0.90120608
   0.89404261  0.10592348  0.01016197
   0.88349568  0.22782680  0.10655129
   0.90103295  0.31906346  0.19594687
   0.88663689  0.38399890  0.29372681
   0.91929677  0.49128033  0.38662017
   0.90832592  0.60874280  0.48182263
   0.90242511  0.69484446  0.61139180
   0.89043369  0.79405519  0.71599678
   0.89136404  0.88280327  0.80091592
   0.11626293  0.09807496  0.01795600
   0.10454357  0.19802443  0.10322011
   0.11858562  0.28316795  0.19348849
   0.09144087  0.40768475  0.30048389
   0.08575284  0.49973446  0.37247169
   0.07382991  0.58853989  0.48907204
   0.10249839  0.70142019  0.61364500
   0.12084761  0.81872916  0.70703721
   0.12502014  0.90235347  0.81985335
   0.11211468  0.99890249  0.88467403
   0.23933332  0.09312925  0.11868111
   0.21149650  0.20982369  0.20332369
   0.19553964  0.29211610  0.30658167
   0.17343391  0.38768510  0.39826475
   0.18126772  0.49394495  0.50027192
   0.18010806  0.58403373  0.60728737
   0.20482999  0.68583906  0.69177412
   0.19435825  0.79775289  0.80409474
   0.22014043  0.91181789  0.90534663
   0.24009038  0.99888238  0.99170713
   0.31107439  0.08850300  0.21037522
   0.29646375  0.19642112  0.31014939
   0.28927403  0.30421183  0.40040730
   0.28888600  0.38986659  0.49209460
   0.30771382  0.50629830  0.59984903
   0.30876399  0.62146188  0.68835811
   0.30118916  0.71310955  0.80218715
   0.29851957  0.80309756  0.88755912
   0.32886175  0.88166483  0.97991171
   0.32563399  0.97755833  0.11803734
   0.40645663  0.09433969  0.31185755
   0.40509869  0.21767640  0.41513392
   0.42483957  0.30367002  0.52512351
   0.39892021  0.38419856  0.59829847
   0.40948129  0.50755797  0.68180397
   0.39353317  0.60635597  0.78507145
   0.38034145  0.71968003  0.88510291
   0.40826908  0.79876706  0.99731424
   0.42503265  0.88935783  0.10989428
   0.38887386  0.01509882  0.21115031
   0.52756245  0.11584803  0.40748508
   0.52524460  0.20829713  0.49846549
   0.52441657  0.30582984  0.59480563
   0.51371939  0.40071915  0.69998781
   0.50039146  0.50067720  0.80863840
   0.48864102  0.62514252  0.92359973
   0.50756325  0.69991590  0.01160881
   0.50863527  0.80432480  0.09967428
   0.48974513  0.91152802  0.23361925
   0.51795848  0.03714600  0.30859320
   0.62672815  0.08810551  0.50536255
   0.63033161  0.19348899  0.61158861
   0.59603538  0.30350618  0.70339942
   0.60230276  0.41053050  0.82949844
   0.60361732  0.52425646  0.92398901
   0.59253173  0.58648763  0.01311275
   0.60926425  0.69404022  0.11601548
   0.58671416  0.80805985  0.21756989
   0.62246577  0.91783690  0.31982234
   0.59690061  0.01719519  0.41186595
   0.72475684  0.09397856  0.60825851
   0.68706252  0.21866852  0.73262842
   0.68836495  0.29352202  0.80887600
   0.69200239  0.40498247  0.92314541
   0.68620755  0.51430563  0.00803434
   0.69585463  0.60543253  0.13319800
   0.69754857  0.70565645  0.21661935
   0.68006318  0.78247294  0.29321707
   0.69560596  0.90479019  0.39476361
   0.70171044  0.00008917  0.49048408
   0.80032014  0.13413265  0.74180436
   0.81766019  0.19541962  0.83743418
   0.77030607  0.29946710  0.92785690
   0.79660255  0.40767143  0.00055932
   0.79723591  0.51401178  0.09062656
   0.79188560  0.59179255  0.20443117
   0.79790499  0.71267529  0.31224993
   0.79379943  0.80098984  0.39069477
   0.79468350  0.90013092  0.51274497
   0.80692033  0.01092941  0.61265007
   0.90217073  0.10730185  0.80073506
   0.89033113  0.20120803  0.92164469
   0.89595156  0.29316533  0.00708437
   0.88422789  0.38925189  0.09728964
   0.91592289  0.50204069  0.19856349
   0.91423172  0.59524490  0.28717874
   0.91199013  0.69707778  0.40059420
   0.89934921  0.79176917  0.51937848
   0.89511393  0.90833781  0.60839111
   0.89702042  0.99527371  0.71953470
   0.01582191  0.10368660  0.89975188
   0.00548886  0.19261810  0.99367367
   0.01498532  0.29579007  0.08327691
   0.00994773  0.40045335  0.19969312
   0.99926684  0.49970494  0.28778475
   0.00421623  0.58331616  0.40463156
   0.99928353  0.70850698  0.49903174
   0.99942329  0.82192565  0.61692296
   0.01146639  0.90173366  0.72818768
   0.00249606  0.01629090  0.79734220
   0.21311360  0.19943023  0.99020511
   0.20612048  0.28846978  0.09426327
   0.21413046  0.39954102  0.20470094
   0.17842047  0.51293513  0.29069334
   0.17499473  0.59141775  0.38739962
   0.17841147  0.70244875  0.47729993
   0.20861636  0.79493003  0.58714745
   0.19826403  0.89768350  0.69591961
   0.21955593  0.99183802  0.79920833
   0.22445556  0.10089121  0.89515549
   0.30395092  0.20782042  0.06998191
   0.29594945  0.28993851  0.19414947
   0.28571398  0.39912251  0.30305260
   0.26724871  0.48408331  0.40362726
   0.29176075  0.58454654  0.48286526
   0.31881226  0.69143285  0.57525134
   0.29152507  0.81305766  0.68075305
   0.30512348  0.90621234  0.79228343
   0.31200858  0.00292460  0.89786794
   0.32154764  0.09174738  0.98721359
   0.38202936  0.22028150  0.19899194
   0.41237494  0.30512595  0.28942903
   0.39408160  0.39700092  0.40093618
   0.39363526  0.48611497  0.48820846
   0.42277031  0.60947462  0.59738368
   0.38869997  0.70813804  0.70133955
   0.39710319  0.80687641  0.78843868
   0.40029531  0.88645133  0.88446440
   0.39831056  0.98696822  0.01732163
   0.37881593  0.09804619  0.11696134
   0.50308663  0.19041101  0.29524666
   0.52811941  0.28841411  0.38521079
   0.52343080  0.38952179  0.50105855
   0.52218279  0.51339734  0.60187503
   0.52694063  0.59259317  0.70753869
   0.50393306  0.69360453  0.79284138
   0.49638306  0.77137131  0.87806487
   0.50652777  0.89717803  0.97836325
   0.48746765  0.99029144  0.10865685
   0.50908449  0.10633108  0.20551530
   0.61469323  0.19750857  0.40841796
   0.61283274  0.31058914  0.52003165
   0.61576453  0.40638363  0.58729083
   0.61857896  0.48853911  0.70731884
   0.59118720  0.62137290  0.81209454
   0.61092258  0.70119029  0.90319989
   0.58871086  0.80657079  0.99887126
   0.59816828  0.90972528  0.09023635
   0.57863734  0.98933520  0.20491330
   0.62003492  0.10141844  0.30116922
   0.72466222  0.19799937  0.50104795
   0.68196849  0.31305022  0.60037482
   0.71497296  0.40109681  0.70970067
   0.71806332  0.51304448  0.80801260
   0.68419371  0.60578167  0.90888786
   0.68190482  0.69396941  0.01213433
   0.68942345  0.80899313  0.12892041
   0.69376977  0.90880961  0.20195193
   0.69409245  0.99178399  0.29462923
   0.72404001  0.09091597  0.40338751
   0.77820639  0.19957015  0.62774719
   0.80040320  0.29111603  0.73175085
   0.76552171  0.39487790  0.83063923
   0.78592599  0.50917011  0.91413773
   0.79213259  0.59001168  0.99459220
   0.75751562  0.68665026  0.08886252
   0.79924457  0.82337748  0.20077160
   0.79763990  0.88910227  0.28199020
   0.80983258  0.98925267  0.37156660
   0.81391146  0.07302094  0.49631125
   0.90126690  0.20321409  0.69886547
   0.89195502  0.30510010  0.82059327
   0.89660258  0.37879370  0.89775371
   0.90895634  0.49148469  0.98097135
   0.89770173  0.61866266  0.08016390
   0.87574050  0.71255154  0.18279856
   0.90329071  0.79255971  0.28366416
   0.90483890  0.88582183  0.40035193
   0.88727739  0.99796874  0.49884478
   0.88652076  0.07990094  0.60731676
   0.98828540  0.21872791  0.80781649
   0.99227559  0.31305694  0.88585353
   0.01301491  0.37412900  0.00916644
   0.98830854  0.49659965  0.07224928
   0.00673346  0.60633983  0.17648268
   0.00246536  0.71089562  0.28898511
   0.00134374  0.80182752  0.38885722
   0.98539832  0.91511968  0.48075583
   0.99521735  0.97469191  0.62729539
   0.00290189  0.10601062  0.71467366
   0.12027013  0.19997045  0.91481547
   0.09493425  0.27339779  0.99759375
   0.11735864  0.39973278  0.08847795
   0.08355734  0.49579329  0.18020273
   0.09145878  0.59907174  0.28487495
   0.07822860  0.70539073  0.37926961
   0.07508160  0.80795916  0.48430621
   0.10976742  0.90229531  0.59461279
   0.10513710  0.01472721  0.70104346
   0.12613121  0.11015482  0.80945147
   0.29078063  0.30601306  0.99702264
   0.29591926  0.39411980  0.07831308
   0.29931215  0.49226970  0.18080991
   0.26498306  0.56929215  0.28296572
   0.28867111  0.69587335  0.39205200
   0.30380310  0.78859041  0.48676865
   0.31007571  0.93350401  0.58704188
   0.30276068  0.01635151  0.68681186
   0.31272016  0.09081036  0.79840259
   0.29907579  0.20335754  0.89656259
   0.40785669  0.28446310  0.10602178
   0.39018937  0.40235983  0.19192322
   0.38626560  0.50674063  0.29584557
   0.39854262  0.59690739  0.38446255
   0.41464592  0.68985659  0.48907718
   0.39403216  0.78332822  0.57297760
   0.40192781  0.90587833  0.71349936
   0.40335950  0.00534215  0.79279194
   0.37406345  0.11202265  0.90103046
   0.39075228  0.21389166  0.00811194
   0.48827559  0.31604216  0.21368409
   0.50881686  0.41142584  0.29175395
   0.50228099  0.48236103  0.38325566
   0.50665239  0.58730305  0.47896716
   0.52979907  0.69510817  0.59280012
   0.49585297  0.78591130  0.69852892
   0.51268024  0.90123908  0.81376102
   0.48169956  0.01121652  0.89874683
   0.48777528  0.09114667  0.00434584
   0.50666888  0.18530427  0.10938228
   0.59721053  0.31722999  0.29468902
   0.60098498  0.41178768  0.39282120
   0.61485500  0.51407539  0.49948789
   0.63050476  0.59742255  0.60382923
   0.62363659  0.67135223  0.70551584
   0.58494366  0.78238221  0.78079078
   0.58462930  0.89024567  0.89984029
   0.61613646  0.99503695  0.98066809
   0.58741565  0.06824076  0.07705641
   0.59508074  0.20969387  0.20028959
   0.69986511  0.31606828  0.39158988
   0.72018469  0.42261406  0.49694477
   0.72205806  0.49732566  0.60679767
   0.71967198  0.59112533  0.67785648
   0.69126050  0.71500432  0.80075810
   0.69711336  0.79989412  0.88595131
   0.67888944  0.89401422  0.00254655
   0.69302686  0.99772401  0.09336744
   0.70993586  0.08051712  0.18661030
   0.68866034  0.18545582  0.29730373
   0.78542324  0.31901672  0.51554546
   0.80794863  0.38465765  0.60063455
   0.81658431  0.50239162  0.71372267
   0.81601677  0.61797998  0.79784743
   0.77682833  0.71052547  0.89599973
   0.77874276  0.80002033  0.00281459
   0.80985454  0.90449186  0.10938916
   0.81865032  0.98481284  0.19237942
   0.79857340  0.09917342  0.29274166
   0.78637804  0.18698813  0.37112864
   0.87052397  0.30865270  0.60557004
   0.88764298  0.40490695  0.72260290
   0.88898466  0.49038487  0.83668627
   0.88253291  0.61674187  0.91164085
   0.88071409  0.70462913  0.00001412
   0.89059434  0.81031777  0.10407595
   0.91311099  0.90931455  0.19979357
   0.88724493  0.00525678  0.27598799
   0.89623777  0.12099421  0.40730165
   0.86440993  0.18854195  0.50979967
   0.97885896  0.31720572  0.72973749
   0.99870088  0.39806224  0.80119921
   0.98914853  0.49521961  0.90558426
   0.98829875  0.62617113  0.99392152
   0.01905907  0.74035701  0.09983375
   0.99425348  0.79867712  0.20788116
   0.99812228  0.89819046  0.29659163
   0.99643596  0.00384250  0.37050867
   0.98603199  0.09050037  0.50326809
   0.99145081  0.21567565  0.62211359
   0.09425324  0.28216367  0.80096705
   0.09531713  0.39170783  0.90055002
   0.09564144  0.51140717  0.98279338
   0.11201095  0.60149562  0.08079603
   0.11333353  0.70720171  0.19122621
   0.08234259  0.81061316  0.27890589
   0.09355225  0.89672450  0.39448024
   0.07519234  0.98633915  0.51145825
   0.09374144  0.09632558  0.58620021
   0.10318450  0.18744174  0.67665365
   0.21606105  0.30736537  0.89325033
   0.19540646  0.41118455  0.99810115
   0.20516388  0.48361213  0.08150595
   0.18182811  0.60749991  0.18426605
   0.18892036  0.69309685  0.30010095
   0.19628814  0.80274545  0.40130431
   0.20455115  0.90005199  0.50468590
   0.18664955  0.00692955  0.61024490
   0.20195476  0.10089678  0.70109718
   0.21201999  0.21924015  0.80411177
   0.38700629  0.40375919  0.00180089
   0.39997047  0.50029878  0.09552183
   0.39943802  0.59813907  0.20121429
   0.36367553  0.67685224  0.29679087
   0.40931453  0.77514688  0.38479155
   0.40149232  0.88995476  0.47837997
   0.40158632  0.00825413  0.57706715
   0.39528265  0.10145063  0.70839770
   0.40766754  0.18998683  0.79613523
   0.39140636  0.32238049  0.89151971
   0.49841860  0.38923727  0.09408563
   0.48822192  0.50205664  0.21043949
   0.50635835  0.59979053  0.30426746
   0.49703680  0.66851996  0.39780394
   0.49586874  0.80344121  0.48828599
   0.50747707  0.89033408  0.61001154
   0.48506116  0.98119827  0.69709261
   0.48589833  0.09768001  0.80242242
   0.49220651  0.21850700  0.88930105
   0.49885533  0.27709837  0.97742821
   0.60992880  0.42404776  0.19237063
   0.59126098  0.49654854  0.29053348
   0.58604258  0.59470234  0.39351767
   0.60310235  0.70515389  0.49526149
   0.59300700  0.80206560  0.59411625
   0.59683266  0.88077325  0.70445105
   0.59299094  0.01384463  0.78021880
   0.58299986  0.09611963  0.89384979
   0.59490651  0.18335340  0.99387803
   0.58498032  0.30741112  0.10264849
   0.70736706  0.40382836  0.29285204
   0.72499910  0.50147012  0.41144947
   0.71055948  0.59136461  0.49508332
   0.71175649  0.71757882  0.60623307
   0.69713885  0.81051670  0.69543274
   0.68420387  0.85631440  0.80006926
   0.67861061  0.97763536  0.90543445
   0.70751153  0.09756763  0.99606975
   0.66084419  0.19842095  0.10637847
   0.67608068  0.31159394  0.19136152
   0.81807573  0.40555789  0.40103895
   0.82004801  0.50126065  0.50708452
   0.81313667  0.58865890  0.60689221
   0.79892089  0.69182099  0.70014477
   0.79874609  0.79984591  0.80639378
   0.78540691  0.92179579  0.92129972
   0.80448351  0.98872294  0.01078524
   0.78350541  0.10006907  0.10973980
   0.79256349  0.19848696  0.19481085
   0.77765009  0.30025698  0.29372682
   0.88296665  0.41440449  0.49019417
   0.90420432  0.50026929  0.58911650
   0.91419373  0.58256866  0.71724793
   0.89736965  0.70414061  0.80666179
   0.88890227  0.81289108  0.89572017
   0.90637929  0.91335786  0.01663740
   0.91012740  0.00245564  0.10917666
   0.90353021  0.12387449  0.20839291
   0.89702425  0.22183891  0.28073366
   0.87889238  0.30189151  0.39853812
   0.96918947  0.38707783  0.61132211
   0.99980735  0.49269274  0.70243046
   0.99866961  0.59940995  0.81638013
   0.97865599  0.71064172  0.88501605
   0.00753899  0.80532400  0.00202492
   0.99736925  0.90193474  0.11417781
   0.00070238  0.01506756  0.19311504
   0.99607769  0.09568176  0.29001930
   0.00140737  0.19994272  0.41608806
   0.97264800  0.28945546  0.49270498
   0.10117219  0.38595887  0.70797744
   0.10078411  0.50443627  0.78585997
   0.09270878  0.60561531  0.87748552
   0.10806174  0.70342267  0.97366578
   0.09959287  0.78599509  0.07858296
   0.08374876  0.88920756  0.19475109
   0.10365583  0.98884122  0.29023866
   0.10098926  0.09425846  0.39823217
   0.07126963  0.19699734  0.53421997
   0.09167760  0.30178712  0.61890912
   0.18699760  0.37482207  0.80161445
   0.20268351  0.47758184  0.85626140
   0.20435650  0.58928490  0.96544754
   0.19370908  0.69702835  0.09077251
   0.19330608  0.81047863  0.18434434
   0.20471604  0.90303198  0.30446060
   0.19137830  0.99392081  0.41798697
   0.18944061  0.09971932  0.49058677
   0.21027297  0.19751696  0.59426853
   0.21787610  0.30268464  0.68622051
   0.29601089  0.42305526  0.88830843
   0.30481066  0.50406718  0.98408014
   0.31779235  0.61775966  0.08764401
   0.28581062  0.69047541  0.18195349
   0.29510907  0.77908812  0.29950133
   0.29185552  0.90989955  0.41795032
   0.28972055  0.00611325  0.49508127
   0.30173902  0.10792495  0.59197428
   0.29531409  0.18717871  0.70113282
   0.32436925  0.29829078  0.80386355
