 432 432   0   0
  0.1915683E+02  0.2022720E-08  0.2022720E-08  0.2022720E-08  0.5000000E-15
  1.000000000000000E-004
  CAR 
 Li                                      
      3.96984233     -3.37786785  301      0.56727151      1.00000000
     -3.378  0.0000E+00  0.0000E+00
     -3.353  0.0000E+00  0.0000E+00
     -3.329  0.0000E+00  0.0000E+00
     -3.304  0.0000E+00  0.0000E+00
     -3.280  0.0000E+00  0.0000E+00
     -3.255  0.0000E+00  0.0000E+00
     -3.231  0.0000E+00  0.0000E+00
     -3.206  0.7287E-12  0.1785E-13
     -3.182  0.3053E-08  0.7478E-10
     -3.157  0.3468E-05  0.8501E-07
     -3.133  0.1079E-02  0.2651E-04
     -3.108  0.9329E-01  0.2311E-02
     -3.084  0.2291E+01  0.5844E-01
     -3.059  0.1642E+02  0.4606E+00
     -3.035  0.3522E+02  0.1323E+01
     -3.010  0.2290E+02  0.1884E+01
     -2.986  0.4546E+01  0.1995E+01
     -2.961  0.2549E+01  0.2058E+01
     -2.937  0.2430E+02  0.2653E+01
     -2.913  0.8292E+02  0.4684E+01
     -2.888  0.9430E+02  0.6993E+01
     -2.864  0.3626E+02  0.7881E+01
     -2.839  0.5149E+01  0.8007E+01
     -2.815  0.9219E+01  0.8233E+01
     -2.790  0.5265E+02  0.9523E+01
     -2.766  0.1014E+03  0.1201E+02
     -2.741  0.6593E+02  0.1362E+02
     -2.717  0.1455E+02  0.1398E+02
     -2.692  0.4785E+01  0.1409E+02
     -2.668  0.3417E+02  0.1493E+02
     -2.643  0.1075E+03  0.1757E+02
     -2.619  0.1224E+03  0.2056E+02
     -2.594  0.5086E+02  0.2181E+02
     -2.570  0.9182E+01  0.2203E+02
     -2.545  0.2253E+02  0.2259E+02
     -2.521  0.1028E+03  0.2510E+02
     -2.496  0.1843E+03  0.2962E+02
     -2.472  0.1347E+03  0.3292E+02
     -2.447  0.3978E+02  0.3389E+02
     -2.423  0.6849E+01  0.3406E+02
     -2.398  0.2505E+02  0.3467E+02
     -2.374  0.8280E+02  0.3670E+02
     -2.349  0.9366E+02  0.3899E+02
     -2.325  0.3624E+02  0.3988E+02
     -2.300  0.6305E+01  0.4004E+02
     -2.276  0.2153E+02  0.4056E+02
     -2.251  0.9943E+02  0.4300E+02
     -2.227  0.1814E+03  0.4744E+02
     -2.202  0.1380E+03  0.5082E+02
     -2.178  0.4366E+02  0.5189E+02
     -2.153  0.1770E+02  0.5232E+02
     -2.129  0.8097E+02  0.5431E+02
     -2.104  0.2110E+03  0.5947E+02
     -2.080  0.2513E+03  0.6563E+02
     -2.055  0.1409E+03  0.6908E+02
     -2.031  0.3461E+02  0.6993E+02
     -2.006  0.1028E+02  0.7018E+02
     -1.982  0.4586E+02  0.7130E+02
     -1.957  0.9848E+02  0.7372E+02
     -1.933  0.7300E+02  0.7550E+02
     -1.908  0.1921E+02  0.7597E+02
     -1.884  0.1234E+02  0.7628E+02
     -1.859  0.7097E+02  0.7801E+02
     -1.835  0.1813E+03  0.8246E+02
     -1.810  0.1978E+03  0.8730E+02
     -1.786  0.9245E+02  0.8956E+02
     -1.761  0.1979E+02  0.9005E+02
     -1.737  0.3340E+02  0.9087E+02
     -1.712  0.1338E+03  0.9414E+02
     -1.688  0.2446E+03  0.1001E+03
     -1.663  0.2160E+03  0.1054E+03
     -1.639  0.8883E+02  0.1076E+03
     -1.614  0.1809E+02  0.1080E+03
     -1.590  0.3070E+02  0.1088E+03
     -1.565  0.1178E+03  0.1117E+03
     -1.541  0.1849E+03  0.1162E+03
     -1.516  0.1202E+03  0.1192E+03
     -1.492  0.3727E+02  0.1201E+03
     -1.467  0.5141E+02  0.1213E+03
     -1.443  0.1633E+03  0.1253E+03
     -1.418  0.2485E+03  0.1314E+03
     -1.394  0.1869E+03  0.1360E+03
     -1.369  0.7031E+02  0.1377E+03
     -1.345  0.2501E+02  0.1383E+03
     -1.321  0.8797E+02  0.1405E+03
     -1.296  0.2257E+03  0.1460E+03
     -1.272  0.2512E+03  0.1522E+03
     -1.247  0.1266E+03  0.1553E+03
     -1.223  0.2957E+02  0.1560E+03
     -1.198  0.2386E+02  0.1566E+03
     -1.174  0.9667E+02  0.1589E+03
     -1.149  0.1767E+03  0.1633E+03
     -1.125  0.1398E+03  0.1667E+03
     -1.100  0.4742E+02  0.1679E+03
     -1.076  0.1292E+02  0.1682E+03
     -1.051  0.4497E+02  0.1693E+03
     -1.027  0.1152E+03  0.1721E+03
     -1.002  0.1504E+03  0.1758E+03
     -0.978  0.1194E+03  0.1787E+03
     -0.953  0.7209E+02  0.1805E+03
     -0.929  0.1283E+03  0.1836E+03
     -0.904  0.2579E+03  0.1899E+03
     -0.880  0.3274E+03  0.1979E+03
     -0.855  0.2896E+03  0.2050E+03
     -0.831  0.1586E+03  0.2089E+03
     -0.806  0.6674E+02  0.2105E+03
     -0.782  0.1237E+03  0.2136E+03
     -0.757  0.2267E+03  0.2191E+03
     -0.733  0.2106E+03  0.2243E+03
     -0.708  0.1148E+03  0.2271E+03
     -0.684  0.3536E+02  0.2280E+03
     -0.659  0.3085E+02  0.2287E+03
     -0.635  0.1164E+03  0.2316E+03
     -0.610  0.2082E+03  0.2367E+03
     -0.586  0.1597E+03  0.2406E+03
     -0.561  0.5714E+02  0.2420E+03
     -0.537  0.5577E+02  0.2434E+03
     -0.512  0.1706E+03  0.2475E+03
     -0.488  0.2881E+03  0.2546E+03
     -0.463  0.2785E+03  0.2614E+03
     -0.439  0.1648E+03  0.2654E+03
     -0.414  0.1072E+03  0.2681E+03
     -0.390  0.1010E+03  0.2705E+03
     -0.365  0.4982E+02  0.2718E+03
     -0.341  0.1112E+02  0.2720E+03
     -0.316  0.2477E+02  0.2726E+03
     -0.292  0.1129E+03  0.2754E+03
     -0.267  0.2295E+03  0.2810E+03
     -0.243  0.2601E+03  0.2874E+03
     -0.218  0.2127E+03  0.2926E+03
     -0.194  0.1419E+03  0.2961E+03
     -0.169  0.1260E+03  0.2992E+03
     -0.145  0.1730E+03  0.3034E+03
     -0.120  0.2183E+03  0.3087E+03
     -0.096  0.2318E+03  0.3144E+03
     -0.071  0.2221E+03  0.3199E+03
     -0.047  0.2183E+03  0.3252E+03
     -0.022  0.1835E+03  0.3297E+03
      0.002  0.1171E+03  0.3326E+03
      0.027  0.1118E+03  0.3353E+03
      0.051  0.1172E+03  0.3382E+03
      0.076  0.1245E+03  0.3412E+03
      0.100  0.1273E+03  0.3444E+03
      0.125  0.1688E+03  0.3485E+03
      0.149  0.2630E+03  0.3549E+03
      0.174  0.3160E+03  0.3627E+03
      0.198  0.3173E+03  0.3704E+03
      0.223  0.2458E+03  0.3765E+03
      0.247  0.1216E+03  0.3794E+03
      0.271  0.7264E+02  0.3812E+03
      0.296  0.1535E+03  0.3850E+03
      0.320  0.2455E+03  0.3910E+03
      0.345  0.2532E+03  0.3972E+03
      0.369  0.1857E+03  0.4017E+03
      0.394  0.9269E+02  0.4040E+03
      0.418  0.8104E+02  0.4060E+03
      0.443  0.1243E+03  0.4090E+03
      0.467  0.1598E+03  0.4130E+03
      0.492  0.2073E+03  0.4180E+03
      0.516  0.2060E+03  0.4231E+03
      0.541  0.1699E+03  0.4272E+03
      0.565  0.1791E+03  0.4316E+03
      0.590  0.2208E+03  0.4370E+03
      0.614  0.2503E+03  0.4432E+03
      0.639  0.2633E+03  0.4496E+03
      0.663  0.2388E+03  0.4555E+03
      0.688  0.1863E+03  0.4600E+03
      0.712  0.1350E+03  0.4633E+03
      0.737  0.1156E+03  0.4662E+03
      0.761  0.1432E+03  0.4697E+03
      0.786  0.1872E+03  0.4743E+03
      0.810  0.2129E+03  0.4795E+03
      0.835  0.2206E+03  0.4849E+03
      0.859  0.2334E+03  0.4906E+03
      0.884  0.2506E+03  0.4967E+03
      0.908  0.2688E+03  0.5033E+03
      0.933  0.2900E+03  0.5104E+03
      0.957  0.2875E+03  0.5175E+03
      0.982  0.2669E+03  0.5240E+03
      1.006  0.2348E+03  0.5297E+03
      1.031  0.2101E+03  0.5349E+03
      1.055  0.2191E+03  0.5403E+03
      1.080  0.2404E+03  0.5461E+03
      1.104  0.2491E+03  0.5522E+03
      1.129  0.2454E+03  0.5583E+03
      1.153  0.2430E+03  0.5642E+03
      1.178  0.2251E+03  0.5697E+03
      1.202  0.1917E+03  0.5744E+03
      1.227  0.1995E+03  0.5793E+03
      1.251  0.2514E+03  0.5855E+03
      1.276  0.2776E+03  0.5923E+03
      1.300  0.2593E+03  0.5986E+03
      1.325  0.2352E+03  0.6044E+03
      1.349  0.2258E+03  0.6099E+03
      1.374  0.2091E+03  0.6150E+03
      1.398  0.1751E+03  0.6193E+03
      1.423  0.1583E+03  0.6232E+03
      1.447  0.1811E+03  0.6276E+03
      1.472  0.2033E+03  0.6326E+03
      1.496  0.2142E+03  0.6378E+03
      1.521  0.2118E+03  0.6430E+03
      1.545  0.1886E+03  0.6476E+03
      1.570  0.1230E+03  0.6507E+03
      1.594  0.5512E+02  0.6520E+03
      1.619  0.5707E+02  0.6534E+03
      1.643  0.1141E+03  0.6562E+03
      1.668  0.1452E+03  0.6598E+03
      1.692  0.1245E+03  0.6628E+03
      1.717  0.9910E+02  0.6652E+03
      1.741  0.1259E+03  0.6683E+03
      1.766  0.1740E+03  0.6726E+03
      1.790  0.2036E+03  0.6776E+03
      1.815  0.2024E+03  0.6825E+03
      1.839  0.1857E+03  0.6871E+03
      1.863  0.1541E+03  0.6908E+03
      1.888  0.1033E+03  0.6934E+03
      1.912  0.8119E+02  0.6954E+03
      1.937  0.1338E+03  0.6986E+03
      1.961  0.1785E+03  0.7030E+03
      1.986  0.1836E+03  0.7075E+03
      2.010  0.1833E+03  0.7120E+03
      2.035  0.1896E+03  0.7166E+03
      2.059  0.1811E+03  0.7211E+03
      2.084  0.1670E+03  0.7252E+03
      2.108  0.1788E+03  0.7296E+03
      2.133  0.2070E+03  0.7346E+03
      2.157  0.2164E+03  0.7399E+03
      2.182  0.2029E+03  0.7449E+03
      2.206  0.1770E+03  0.7492E+03
      2.231  0.1436E+03  0.7527E+03
      2.255  0.1411E+03  0.7562E+03
      2.280  0.1701E+03  0.7604E+03
      2.304  0.1678E+03  0.7645E+03
      2.329  0.1586E+03  0.7684E+03
      2.353  0.1550E+03  0.7722E+03
      2.378  0.1440E+03  0.7757E+03
      2.402  0.1300E+03  0.7789E+03
      2.427  0.1148E+03  0.7817E+03
      2.451  0.7558E+02  0.7835E+03
      2.476  0.5484E+02  0.7849E+03
      2.500  0.9485E+02  0.7872E+03
      2.525  0.1209E+03  0.7902E+03
      2.549  0.1038E+03  0.7927E+03
      2.574  0.7356E+02  0.7945E+03
      2.598  0.4025E+02  0.7955E+03
      2.623  0.1622E+02  0.7959E+03
      2.647  0.5663E+01  0.7960E+03
      2.672  0.1628E+02  0.7964E+03
      2.696  0.6532E+02  0.7980E+03
      2.721  0.9767E+02  0.8004E+03
      2.745  0.5374E+02  0.8017E+03
      2.770  0.1047E+02  0.8020E+03
      2.794  0.6735E+00  0.8020E+03
      2.819  0.1384E-01  0.8020E+03
      2.843  0.4432E-01  0.8020E+03
      2.868  0.1319E+01  0.8020E+03
      2.892  0.1322E+02  0.8024E+03
      2.917  0.5049E+02  0.8036E+03
      2.941  0.8974E+02  0.8058E+03
      2.966  0.1026E+03  0.8083E+03
      2.990  0.1040E+03  0.8109E+03
      3.015  0.1074E+03  0.8135E+03
      3.039  0.1017E+03  0.8160E+03
      3.064  0.7059E+02  0.8177E+03
      3.088  0.5732E+02  0.8191E+03
      3.113  0.8173E+02  0.8211E+03
      3.137  0.9772E+02  0.8235E+03
      3.162  0.1115E+03  0.8262E+03
      3.186  0.1457E+03  0.8298E+03
      3.211  0.1609E+03  0.8337E+03
      3.235  0.1442E+03  0.8373E+03
      3.260  0.1252E+03  0.8403E+03
      3.284  0.1083E+03  0.8430E+03
      3.309  0.9192E+02  0.8452E+03
      3.333  0.6944E+02  0.8469E+03
      3.358  0.3507E+02  0.8478E+03
      3.382  0.1181E+02  0.8481E+03
      3.407  0.2113E+02  0.8486E+03
      3.431  0.4606E+02  0.8497E+03
      3.456  0.5999E+02  0.8512E+03
      3.480  0.6634E+02  0.8528E+03
      3.504  0.8832E+02  0.8550E+03
      3.529  0.9609E+02  0.8573E+03
      3.553  0.9034E+02  0.8596E+03
      3.578  0.7734E+02  0.8615E+03
      3.602  0.6567E+02  0.8631E+03
      3.627  0.6745E+02  0.8647E+03
      3.651  0.4099E+02  0.8657E+03
      3.676  0.1038E+02  0.8660E+03
      3.700  0.9842E+00  0.8660E+03
      3.725  0.3188E-01  0.8660E+03
      3.749  0.3240E-03  0.8660E+03
      3.774  0.9706E-06  0.8660E+03
      3.798  0.8226E-09  0.8660E+03
      3.823  0.1904E-12  0.8660E+03
      3.847  0.0000E+00  0.8660E+03
      3.872  0.0000E+00  0.8660E+03
      3.896  0.0000E+00  0.8660E+03
      3.921  0.0000E+00  0.8660E+03
      3.945  0.0000E+00  0.8660E+03
      3.970  0.0000E+00  0.8660E+03
