       N       E                     dE             d eps       ncg     rms          rms(c)
DAV:   1    -0.246116966959E+03   -0.24612E+03   -0.10638E+05  3464   0.661E+02
DAV:   2    -0.771772702181E+03   -0.52566E+03   -0.48093E+03  3996   0.686E+01
DAV:   3    -0.807497748881E+03   -0.35725E+02   -0.32512E+02  4288   0.142E+01
DAV:   4    -0.808641335970E+03   -0.11436E+01   -0.11280E+01  3864   0.279E+00
DAV:   5    -0.808666249144E+03   -0.24913E-01   -0.24886E-01  4040   0.441E-01    0.689E+00
DAV:   6    -0.804681514970E+03    0.39847E+01   -0.55352E+00  3800   0.303E+00    0.456E+00
DAV:   7    -0.803417745362E+03    0.12638E+01   -0.37973E+00  3904   0.289E+00    0.352E+00
DAV:   8    -0.801963522715E+03    0.14542E+01   -0.19638E+00  3904   0.169E+00    0.182E+00
DAV:   9    -0.801743392479E+03    0.22013E+00   -0.11053E+00  3752   0.866E-01    0.992E-01
DAV:  10    -0.801721681951E+03    0.21711E-01   -0.25319E-01  3832   0.464E-01    0.614E-01
DAV:  11    -0.801705835866E+03    0.15846E-01   -0.55828E-02  3896   0.306E-01    0.440E-01
DAV:  12    -0.801692261189E+03    0.13575E-01   -0.13278E-02  3912   0.154E-01    0.183E-01
DAV:  13    -0.801691663235E+03    0.59795E-03   -0.67349E-03  3832   0.876E-02    0.945E-02
DAV:  14    -0.801691594333E+03    0.68902E-04   -0.22015E-03  3872   0.583E-02    0.675E-02
DAV:  15    -0.801691111849E+03    0.48248E-03   -0.71113E-04  3824   0.353E-02    0.347E-02
DAV:  16    -0.801690985145E+03    0.12670E-03   -0.31529E-04  3688   0.157E-02    0.112E-02
DAV:  17    -0.801690981761E+03    0.33841E-05   -0.47757E-05  3984   0.846E-03
   1 F= -.80169098E+03 E0= -.80164511E+03  d E =-.917470E-01
