Li                                      
           1
    20.227200    0.000000    0.000000
     0.000000   20.227200    0.000000
     0.000000    0.000000   20.227200
   Li
   432
Direct configuration=     1
   0.98228200  0.01305208  0.01652093
   0.90323882  0.08326595  0.09996796
   0.82909232  0.17152949  0.16414003
   0.74495947  0.25769055  0.24130059
   0.67217203  0.32499344  0.32715144
   0.59785549  0.41206615  0.42091208
   0.50624401  0.48965766  0.50843081
   0.41809226  0.57298208  0.61076386
   0.34206851  0.67387929  0.66848136
   0.26434117  0.77135902  0.75070850
   0.15064397  0.83561746  0.84423149
   0.07394591  0.92643074  0.92554085
   0.08215029  0.92904562  0.09036748
   0.01166497  0.00248249  0.17835170
   0.92589662  0.09355303  0.24609503
   0.82847153  0.16415355  0.34464306
   0.76887553  0.24546031  0.42763143
   0.66414418  0.34226608  0.50723031
   0.59552329  0.42777431  0.58556730
   0.50366956  0.49246460  0.68239297
   0.41722694  0.57448520  0.74751501
   0.34062757  0.68298664  0.82306564
   0.25271912  0.76526020  0.91234875
   0.16267975  0.83621403  0.00139036
   0.16529414  0.82755654  0.18633468
   0.08309306  0.90892244  0.25663588
   0.01265169  0.99516173  0.33335869
   0.92957143  0.09217216  0.40852296
   0.83778489  0.14844412  0.49298041
   0.75313455  0.24317855  0.57207902
   0.67762661  0.33160400  0.66683823
   0.58666966  0.41368867  0.75646166
   0.48440548  0.50331248  0.83038032
   0.41175616  0.58740517  0.91985005
   0.32977425  0.68088506  0.98133011
   0.23611943  0.75637559  0.08538028
   0.24860521  0.73681196  0.27348991
   0.16559106  0.82297220  0.35052503
   0.08817167  0.92159092  0.41314563
   0.00074490  0.99770040  0.50615058
   0.91835712  0.08259222  0.57948371
   0.82793712  0.17343143  0.66012158
   0.74037808  0.25778084  0.74254113
   0.66896425  0.34057219  0.84625417
   0.58103652  0.42267591  0.91176487
   0.50756733  0.50621955  0.99052127
   0.41204159  0.58703486  0.06918171
   0.31457526  0.67229019  0.16896985
   0.34043618  0.65323355  0.34568365
   0.25890806  0.75571031  0.42226220
   0.15647573  0.82601880  0.50683420
   0.08062743  0.91715324  0.59709269
   0.99961651  0.00083022  0.67265167
   0.90453041  0.08515593  0.73991423
   0.82335215  0.16234884  0.82050423
   0.75443365  0.25419207  0.91253077
   0.66172396  0.34397901  0.00854290
   0.59295143  0.42003774  0.08201599
   0.49769301  0.51598885  0.16597105
   0.41213579  0.57745300  0.24807313
   0.43330424  0.57814259  0.40504782
   0.34665991  0.65867527  0.49656661
   0.25047664  0.75292107  0.57314911
   0.17822762  0.83918815  0.65852711
   0.06173026  0.91317774  0.75808205
   0.99397265  0.99829680  0.82386039
   0.91707720  0.06953587  0.90547958
   0.82174819  0.15895186  0.00677855
   0.74723173  0.24765509  0.07657005
   0.66267936  0.33497936  0.16782339
   0.59517857  0.41889909  0.24550427
   0.50701237  0.49620323  0.34569366
   0.06012668  0.09710454  0.92659878
   0.97855297  0.16824873  0.00533918
   0.91704761  0.24764478  0.08677027
   0.82077545  0.33817288  0.16430209
   0.75449326  0.41618946  0.23714438
   0.67811396  0.48688473  0.32594402
   0.58230889  0.57762079  0.40900165
   0.50015595  0.66017295  0.50234768
   0.41507166  0.74110121  0.58548466
   0.34509506  0.83847189  0.66552171
   0.24364177  0.92720174  0.75778764
   0.15509847  0.01281917  0.84253668
   0.16669572  0.00924587  0.99629334
   0.08010781  0.08629212  0.07137105
   0.99769514  0.17299190  0.16249012
   0.90547679  0.24658633  0.25458441
   0.82630173  0.34807478  0.33040911
   0.74738189  0.41263407  0.41939848
   0.66273210  0.51157666  0.49355055
   0.57647533  0.57587920  0.60059766
   0.49567060  0.66780884  0.66535639
   0.43196553  0.77687056  0.74927732
   0.32671250  0.84920219  0.84734283
   0.23337338  0.92156349  0.92632922
   0.24152370  0.90952208  0.08663152
   0.15004780  0.01334445  0.16515145
   0.08568914  0.09335331  0.25362264
   0.99798433  0.16535804  0.34976280
   0.89933820  0.25710024  0.41271067
   0.83385158  0.34102729  0.49649401
   0.75155663  0.43133475  0.57909722
   0.66516441  0.49956405  0.66940847
   0.59863363  0.58365872  0.75185914
   0.49452998  0.66995783  0.83012218
   0.42918877  0.76238393  0.90624808
   0.32522277  0.82620188  0.98393346
   0.32284063  0.83846088  0.18108389
   0.23778354  0.91794954  0.25121513
   0.18651101  0.00952631  0.33275294
   0.10531209  0.08512242  0.42413642
   0.00756598  0.16651358  0.48434004
   0.91270720  0.24997233  0.58007455
   0.83776634  0.34330538  0.64740502
   0.74735597  0.42159004  0.75756499
   0.66846896  0.48809479  0.82682067
   0.57344866  0.59206136  0.90694928
   0.48657626  0.68028895  0.01179065
   0.39762595  0.76410593  0.10153466
   0.41148275  0.75279427  0.25785997
   0.32149325  0.83823645  0.34382634
   0.25796557  0.91362730  0.42730250
   0.17857829  0.99302398  0.51114622
   0.08037850  0.07903145  0.59876930
   0.99856155  0.17780412  0.65538084
   0.91226749  0.25619554  0.73104035
   0.82540690  0.34155971  0.83292723
   0.74665871  0.40884297  0.91745955
   0.65159459  0.49872460  0.99155220
   0.58431542  0.57672046  0.08640991
   0.48473393  0.66213825  0.15977786
   0.49131577  0.67101565  0.33030482
   0.40872895  0.74978876  0.41349055
   0.33322085  0.84037432  0.49840033
   0.25689405  0.91853887  0.59537690
   0.15371195  0.01152410  0.67455249
   0.07452374  0.09303073  0.75703273
   0.98611816  0.16956322  0.81631511
   0.91565536  0.26132967  0.91379349
   0.84255586  0.31933372  0.00369114
   0.74558986  0.42160875  0.08918947
   0.66666488  0.50636277  0.17256384
   0.58859631  0.57112296  0.25936225
   0.15075249  0.15961300  0.83710498
   0.05877864  0.24842902  0.91126255
   0.99435905  0.33472341  0.00754588
   0.92605479  0.40881045  0.08174642
   0.83319876  0.50914521  0.16109642
   0.74688375  0.58514255  0.23748913
   0.66756642  0.68065799  0.32673993
   0.57839519  0.74938571  0.41135631
   0.49689530  0.81983534  0.49864571
   0.41262272  0.92595318  0.57348224
   0.33262740  0.00908228  0.67658078
   0.23838130  0.07791196  0.75523973
   0.25602961  0.08725534  0.91065379
   0.16253655  0.17779887  0.98869409
   0.08609642  0.25071327  0.08484105
   0.00233415  0.34258677  0.15334447
   0.89522680  0.42198821  0.22608183
   0.83219435  0.50539968  0.31301245
   0.74509521  0.58989797  0.40685709
   0.66625132  0.66175594  0.48209491
   0.58678955  0.74322287  0.58403733
   0.49460044  0.83816699  0.64865734
   0.41439839  0.91996907  0.74948662
   0.33304967  0.99966692  0.83572547
   0.32879373  0.99218366  0.99738659
   0.24135867  0.09008582  0.08568398
   0.16562938  0.17001750  0.16662575
   0.07053429  0.25980927  0.24561966
   0.98773746  0.32591634  0.32354197
   0.90543004  0.42724481  0.40582860
   0.82412857  0.51307182  0.48390313
   0.74469044  0.58812227  0.56380246
   0.67383712  0.66788392  0.66974874
   0.57955528  0.75484453  0.74581193
   0.51039413  0.85003900  0.84229577
   0.40564818  0.91413809  0.91762944
   0.40371751  0.91893737  0.08550283
   0.32304407  0.00647527  0.16739687
   0.25726245  0.08436006  0.24170488
   0.18920843  0.17781373  0.33207935
   0.09129550  0.24811621  0.41486292
   0.00015145  0.33419106  0.49230801
   0.91481644  0.42815202  0.57394670
   0.81485469  0.50932524  0.65988511
   0.74012684  0.57556673  0.74831181
   0.66643620  0.65818091  0.82986940
   0.58631339  0.73087780  0.90524864
   0.49959145  0.82920721  0.00050885
   0.48901719  0.81804909  0.15991532
   0.39746035  0.90767870  0.25339814
   0.33071829  0.00462608  0.32189781
   0.25207759  0.08772967  0.42041229
   0.16583457  0.16329356  0.50534090
   0.10028544  0.25702365  0.57708924
   0.00614502  0.34565419  0.65848464
   0.90879661  0.41742541  0.73846669
   0.84104078  0.49066092  0.84097180
   0.74900005  0.57311583  0.91905770
   0.66800885  0.65710879  0.00799858
   0.58505444  0.74733250  0.08451001
   0.57161292  0.75341796  0.24372429
   0.48546137  0.83487334  0.32794114
   0.41010614  0.92847339  0.42904017
   0.35198667  0.01128587  0.50542787
   0.25146693  0.08182547  0.57768982
   0.17085156  0.15101279  0.66542758
   0.09452937  0.25756402  0.75254881
   0.98624622  0.33592642  0.82299820
   0.91913770  0.41479838  0.91803228
   0.82662972  0.49818683  0.99750061
   0.73619165  0.57285644  0.08363197
   0.65648078  0.67196993  0.17655590
   0.24585263  0.24356514  0.77083776
   0.15384224  0.34716174  0.83980113
   0.06651160  0.41760312  0.91903491
   0.99376632  0.50422348  0.99640327
   0.94694213  0.57748469  0.09474547
   0.83532755  0.67413839  0.15171480
   0.76733556  0.73135234  0.25136129
   0.65591421  0.82106359  0.33171753
   0.58082998  0.90442385  0.41403535
   0.50442598  0.01391777  0.50569730
   0.41442798  0.09223034  0.58447406
   0.32295322  0.15226195  0.67793759
   0.35279903  0.17022498  0.83980330
   0.25205288  0.25996140  0.91356329
   0.16491857  0.34062363  0.99419793
   0.07678368  0.42776526  0.06811026
   0.01965186  0.49800337  0.16787495
   0.93376556  0.58770221  0.24046189
   0.83628164  0.66119842  0.33236185
   0.75114796  0.75175193  0.41566557
   0.66200973  0.82246975  0.49052170
   0.58686660  0.91697218  0.56943165
   0.50136434  0.00028226  0.66444157
   0.42800631  0.07656465  0.75493426
   0.42119896  0.06806157  0.90323718
   0.32940366  0.15882234  0.98967113
   0.26460553  0.25100374  0.07579482
   0.17688895  0.32895698  0.16727144
   0.08710708  0.40903836  0.24131113
   0.00800094  0.48092131  0.31356340
   0.92012310  0.58162737  0.40423951
   0.84730492  0.65534523  0.50381855
   0.75847280  0.73195695  0.57409208
   0.66624920  0.82743337  0.66753576
   0.59004314  0.91606303  0.73553277
   0.50700593  0.98266668  0.82451028
   0.48554570  0.98812847  0.01395734
   0.40544386  0.08958917  0.06530268
   0.34001263  0.16183181  0.15256086
   0.26639565  0.25091191  0.23911652
   0.17381943  0.32256722  0.33022540
   0.08332529  0.40665879  0.40880418
   0.00693988  0.50660950  0.50581784
   0.90303220  0.58167006  0.56807946
   0.82065361  0.65639145  0.65421327
   0.74615946  0.74829852  0.75336939
   0.66898472  0.83519225  0.83107195
   0.59193641  0.90922726  0.92605655
   0.59552959  0.92363455  0.09545278
   0.49261809  0.99594431  0.16623540
   0.42627410  0.07960574  0.24449419
   0.34401962  0.16391845  0.31922481
   0.26685461  0.25068598  0.40881808
   0.18799741  0.31648240  0.49237021
   0.09418413  0.41673410  0.57830973
   0.99391991  0.51476639  0.64817859
   0.90984052  0.57903098  0.74099493
   0.83125759  0.65735954  0.83452478
   0.75338845  0.73392740  0.91711098
   0.67520752  0.82905202  0.99927601
   0.68234442  0.82029364  0.16404954
   0.57536777  0.90339862  0.25076106
   0.49665851  0.99201862  0.33354479
   0.41227759  0.09764152  0.41745511
   0.34125282  0.18053531  0.50695723
   0.26085229  0.24003917  0.58108671
   0.16902134  0.34662992  0.66742064
   0.09097391  0.43951685  0.74895111
   0.00173956  0.50987039  0.81308677
   0.93064264  0.61212043  0.91989427
   0.83905189  0.64574204  0.01301088
   0.75921634  0.74587650  0.07425610
   0.31738961  0.32890194  0.66981622
   0.25821755  0.41851019  0.77600310
   0.17182232  0.51413340  0.85202589
   0.07307880  0.58647127  0.91146881
   0.00586749  0.67771143  0.99606224
   0.92479975  0.72914397  0.08927663
   0.82566958  0.81878605  0.16051377
   0.74830123  0.90869069  0.25405035
   0.65731988  0.99847264  0.31389467
   0.58196640  0.08231484  0.41864450
   0.48924948  0.15955249  0.49748415
   0.41290276  0.25852566  0.60614836
   0.42902996  0.24525109  0.73765005
   0.34893897  0.32265682  0.82723407
   0.24672932  0.41236079  0.92016424
   0.16745308  0.50718685  0.99285133
   0.08987271  0.58952864  0.06197722
   0.02255924  0.66967258  0.16031095
   0.91874754  0.73128092  0.25839285
   0.83212853  0.82148603  0.33228557
   0.75508865  0.91116876  0.40839507
   0.65618842  0.99230767  0.50490924
   0.59394756  0.07919353  0.58799573
   0.49575037  0.17540756  0.66181433
   0.51092851  0.16690280  0.82074804
   0.43519291  0.24622712  0.93224234
   0.32971297  0.32829030  0.00600755
   0.25393067  0.41455101  0.08868283
   0.16663280  0.49359867  0.14915093
   0.08678319  0.58099976  0.24415123
   0.01415774  0.66691885  0.32015741
   0.93041633  0.74049131  0.42517003
   0.82989997  0.82957807  0.47895727
   0.74867392  0.91306527  0.56902695
   0.67119759  0.00455490  0.65742336
   0.59004352  0.09362794  0.75165614
   0.57811981  0.06978209  0.90300160
   0.50763877  0.16466429  0.99730986
   0.42632714  0.24728106  0.06950402
   0.34389117  0.34522547  0.16104549
   0.24894451  0.42530953  0.25318035
   0.15843891  0.50429788  0.34656861
   0.05856761  0.56384769  0.41540528
   0.00610002  0.65268564  0.51817996
   0.91338486  0.75462295  0.58227629
   0.83175970  0.83192803  0.65235683
   0.75246009  0.90678597  0.73785172
   0.68145576  0.98864135  0.83489253
   0.65522314  0.01266058  0.99177152
   0.56993443  0.07697835  0.09153853
   0.48263036  0.16094290  0.18325079
   0.42353865  0.24203834  0.24480014
   0.34916752  0.33233126  0.31995201
   0.24932849  0.40953555  0.41134272
   0.16400088  0.49743393  0.50551834
   0.09799202  0.58093248  0.59457466
   0.99181717  0.66758666  0.65293030
   0.90177357  0.75034329  0.74744137
   0.83853595  0.83978550  0.83817258
   0.75671542  0.91859907  0.93991178
   0.74913671  0.90744686  0.08495477
   0.67169740  0.00073701  0.19103523
   0.57304910  0.08118768  0.25853394
   0.49709907  0.15664905  0.33631463
   0.41697654  0.24713669  0.40999561
   0.34770795  0.33516832  0.49289159
   0.25739352  0.41602278  0.58756819
   0.18014426  0.51042781  0.68245835
   0.08428063  0.59299756  0.74954546
   0.99675619  0.67590548  0.81852548
   0.89860515  0.75218200  0.91761347
   0.82694270  0.82327549  0.01919828
   0.41309550  0.40994071  0.59851390
   0.33073901  0.48729563  0.67774200
   0.26418060  0.58826448  0.74888952
   0.17179814  0.67644002  0.83218282
   0.06661650  0.75347197  0.91421432
   0.98181135  0.83764533  0.01501012
   0.90971485  0.92383482  0.09930799
   0.82900327  0.99883640  0.17910189
   0.75168618  0.07947371  0.25744309
   0.66636779  0.16491880  0.32632399
   0.59433441  0.25067129  0.42782721
   0.50186907  0.31708508  0.52577144
   0.51599301  0.32577653  0.68468855
   0.43735435  0.41643602  0.74833298
   0.33301841  0.51395374  0.83030731
   0.26856865  0.58987268  0.91776476
   0.17962184  0.66074503  0.98585243
   0.10881990  0.74513437  0.08244885
   0.99346211  0.82150932  0.16018169
   0.92047575  0.90517683  0.25313689
   0.83371902  0.00437616  0.33787056
   0.73676887  0.07881183  0.40098873
   0.66928896  0.15491656  0.49597983
   0.59300049  0.23624092  0.59783418
   0.59100782  0.25078263  0.76119531
   0.50703921  0.33265922  0.85097463
   0.39406562  0.42178679  0.92916775
   0.32643959  0.50514135  0.00513510
   0.24459617  0.60491742  0.07758040
   0.16578982  0.66620308  0.16880972
   0.09439162  0.74853197  0.25641002
   0.00819028  0.81826861  0.34242171
   0.92883560  0.89675317  0.40462334
   0.83479303  0.98978374  0.49091860
   0.75697689  0.07255493  0.57834813
   0.68290093  0.15577343  0.67412805
   0.66973140  0.16928372  0.83852517
   0.59524006  0.25054933  0.92061002
   0.50050992  0.35491293  0.01330694
   0.41187717  0.43226064  0.08190486
   0.32297653  0.51965716  0.16847366
   0.24425076  0.59836152  0.26607198
   0.15124515  0.66132580  0.35586813
   0.09027708  0.73701042  0.43345468
   0.01273736  0.82673440  0.50360202
   0.91529803  0.92319895  0.58556693
   0.83606701  0.99189893  0.66259744
   0.74866946  0.07682575  0.74227557
   0.76424675  0.06507230  0.91146627
   0.67218509  0.14829970  0.98858572
   0.58552047  0.23117546  0.08740113
   0.50126514  0.34350545  0.15831054
   0.42751858  0.42300785  0.25397732
   0.33080467  0.50026054  0.34750864
   0.25542481  0.59039494  0.43107251
   0.14097913  0.66156589  0.49112481
   0.08549693  0.73766198  0.60918824
   0.00151404  0.82330738  0.66957022
   0.91722403  0.90233369  0.73468959
   0.83633151  0.99166063  0.82020931
   0.84020245  0.00426942  0.01419055
   0.74955943  0.07783875  0.10189431
   0.65789208  0.15920905  0.17961067
   0.57686599  0.25935783  0.24907648
   0.49413445  0.34743924  0.34022697
   0.40786115  0.42099510  0.42092914
   0.33156610  0.50369744  0.51018278
   0.24824460  0.59190168  0.59039227
   0.17905556  0.66747603  0.68035150
   0.08190053  0.75741471  0.75244351
   0.98542826  0.83270141  0.83927709
   0.90930750  0.92201816  0.93516657
