 432 432   0   0
  0.2159961E+02  0.2105280E-08  0.2105280E-08  0.2105280E-08  0.5000000E-15
  1.000000000000000E-004
  CAR 
 Li                                      
      3.27301260     -3.50498034  301      0.23815763      1.00000000
     -3.505  0.0000E+00  0.0000E+00
     -3.482  0.0000E+00  0.0000E+00
     -3.460  0.0000E+00  0.0000E+00
     -3.437  0.0000E+00  0.0000E+00
     -3.415  0.0000E+00  0.0000E+00
     -3.392  0.0000E+00  0.0000E+00
     -3.369  0.1843E-13  0.4163E-15
     -3.347  0.6639E-10  0.1500E-11
     -3.324  0.8235E-07  0.1862E-08
     -3.302  0.3373E-04  0.7640E-06
     -3.279  0.4603E-02  0.1048E-03
     -3.256  0.2118E+00  0.4889E-02
     -3.234  0.3336E+01  0.8026E-01
     -3.211  0.1831E+02  0.4939E+00
     -3.189  0.3553E+02  0.1297E+01
     -3.166  0.2457E+02  0.1852E+01
     -3.143  0.6256E+01  0.1993E+01
     -3.121  0.4470E+01  0.2094E+01
     -3.098  0.2635E+02  0.2690E+01
     -3.076  0.7331E+02  0.4346E+01
     -3.053  0.9223E+02  0.6430E+01
     -3.031  0.5400E+02  0.7650E+01
     -3.008  0.1469E+02  0.7982E+01
     -2.985  0.9820E+01  0.8203E+01
     -2.963  0.4053E+02  0.9119E+01
     -2.940  0.8581E+02  0.1106E+02
     -2.918  0.8429E+02  0.1296E+02
     -2.895  0.3815E+02  0.1382E+02
     -2.872  0.9957E+01  0.1405E+02
     -2.850  0.2179E+02  0.1454E+02
     -2.827  0.7366E+02  0.1621E+02
     -2.805  0.1197E+03  0.1891E+02
     -2.782  0.9542E+02  0.2107E+02
     -2.759  0.3631E+02  0.2189E+02
     -2.737  0.1654E+02  0.2226E+02
     -2.714  0.5653E+02  0.2354E+02
     -2.692  0.1333E+03  0.2655E+02
     -2.669  0.1642E+03  0.3026E+02
     -2.646  0.1137E+03  0.3283E+02
     -2.624  0.4363E+02  0.3382E+02
     -2.601  0.1386E+02  0.3413E+02
     -2.579  0.3644E+02  0.3495E+02
     -2.556  0.8749E+02  0.3693E+02
     -2.533  0.8967E+02  0.3895E+02
     -2.511  0.3929E+02  0.3984E+02
     -2.488  0.1307E+02  0.4014E+02
     -2.466  0.3843E+02  0.4101E+02
     -2.443  0.1076E+03  0.4344E+02
     -2.421  0.1594E+03  0.4704E+02
     -2.398  0.1367E+03  0.5013E+02
     -2.375  0.6837E+02  0.5167E+02
     -2.353  0.3763E+02  0.5252E+02
     -2.330  0.8629E+02  0.5447E+02
     -2.308  0.1709E+03  0.5833E+02
     -2.285  0.2135E+03  0.6315E+02
     -2.262  0.1778E+03  0.6717E+02
     -2.240  0.9364E+02  0.6929E+02
     -2.217  0.3443E+02  0.7006E+02
     -2.195  0.3825E+02  0.7093E+02
     -2.172  0.7695E+02  0.7267E+02
     -2.149  0.8465E+02  0.7458E+02
     -2.127  0.4914E+02  0.7569E+02
     -2.104  0.2313E+02  0.7621E+02
     -2.082  0.5028E+02  0.7735E+02
     -2.059  0.1210E+03  0.8008E+02
     -2.036  0.1726E+03  0.8398E+02
     -2.014  0.1567E+03  0.8752E+02
     -1.991  0.8663E+02  0.8948E+02
     -1.969  0.4065E+02  0.9040E+02
     -1.946  0.7805E+02  0.9216E+02
     -1.923  0.1644E+03  0.9588E+02
     -1.901  0.2171E+03  0.1008E+03
     -1.878  0.1888E+03  0.1050E+03
     -1.856  0.1010E+03  0.1073E+03
     -1.833  0.3950E+02  0.1082E+03
     -1.810  0.5804E+02  0.1095E+03
     -1.788  0.1251E+03  0.1124E+03
     -1.765  0.1618E+03  0.1160E+03
     -1.743  0.1216E+03  0.1188E+03
     -1.720  0.5750E+02  0.1201E+03
     -1.698  0.6571E+02  0.1215E+03
     -1.675  0.1496E+03  0.1249E+03
     -1.652  0.2187E+03  0.1299E+03
     -1.630  0.2028E+03  0.1344E+03
     -1.607  0.1174E+03  0.1371E+03
     -1.585  0.5107E+02  0.1383E+03
     -1.562  0.7841E+02  0.1400E+03
     -1.539  0.1706E+03  0.1439E+03
     -1.517  0.2212E+03  0.1489E+03
     -1.494  0.1817E+03  0.1530E+03
     -1.472  0.9786E+02  0.1552E+03
     -1.449  0.4759E+02  0.1563E+03
     -1.426  0.6912E+02  0.1578E+03
     -1.404  0.1299E+03  0.1608E+03
     -1.381  0.1544E+03  0.1643E+03
     -1.359  0.1124E+03  0.1668E+03
     -1.336  0.4809E+02  0.1679E+03
     -1.313  0.3490E+02  0.1687E+03
     -1.291  0.9078E+02  0.1707E+03
     -1.268  0.1527E+03  0.1742E+03
     -1.246  0.1510E+03  0.1776E+03
     -1.223  0.1025E+03  0.1799E+03
     -1.200  0.9992E+02  0.1822E+03
     -1.178  0.1735E+03  0.1861E+03
     -1.155  0.2551E+03  0.1918E+03
     -1.133  0.2851E+03  0.1983E+03
     -1.110  0.2582E+03  0.2041E+03
     -1.087  0.1813E+03  0.2082E+03
     -1.065  0.1083E+03  0.2107E+03
     -1.042  0.1324E+03  0.2136E+03
     -1.020  0.1950E+03  0.2180E+03
     -0.997  0.2009E+03  0.2226E+03
     -0.975  0.1503E+03  0.2260E+03
     -0.952  0.7760E+02  0.2277E+03
     -0.929  0.5449E+02  0.2290E+03
     -0.907  0.1116E+03  0.2315E+03
     -0.884  0.1736E+03  0.2354E+03
     -0.862  0.1660E+03  0.2392E+03
     -0.839  0.1053E+03  0.2415E+03
     -0.816  0.8757E+02  0.2435E+03
     -0.794  0.1618E+03  0.2472E+03
     -0.771  0.2391E+03  0.2526E+03
     -0.749  0.2486E+03  0.2582E+03
     -0.726  0.2017E+03  0.2628E+03
     -0.703  0.1317E+03  0.2657E+03
     -0.681  0.1006E+03  0.2680E+03
     -0.658  0.9683E+02  0.2702E+03
     -0.636  0.6166E+02  0.2716E+03
     -0.613  0.3381E+02  0.2723E+03
     -0.590  0.7119E+02  0.2740E+03
     -0.568  0.1621E+03  0.2776E+03
     -0.545  0.2393E+03  0.2830E+03
     -0.523  0.2558E+03  0.2888E+03
     -0.500  0.2189E+03  0.2937E+03
     -0.477  0.1767E+03  0.2977E+03
     -0.455  0.1631E+03  0.3014E+03
     -0.432  0.1696E+03  0.3053E+03
     -0.410  0.2045E+03  0.3099E+03
     -0.387  0.2483E+03  0.3155E+03
     -0.365  0.2677E+03  0.3215E+03
     -0.342  0.2382E+03  0.3269E+03
     -0.319  0.1661E+03  0.3307E+03
     -0.297  0.1133E+03  0.3332E+03
     -0.274  0.1173E+03  0.3359E+03
     -0.252  0.1361E+03  0.3390E+03
     -0.229  0.1439E+03  0.3422E+03
     -0.206  0.1486E+03  0.3456E+03
     -0.184  0.1880E+03  0.3498E+03
     -0.161  0.2351E+03  0.3551E+03
     -0.139  0.2510E+03  0.3608E+03
     -0.116  0.2473E+03  0.3664E+03
     -0.093  0.2335E+03  0.3717E+03
     -0.071  0.2042E+03  0.3763E+03
     -0.048  0.1697E+03  0.3801E+03
     -0.026  0.1661E+03  0.3839E+03
     -0.003  0.1921E+03  0.3882E+03
      0.020  0.2147E+03  0.3930E+03
      0.042  0.2159E+03  0.3979E+03
      0.065  0.1755E+03  0.4019E+03
      0.087  0.1311E+03  0.4049E+03
      0.110  0.1287E+03  0.4078E+03
      0.133  0.1464E+03  0.4111E+03
      0.155  0.1753E+03  0.4150E+03
      0.178  0.2033E+03  0.4196E+03
      0.200  0.2095E+03  0.4244E+03
      0.223  0.2027E+03  0.4289E+03
      0.246  0.2021E+03  0.4335E+03
      0.268  0.2067E+03  0.4382E+03
      0.291  0.2127E+03  0.4430E+03
      0.313  0.2125E+03  0.4478E+03
      0.336  0.2070E+03  0.4524E+03
      0.358  0.2001E+03  0.4570E+03
      0.381  0.1849E+03  0.4611E+03
      0.404  0.1737E+03  0.4651E+03
      0.426  0.1836E+03  0.4692E+03
      0.449  0.1997E+03  0.4737E+03
      0.471  0.2131E+03  0.4785E+03
      0.494  0.2284E+03  0.4837E+03
      0.517  0.2406E+03  0.4891E+03
      0.539  0.2518E+03  0.4948E+03
      0.562  0.2592E+03  0.5007E+03
      0.584  0.2606E+03  0.5066E+03
      0.607  0.2513E+03  0.5123E+03
      0.630  0.2432E+03  0.5177E+03
      0.652  0.2493E+03  0.5234E+03
      0.675  0.2606E+03  0.5293E+03
      0.697  0.2502E+03  0.5349E+03
      0.720  0.2265E+03  0.5400E+03
      0.743  0.2275E+03  0.5452E+03
      0.765  0.2371E+03  0.5505E+03
      0.788  0.2270E+03  0.5557E+03
      0.810  0.2159E+03  0.5605E+03
      0.833  0.2160E+03  0.5654E+03
      0.856  0.2291E+03  0.5706E+03
      0.878  0.2483E+03  0.5762E+03
      0.901  0.2570E+03  0.5820E+03
      0.923  0.2438E+03  0.5875E+03
      0.946  0.2246E+03  0.5926E+03
      0.968  0.2184E+03  0.5975E+03
      0.991  0.2175E+03  0.6024E+03
      1.014  0.2175E+03  0.6074E+03
      1.036  0.2118E+03  0.6121E+03
      1.059  0.2036E+03  0.6167E+03
      1.081  0.1965E+03  0.6212E+03
      1.104  0.1964E+03  0.6256E+03
      1.127  0.1952E+03  0.6300E+03
      1.149  0.1984E+03  0.6345E+03
      1.172  0.1958E+03  0.6389E+03
      1.194  0.1858E+03  0.6431E+03
      1.217  0.1747E+03  0.6471E+03
      1.240  0.1461E+03  0.6504E+03
      1.262  0.1177E+03  0.6530E+03
      1.285  0.1287E+03  0.6559E+03
      1.307  0.1471E+03  0.6593E+03
      1.330  0.1459E+03  0.6626E+03
      1.353  0.1440E+03  0.6658E+03
      1.375  0.1478E+03  0.6692E+03
      1.398  0.1564E+03  0.6727E+03
      1.420  0.1737E+03  0.6766E+03
      1.443  0.1916E+03  0.6809E+03
      1.466  0.1880E+03  0.6852E+03
      1.488  0.1796E+03  0.6893E+03
      1.511  0.1773E+03  0.6933E+03
      1.533  0.1780E+03  0.6973E+03
      1.556  0.1842E+03  0.7014E+03
      1.579  0.1871E+03  0.7057E+03
      1.601  0.1874E+03  0.7099E+03
      1.624  0.1871E+03  0.7141E+03
      1.646  0.1824E+03  0.7182E+03
      1.669  0.1839E+03  0.7224E+03
      1.691  0.1857E+03  0.7266E+03
      1.714  0.1850E+03  0.7308E+03
      1.737  0.1922E+03  0.7351E+03
      1.759  0.1938E+03  0.7395E+03
      1.782  0.1965E+03  0.7439E+03
      1.804  0.1882E+03  0.7482E+03
      1.827  0.1626E+03  0.7519E+03
      1.850  0.1365E+03  0.7549E+03
      1.872  0.1379E+03  0.7581E+03
      1.895  0.1469E+03  0.7614E+03
      1.917  0.1420E+03  0.7646E+03
      1.940  0.1346E+03  0.7676E+03
      1.963  0.1289E+03  0.7705E+03
      1.985  0.1303E+03  0.7735E+03
      2.008  0.1395E+03  0.7766E+03
      2.030  0.1320E+03  0.7796E+03
      2.053  0.1110E+03  0.7821E+03
      2.076  0.1038E+03  0.7845E+03
      2.098  0.1113E+03  0.7870E+03
      2.121  0.1075E+03  0.7894E+03
      2.143  0.1048E+03  0.7918E+03
      2.166  0.9709E+02  0.7940E+03
      2.189  0.6176E+02  0.7954E+03
      2.211  0.2329E+02  0.7959E+03
      2.234  0.8196E+01  0.7961E+03
      2.256  0.2355E+02  0.7966E+03
      2.279  0.6119E+02  0.7980E+03
      2.302  0.7963E+02  0.7998E+03
      2.324  0.6071E+02  0.8012E+03
      2.347  0.3063E+02  0.8019E+03
      2.369  0.1882E+02  0.8023E+03
      2.392  0.3316E+02  0.8030E+03
      2.414  0.5338E+02  0.8042E+03
      2.437  0.7513E+02  0.8059E+03
      2.460  0.1010E+03  0.8082E+03
      2.482  0.1133E+03  0.8108E+03
      2.505  0.1122E+03  0.8133E+03
      2.527  0.1124E+03  0.8159E+03
      2.550  0.1273E+03  0.8187E+03
      2.573  0.1467E+03  0.8220E+03
      2.595  0.1421E+03  0.8253E+03
      2.618  0.1267E+03  0.8281E+03
      2.640  0.1320E+03  0.8311E+03
      2.663  0.1492E+03  0.8345E+03
      2.686  0.1498E+03  0.8379E+03
      2.708  0.1318E+03  0.8408E+03
      2.731  0.1081E+03  0.8433E+03
      2.753  0.8892E+02  0.8453E+03
      2.776  0.7256E+02  0.8469E+03
      2.799  0.6351E+02  0.8484E+03
      2.821  0.7357E+02  0.8500E+03
      2.844  0.8620E+02  0.8520E+03
      2.866  0.8726E+02  0.8539E+03
      2.889  0.1000E+03  0.8562E+03
      2.912  0.1177E+03  0.8589E+03
      2.934  0.1245E+03  0.8617E+03
      2.957  0.1087E+03  0.8641E+03
      2.979  0.6200E+02  0.8655E+03
      3.002  0.1843E+02  0.8659E+03
      3.024  0.2402E+01  0.8660E+03
      3.047  0.1223E+00  0.8660E+03
      3.070  0.2268E-02  0.8660E+03
      3.092  0.1474E-04  0.8660E+03
      3.115  0.3274E-07  0.8660E+03
      3.137  0.2449E-10  0.8660E+03
      3.160  0.4914E-14  0.8660E+03
      3.183  0.0000E+00  0.8660E+03
      3.205  0.0000E+00  0.8660E+03
      3.228  0.0000E+00  0.8660E+03
      3.250  0.0000E+00  0.8660E+03
      3.273  0.0000E+00  0.8660E+03
