 running on   64 total cores
 distrk:  each k-point on   32 cores,    2 groups
 distr:  one band on   32 cores,    1 groups
 vasp.6.2.1 16May21 (build Nov 23 2021 15:40:41) complex                        
  
 POSCAR found type information on POSCAR Li
 POSCAR found :  1 types and     432 ions
 scaLAPACK will be used
 -----------------------------------------------------------------------------
|                                                                             |
|           W    W    AA    RRRRR   N    N  II  N    N   GGGG   !!!           |
|           W    W   A  A   R    R  NN   N  II  NN   N  G    G  !!!           |
|           W    W  A    A  R    R  N N  N  II  N N  N  G       !!!           |
|           W WW W  AAAAAA  RRRRR   N  N N  II  N  N N  G  GGG   !            |
|           WW  WW  A    A  R   R   N   NN  II  N   NN  G    G                |
|           W    W  A    A  R    R  N    N  II  N    N   GGGG   !!!           |
|                                                                             |
|     For optimal performance we recommend to set                             |
|       NCORE = 2 up to number-of-cores-per-socket                            |
|     NCORE specifies how many cores store one orbital (NPAR=cpu/NCORE).      |
|     This setting can greatly improve the performance of VASP for DFT.       |
|     The default, NCORE=1 might be grossly inefficient on modern             |
|     multi-core architectures or massively parallel machines. Do your        |
|     own testing! More info at https://www.vasp.at/wiki/index.php/NCORE      |
|     Unfortunately you need to use the default for GW and RPA                |
|     calculations (for HF NCORE is supported but not extensively tested      |
|     yet).                                                                   |
|                                                                             |
 -----------------------------------------------------------------------------

 -----------------------------------------------------------------------------
|                                                                             |
|               ----> ADVICE to this user running VASP <----                  |
|                                                                             |
|     You have a (more or less) 'large supercell' and for larger cells it     |
|     might be more efficient to use real-space projection operators.         |
|     Therefore, try LREAL= Auto in the INCAR file.                           |
|     Mind: If you want to do very accurate calculations, keep the            |
|     reciprocal projection scheme (i.e. LREAL=.FALSE.).                      |
|                                                                             |
 -----------------------------------------------------------------------------

 LDA part: xc-table for Pade appr. of Perdew
 POSCAR found type information on POSCAR Li
 POSCAR found :  1 types and     432 ions
 POSCAR, INCAR and KPOINTS ok, starting setup
 FFT: planning ...
 WAVECAR not read
 entering main loop
       N       E                     dE             d eps       ncg     rms          rms(c)
DAV:   1    -0.261764191389E+03   -0.26176E+03   -0.10288E+05  3464   0.649E+02
DAV:   2    -0.759891631150E+03   -0.49813E+03   -0.45537E+03  3988   0.652E+01
DAV:   3    -0.795742345881E+03   -0.35851E+02   -0.32750E+02  4424   0.139E+01
DAV:   4    -0.796968219953E+03   -0.12259E+01   -0.12087E+01  3992   0.281E+00
DAV:   5    -0.796996338412E+03   -0.28118E-01   -0.28082E-01  4152   0.453E-01    0.850E+00
DAV:   6    -0.791194178649E+03    0.58022E+01   -0.83394E+00  3984   0.389E+00    0.576E+00
DAV:   7    -0.788462133464E+03    0.27320E+01   -0.67721E+00  4032   0.365E+00    0.413E+00
DAV:   8    -0.786449272455E+03    0.20129E+01   -0.37268E+00  3992   0.213E+00    0.207E+00
DAV:   9    -0.786181669247E+03    0.26760E+00   -0.22369E+00  3784   0.118E+00    0.106E+00
DAV:  10    -0.786229492430E+03   -0.47823E-01   -0.40658E-01  4032   0.707E-01    0.920E-01
DAV:  11    -0.786137726472E+03    0.91766E-01   -0.15853E-01  3936   0.465E-01    0.459E-01
DAV:  12    -0.786133038721E+03    0.46878E-02   -0.46722E-02  3768   0.184E-01    0.221E-01
DAV:  13    -0.786132258393E+03    0.78033E-03   -0.11604E-02  3856   0.110E-01    0.126E-01
DAV:  14    -0.786131968655E+03    0.28974E-03   -0.25931E-03  3968   0.699E-02    0.922E-02
DAV:  15    -0.786131100602E+03    0.86805E-03   -0.10651E-03  3888   0.433E-02    0.409E-02
DAV:  16    -0.786131040391E+03    0.60211E-04   -0.61748E-04  3736   0.216E-02    0.170E-02
DAV:  17    -0.786131033627E+03    0.67643E-05   -0.10845E-04  4096   0.122E-02    0.133E-02
DAV:  18    -0.786131012452E+03    0.21175E-04   -0.30154E-05  3256   0.666E-03    0.634E-03
DAV:  19    -0.786131007739E+03    0.47123E-05   -0.12099E-05  2008   0.381E-03
   1 F= -.78613101E+03 E0= -.78608540E+03  d E =-.912092E-01
