Li                                      
           1
    21.052800    0.000000    0.000000
     0.000000   21.052800    0.000000
     0.000000    0.000000   21.052800
   Li
   432
Direct configuration=     1
   0.98469816  0.00848586  0.00822252
   0.91825707  0.08195011  0.07767251
   0.82762950  0.14386046  0.18314805
   0.73805370  0.24824204  0.22040725
   0.67725420  0.30349651  0.33346481
   0.61023784  0.40772801  0.41368562
   0.50957824  0.49172770  0.48643514
   0.40570843  0.56528675  0.57825715
   0.31432726  0.67370765  0.67822630
   0.22298457  0.73306409  0.75253887
   0.15551519  0.83287861  0.81343003
   0.07309042  0.91026440  0.89609580
   0.07764858  0.93285275  0.08863979
   0.99702894  0.00304655  0.14819853
   0.92455614  0.07873059  0.26147454
   0.81896526  0.16764462  0.34189105
   0.73735861  0.24841239  0.43145196
   0.67340398  0.32205983  0.49871172
   0.58388047  0.42254791  0.58824432
   0.49879309  0.49618302  0.66385078
   0.40059406  0.59425865  0.74116550
   0.31620038  0.67033321  0.84795794
   0.22398161  0.74621733  0.92926183
   0.13581043  0.83143901  0.99921225
   0.15644582  0.85336221  0.16820192
   0.06726027  0.91033073  0.26257502
   0.00563264  0.00192303  0.34310633
   0.92550496  0.09775622  0.42520043
   0.82095076  0.17079469  0.51044318
   0.73258834  0.23471750  0.59299604
   0.67252925  0.35162143  0.67319205
   0.56746371  0.43980100  0.74269970
   0.47866778  0.49187739  0.84170149
   0.39516189  0.58610016  0.94261491
   0.32638973  0.69989737  0.02516184
   0.20936190  0.77344262  0.08681446
   0.27233732  0.75878655  0.22304317
   0.17348131  0.83244535  0.30554527
   0.07766423  0.89124747  0.41654795
   0.03287841  0.00300873  0.51591213
   0.91318232  0.10557588  0.58038924
   0.82758587  0.15103722  0.66049280
   0.76749317  0.23659845  0.74765273
   0.67766837  0.33619551  0.80103452
   0.59145884  0.40925618  0.90891656
   0.49865638  0.49867342  0.99381038
   0.44013233  0.59275012  0.08551223
   0.34681278  0.67896051  0.16048330
   0.33000320  0.66295594  0.31503559
   0.26238003  0.74610966  0.40892094
   0.18330351  0.82084871  0.47742363
   0.10599709  0.90819779  0.57798791
   0.01011469  0.01495469  0.68931437
   0.93008398  0.10844589  0.76682902
   0.84739668  0.18250515  0.84617163
   0.74000899  0.26298154  0.91325121
   0.62828500  0.31580289  0.01677340
   0.58172400  0.44791046  0.09509312
   0.49097911  0.50582743  0.17341953
   0.42323671  0.58723276  0.25270269
   0.41255400  0.60318749  0.42513826
   0.34540004  0.69112533  0.49251142
   0.24709103  0.74701184  0.59457129
   0.18687486  0.81419514  0.66360364
   0.09308941  0.91597871  0.72721219
   0.99203237  0.98457799  0.82878900
   0.93612888  0.08696586  0.91949542
   0.82294513  0.13130961  0.98269292
   0.73928925  0.23546968  0.07019209
   0.63704606  0.34421710  0.16310416
   0.58064079  0.41616878  0.26664822
   0.49728256  0.49115259  0.33980451
   0.08394836  0.09588897  0.89699262
   0.01288380  0.17008087  0.00052961
   0.90337707  0.21840286  0.07436399
   0.84569806  0.34179344  0.16120028
   0.74961776  0.40333537  0.22813918
   0.66635022  0.52444626  0.32068227
   0.58479333  0.57718472  0.42737524
   0.50212515  0.67304666  0.50857841
   0.41632373  0.73981595  0.59293260
   0.34592564  0.82788890  0.66339394
   0.23008681  0.92038938  0.71573240
   0.16838869  0.98719934  0.82374074
   0.16534673  0.99104572  0.98105732
   0.08937791  0.07806669  0.07830019
   0.99221462  0.17513907  0.15829453
   0.89766404  0.25206497  0.25894275
   0.80879003  0.32717325  0.32978746
   0.74220464  0.41545589  0.40577459
   0.68256522  0.49986041  0.49696655
   0.59119817  0.57165737  0.61186322
   0.47246376  0.64383721  0.67116995
   0.41175084  0.74297506  0.77790637
   0.30975544  0.83745398  0.83712389
   0.24779232  0.90886986  0.92125117
   0.27509835  0.91792367  0.08457752
   0.17790430  0.01127262  0.16545900
   0.07479067  0.09221893  0.23772617
   0.99287314  0.17109638  0.33341320
   0.90185653  0.26159342  0.41415562
   0.82157486  0.33418999  0.51343912
   0.75108847  0.41776628  0.57454288
   0.70789667  0.50276796  0.66858085
   0.56653041  0.58604607  0.74768869
   0.47356221  0.65534582  0.85362126
   0.41051410  0.76884980  0.91423228
   0.33189062  0.83663055  0.01025462
   0.34986343  0.82477334  0.18173318
   0.26395604  0.91941515  0.25455706
   0.18062797  0.99790059  0.33513742
   0.08765443  0.09089500  0.43146010
   0.01502636  0.17739857  0.51336665
   0.89612206  0.24313780  0.58837272
   0.82910801  0.32722515  0.67774978
   0.76414937  0.41071745  0.75733706
   0.67588363  0.47517172  0.81648219
   0.58872632  0.57250872  0.89561425
   0.50341384  0.68214307  0.99387684
   0.41769786  0.74196167  0.10234533
   0.44052476  0.74779182  0.26650895
   0.35801165  0.83238613  0.32845742
   0.25292784  0.89251191  0.39827749
   0.17641620  0.00318843  0.48165032
   0.11049410  0.07039570  0.59357044
   0.01290368  0.15012643  0.65251165
   0.91281473  0.23304504  0.74021801
   0.85994074  0.32995144  0.84699485
   0.75315775  0.41110384  0.92293906
   0.66633501  0.48503076  0.98728993
   0.57349000  0.57532051  0.07380207
   0.50607622  0.68251685  0.17380899
   0.52833094  0.65011938  0.35855598
   0.43116626  0.74772339  0.41611722
   0.33565632  0.82760990  0.51692160
   0.24045713  0.91888323  0.57108204
   0.17484757  0.00944403  0.64573040
   0.07265775  0.09788995  0.76400561
   0.99880059  0.18398554  0.84243536
   0.93348045  0.23958982  0.93745994
   0.85095642  0.31891174  0.01873346
   0.75901193  0.41316829  0.08423596
   0.68223299  0.49804662  0.17815723
   0.58565385  0.58248885  0.24996035
   0.17865068  0.16253890  0.85202346
   0.09317133  0.25305782  0.92782599
   0.00936165  0.31881333  0.01017956
   0.90029440  0.44033437  0.08453006
   0.82759638  0.51090353  0.16933072
   0.76546042  0.59516441  0.25378431
   0.67114686  0.65772057  0.34431780
   0.60358106  0.76081883  0.42483960
   0.50981480  0.81385974  0.51503893
   0.43560144  0.90450933  0.58218928
   0.34529704  0.00821465  0.65050135
   0.25948077  0.07280428  0.73900776
   0.24387426  0.05773876  0.90868827
   0.16743600  0.16191560  0.97216811
   0.09358337  0.23702692  0.07977405
   0.99840171  0.30794541  0.16778560
   0.90490567  0.41346520  0.26468005
   0.82508025  0.51068901  0.33512197
   0.75836604  0.60016166  0.42182333
   0.64437813  0.66224770  0.51048047
   0.59928133  0.74937409  0.60409175
   0.48774481  0.80315353  0.68722252
   0.43150136  0.91083979  0.74799589
   0.32943731  0.98585586  0.81118026
   0.32504756  0.98881883  0.97862926
   0.24276416  0.08354040  0.04725004
   0.17858801  0.16680628  0.14610682
   0.07993761  0.24578086  0.23639448
   0.98823143  0.33127321  0.33269395
   0.90820830  0.40305936  0.42790865
   0.83273928  0.49288940  0.49211018
   0.77517278  0.59058512  0.57421704
   0.67878995  0.64662737  0.64441551
   0.57751584  0.69603009  0.74242997
   0.50338896  0.82477588  0.82831463
   0.42003014  0.91026397  0.90789391
   0.40176885  0.93054568  0.08050085
   0.32360284  0.02375120  0.17147706
   0.22932799  0.09489671  0.26625816
   0.14653919  0.17032352  0.33625089
   0.07188070  0.27132657  0.40532604
   0.99254718  0.31319362  0.51042991
   0.91494016  0.42112316  0.60055589
   0.83387963  0.49229440  0.68007327
   0.76852351  0.57715541  0.76188799
   0.67919561  0.64964778  0.82772585
   0.59993215  0.73879329  0.92711844
   0.48897680  0.82209360  0.99997654
   0.50235141  0.82306046  0.16643558
   0.42924287  0.91343745  0.23740025
   0.34269489  0.98342307  0.31040412
   0.26273193  0.08523801  0.41930892
   0.15436558  0.16577972  0.50609809
   0.10241452  0.27363502  0.58327191
   0.00466936  0.32770899  0.65918852
   0.93178487  0.41576384  0.76352946
   0.83689305  0.49074048  0.84411721
   0.75358522  0.57146516  0.92469510
   0.66625065  0.65595071  0.00259932
   0.57591151  0.76652702  0.06666379
   0.61582720  0.74103429  0.25446968
   0.52020575  0.83777999  0.31874522
   0.43429500  0.90126172  0.44450508
   0.32782051  0.98071147  0.50233264
   0.24022960  0.07631255  0.57490928
   0.17768690  0.17375297  0.65067863
   0.10618399  0.24657459  0.74631958
   0.01036345  0.31758772  0.83063245
   0.91852462  0.38702178  0.94172614
   0.82849135  0.48171670  0.00251157
   0.75228278  0.56719183  0.07227090
   0.67337166  0.65443775  0.14666873
   0.21593239  0.25719933  0.73850663
   0.16926051  0.34772882  0.84726853
   0.06329302  0.40057057  0.90199402
   0.01133456  0.51882885  0.00656651
   0.91627743  0.57643603  0.08778325
   0.83660513  0.67377706  0.16370619
   0.75272622  0.74299671  0.25283339
   0.67596995  0.84384580  0.32418476
   0.61175046  0.91518366  0.41390866
   0.53039104  0.99861748  0.52146555
   0.41648288  0.08368966  0.59006884
   0.34740043  0.17892130  0.68502032
   0.34017990  0.16567997  0.82541593
   0.26319828  0.26530437  0.91298287
   0.16402576  0.36266006  0.99212043
   0.08129124  0.41628678  0.10978421
   0.98874389  0.51435017  0.18984718
   0.89956381  0.57753765  0.27078977
   0.81800476  0.67810507  0.35278124
   0.72816512  0.75399929  0.45757042
   0.64489804  0.84367019  0.51319809
   0.59761386  0.92413410  0.61171588
   0.50239667  0.99137258  0.65808139
   0.42099417  0.07968751  0.75057267
   0.40511773  0.08339128  0.89624241
   0.31764402  0.16080179  0.97375289
   0.23351911  0.25368956  0.05656155
   0.14835493  0.33439013  0.17505814
   0.08223356  0.40607258  0.25123077
   0.99630692  0.49172756  0.34971030
   0.93895504  0.58140493  0.43164472
   0.86265051  0.67834121  0.50594801
   0.74898242  0.76013851  0.58503343
   0.67932483  0.83690780  0.71540467
   0.56578904  0.91166641  0.74673897
   0.49852802  0.00721937  0.84714315
   0.49681133  0.00081847  0.99997476
   0.39679056  0.07719552  0.05635245
   0.30970999  0.14826210  0.15785400
   0.24373056  0.24714024  0.24550347
   0.15943029  0.34423808  0.35022745
   0.06161678  0.42799309  0.42193627
   0.00354587  0.51663367  0.51304699
   0.93498224  0.58815001  0.58735525
   0.84943076  0.67375577  0.67958116
   0.74974224  0.74603772  0.73569422
   0.66897258  0.83572055  0.80484017
   0.57753736  0.90609975  0.90295980
   0.58131657  0.90398087  0.08434977
   0.48890996  0.00623516  0.14118915
   0.42339657  0.08566272  0.25348903
   0.34261931  0.17349768  0.33596273
   0.24493234  0.23644176  0.41611440
   0.17378025  0.35382570  0.49339777
   0.08542753  0.41102614  0.56956052
   0.00316964  0.49923446  0.65717956
   0.92228730  0.57433934  0.73467914
   0.84401932  0.65217312  0.84062673
   0.74757101  0.73227078  0.91005581
   0.67401666  0.83066153  0.00309592
   0.66940216  0.82978887  0.17977306
   0.58591216  0.92678347  0.24662800
   0.50281571  0.98275124  0.31608168
   0.42353318  0.06556683  0.43482483
   0.31626027  0.17115067  0.49930425
   0.23789835  0.26820671  0.56339346
   0.17419458  0.33728110  0.66092233
   0.08337060  0.41585731  0.74595322
   0.98475502  0.50341530  0.83723201
   0.90017469  0.56524054  0.93182664
   0.83943118  0.67291924  0.01639996
   0.75624517  0.74892452  0.08637200
   0.33434885  0.33546859  0.67045994
   0.25343175  0.42798698  0.74084258
   0.15883909  0.50243046  0.85513846
   0.09980152  0.57916231  0.90967516
   0.00448588  0.66260755  0.99351967
   0.91374848  0.76254572  0.10058700
   0.82386535  0.84305754  0.18710484
   0.73735963  0.92618440  0.23906837
   0.66172073  0.02304499  0.31305429
   0.56296863  0.08707270  0.41830254
   0.49354716  0.16960717  0.52665430
   0.41807450  0.25391823  0.59398958
   0.43285735  0.26590564  0.76314635
   0.33845685  0.34265064  0.81972861
   0.25135261  0.42486749  0.92666540
   0.16563791  0.48370011  0.01330867
   0.08176260  0.57248357  0.08697339
   0.98977150  0.64963263  0.17723448
   0.89347274  0.74647445  0.23971416
   0.81433343  0.85067102  0.34619617
   0.74900368  0.92981734  0.42754857
   0.66014987  0.00821320  0.51766334
   0.60813763  0.09911836  0.62531387
   0.49230910  0.18747976  0.66664214
   0.50311436  0.18344098  0.83306319
   0.42051343  0.26065194  0.91925991
   0.33197103  0.33494808  0.00078226
   0.23285147  0.42179459  0.09589351
   0.17650041  0.51458041  0.17733305
   0.07542338  0.58769569  0.24646169
   0.00333712  0.66333209  0.32800635
   0.91662347  0.77387254  0.40680220
   0.84293937  0.84499671  0.50411122
   0.74117703  0.92163198  0.58221362
   0.65926139  0.01017529  0.69384183
   0.55545284  0.09708393  0.73992730
   0.56638747  0.08584367  0.91055694
   0.49030221  0.17004776  0.98640574
   0.40497638  0.22546053  0.05980671
   0.33813900  0.33404385  0.13809233
   0.26085744  0.41042473  0.24728828
   0.16985160  0.48791541  0.34025931
   0.09559390  0.58706707  0.41140139
   0.01767505  0.67190514  0.49800264
   0.90320063  0.76286323  0.59011598
   0.83501580  0.83008657  0.67285068
   0.76625509  0.93397269  0.74975323
   0.64012008  0.00786391  0.81749221
   0.64683872  0.99403895  0.00192799
   0.56875037  0.10267681  0.06750047
   0.49164255  0.15548578  0.15220247
   0.40300804  0.23953227  0.23233046
   0.33812619  0.30938507  0.35747734
   0.23492632  0.44014248  0.41695033
   0.15400717  0.51077204  0.49462806
   0.08580824  0.58965190  0.57180919
   0.00219116  0.67903631  0.63212752
   0.93511439  0.73603509  0.76256840
   0.84145818  0.81798471  0.81646462
   0.74542448  0.92749767  0.90741241
   0.75068377  0.93155034  0.07454119
   0.64865786  0.00365474  0.16929432
   0.57744888  0.08791857  0.24152395
   0.48479405  0.18611907  0.34410766
   0.41262330  0.24208686  0.42590440
   0.33967261  0.34224708  0.50288932
   0.25711685  0.42092672  0.57942540
   0.16575518  0.51798922  0.64788332
   0.06849413  0.58107267  0.76049617
   0.02134993  0.64697030  0.82870550
   0.93414626  0.75871496  0.89686609
   0.84777237  0.82487076  0.97756110
   0.39797988  0.44165784  0.56321937
   0.32486897  0.51100766  0.67097553
   0.22511031  0.57666268  0.76125381
   0.15002084  0.67290120  0.82428272
   0.08411847  0.76490010  0.91447585
   0.98854540  0.83715703  0.00497073
   0.91131343  0.90912583  0.08396167
   0.84247300  0.02159104  0.16991435
   0.76273109  0.07700489  0.23798461
   0.66645193  0.15466342  0.32488001
   0.56189491  0.23208967  0.41766262
   0.51422939  0.33307991  0.49471302
   0.47823843  0.34062431  0.66038846
   0.41378331  0.42444155  0.75141586
   0.32005056  0.51377643  0.83553869
   0.24340341  0.59404358  0.92367039
   0.15965091  0.68186200  0.02599343
   0.09446947  0.74690839  0.09445024
   0.00727372  0.84300160  0.17326913
   0.92736027  0.92175731  0.25694993
   0.83031895  0.00714602  0.33644590
   0.73954401  0.08756573  0.43005971
   0.66294716  0.17763775  0.52081288
   0.58981861  0.26763784  0.60578718
   0.57657276  0.25950240  0.75668260
   0.51988622  0.36131939  0.83814948
   0.40385239  0.40616112  0.94717750
   0.32046559  0.51665725  0.00812733
   0.25361173  0.59076913  0.10620724
   0.19494611  0.66249960  0.18084687
   0.07441342  0.73066975  0.23932721
   0.99211473  0.82219112  0.32245456
   0.92483042  0.94929477  0.42622168
   0.83173757  0.01434660  0.49987413
   0.76440501  0.10060079  0.60679208
   0.68074016  0.16939880  0.69404174
   0.66379571  0.15771826  0.85214642
   0.57991832  0.24858367  0.92008296
   0.51615717  0.32334625  0.00492747
   0.41286865  0.41977358  0.06582134
   0.33966306  0.48036961  0.17056259
   0.25965185  0.55597230  0.25389164
   0.17085174  0.68485850  0.33201618
   0.07574895  0.76554533  0.39632199
   0.00326972  0.85495840  0.51525670
   0.91711656  0.93451260  0.58925624
   0.86895047  0.01817899  0.65629734
   0.76566226  0.11461235  0.75146690
   0.73724464  0.07655072  0.90719542
   0.66329282  0.17319826  0.98734285
   0.57260054  0.20706427  0.07419265
   0.49949686  0.32194215  0.14491076
   0.43008944  0.38263397  0.24262024
   0.35278545  0.49117596  0.32085502
   0.26432930  0.57258402  0.41407554
   0.17554429  0.67765468  0.47316855
   0.09843634  0.73708593  0.55807330
   0.00731018  0.82991326  0.63530599
   0.90585942  0.92112145  0.73347586
   0.85215269  0.02416804  0.83799768
   0.83611448  0.99049951  0.98696626
   0.72999342  0.06394096  0.07684270
   0.64618556  0.16470873  0.17739817
   0.55189319  0.23424781  0.24144603
   0.49184971  0.32296993  0.32829351
   0.40967553  0.40780892  0.40416829
   0.33634325  0.50993743  0.49217027
   0.26259685  0.59744198  0.56127711
   0.14868329  0.64491761  0.65576103
   0.08770009  0.73566368  0.72941753
   0.00050302  0.82730515  0.80561640
   0.92235596  0.91578249  0.87754364
