 432 432   0   0
  0.2356206E+02  0.2167200E-08  0.2167200E-08  0.2167200E-08  0.5000000E-15
  1.000000000000000E-004
  CAR 
 Li                                      
      2.88262511     -3.59197891  301      0.03400623      1.00000000
     -3.592  0.0000E+00  0.0000E+00
     -3.570  0.0000E+00  0.0000E+00
     -3.549  0.0000E+00  0.0000E+00
     -3.527  0.0000E+00  0.0000E+00
     -3.506  0.0000E+00  0.0000E+00
     -3.484  0.0000E+00  0.0000E+00
     -3.462  0.4115E-13  0.8882E-15
     -3.441  0.1007E-09  0.2175E-11
     -3.419  0.8834E-07  0.1909E-08
     -3.398  0.2818E-04  0.6101E-06
     -3.376  0.3293E-02  0.7169E-04
     -3.355  0.1424E+00  0.3145E-02
     -3.333  0.2305E+01  0.5289E-01
     -3.311  0.1415E+02  0.3584E+00
     -3.290  0.3338E+02  0.1079E+01
     -3.268  0.3044E+02  0.1736E+01
     -3.247  0.1079E+02  0.1969E+01
     -3.225  0.2974E+01  0.2033E+01
     -3.204  0.1415E+02  0.2338E+01
     -3.182  0.5557E+02  0.3538E+01
     -3.160  0.9775E+02  0.5647E+01
     -3.139  0.7755E+02  0.7321E+01
     -3.117  0.2733E+02  0.7911E+01
     -3.096  0.6799E+01  0.8058E+01
     -3.074  0.2046E+02  0.8499E+01
     -3.052  0.6577E+02  0.9919E+01
     -3.031  0.9857E+02  0.1205E+02
     -3.009  0.6764E+02  0.1351E+02
     -2.988  0.2143E+02  0.1397E+02
     -2.966  0.1369E+02  0.1426E+02
     -2.945  0.4907E+02  0.1532E+02
     -2.923  0.1047E+03  0.1758E+02
     -2.901  0.1163E+03  0.2009E+02
     -2.880  0.6741E+02  0.2155E+02
     -2.858  0.2425E+02  0.2207E+02
     -2.837  0.3151E+02  0.2275E+02
     -2.815  0.8603E+02  0.2461E+02
     -2.793  0.1471E+03  0.2778E+02
     -2.772  0.1546E+03  0.3112E+02
     -2.750  0.9667E+02  0.3320E+02
     -2.729  0.3323E+02  0.3392E+02
     -2.707  0.1824E+02  0.3431E+02
     -2.686  0.5213E+02  0.3544E+02
     -2.664  0.9141E+02  0.3741E+02
     -2.642  0.7881E+02  0.3911E+02
     -2.621  0.3721E+02  0.3992E+02
     -2.599  0.2952E+02  0.4055E+02
     -2.578  0.7193E+02  0.4211E+02
     -2.556  0.1269E+03  0.4484E+02
     -2.534  0.1464E+03  0.4800E+02
     -2.513  0.1148E+03  0.5048E+02
     -2.491  0.6540E+02  0.5189E+02
     -2.470  0.6155E+02  0.5322E+02
     -2.448  0.1152E+03  0.5571E+02
     -2.427  0.1713E+03  0.5940E+02
     -2.405  0.1959E+03  0.6363E+02
     -2.383  0.1662E+03  0.6722E+02
     -2.362  0.9274E+02  0.6922E+02
     -2.340  0.3687E+02  0.7002E+02
     -2.319  0.3720E+02  0.7082E+02
     -2.297  0.7808E+02  0.7250E+02
     -2.275  0.9336E+02  0.7452E+02
     -2.254  0.5768E+02  0.7576E+02
     -2.232  0.3771E+02  0.7658E+02
     -2.211  0.7128E+02  0.7811E+02
     -2.189  0.1247E+03  0.8081E+02
     -2.168  0.1543E+03  0.8414E+02
     -2.146  0.1424E+03  0.8721E+02
     -2.124  0.9662E+02  0.8930E+02
     -2.103  0.6731E+02  0.9075E+02
     -2.081  0.1052E+03  0.9302E+02
     -2.060  0.1672E+03  0.9663E+02
     -2.038  0.1905E+03  0.1007E+03
     -2.016  0.1669E+03  0.1043E+03
     -1.995  0.1134E+03  0.1068E+03
     -1.973  0.6615E+02  0.1082E+03
     -1.952  0.7650E+02  0.1099E+03
     -1.930  0.1275E+03  0.1126E+03
     -1.909  0.1523E+03  0.1159E+03
     -1.887  0.1226E+03  0.1186E+03
     -1.865  0.7531E+02  0.1202E+03
     -1.844  0.8237E+02  0.1220E+03
     -1.822  0.1419E+03  0.1250E+03
     -1.801  0.1876E+03  0.1291E+03
     -1.779  0.1828E+03  0.1330E+03
     -1.758  0.1384E+03  0.1360E+03
     -1.736  0.8971E+02  0.1379E+03
     -1.714  0.9113E+02  0.1399E+03
     -1.693  0.1485E+03  0.1431E+03
     -1.671  0.2102E+03  0.1476E+03
     -1.650  0.2129E+03  0.1522E+03
     -1.628  0.1299E+03  0.1550E+03
     -1.606  0.5395E+02  0.1562E+03
     -1.585  0.6281E+02  0.1576E+03
     -1.563  0.1128E+03  0.1600E+03
     -1.542  0.1332E+03  0.1629E+03
     -1.520  0.1226E+03  0.1655E+03
     -1.499  0.8771E+02  0.1674E+03
     -1.477  0.6816E+02  0.1689E+03
     -1.455  0.1042E+03  0.1711E+03
     -1.434  0.1434E+03  0.1742E+03
     -1.412  0.1356E+03  0.1771E+03
     -1.391  0.1091E+03  0.1795E+03
     -1.369  0.1192E+03  0.1821E+03
     -1.347  0.1745E+03  0.1858E+03
     -1.326  0.2311E+03  0.1908E+03
     -1.304  0.2546E+03  0.1963E+03
     -1.283  0.2372E+03  0.2014E+03
     -1.261  0.1979E+03  0.2057E+03
     -1.240  0.1575E+03  0.2091E+03
     -1.218  0.1441E+03  0.2122E+03
     -1.196  0.1685E+03  0.2159E+03
     -1.175  0.1896E+03  0.2200E+03
     -1.153  0.1789E+03  0.2238E+03
     -1.132  0.1340E+03  0.2267E+03
     -1.110  0.9686E+02  0.2288E+03
     -1.088  0.1102E+03  0.2312E+03
     -1.067  0.1529E+03  0.2345E+03
     -1.045  0.1667E+03  0.2381E+03
     -1.024  0.1260E+03  0.2408E+03
     -1.002  0.9110E+02  0.2428E+03
     -0.981  0.1267E+03  0.2455E+03
     -0.959  0.1882E+03  0.2496E+03
     -0.937  0.2191E+03  0.2543E+03
     -0.916  0.2201E+03  0.2590E+03
     -0.894  0.1920E+03  0.2632E+03
     -0.873  0.1454E+03  0.2663E+03
     -0.851  0.1124E+03  0.2687E+03
     -0.829  0.9032E+02  0.2707E+03
     -0.808  0.6535E+02  0.2721E+03
     -0.786  0.7566E+02  0.2737E+03
     -0.765  0.1327E+03  0.2766E+03
     -0.743  0.1923E+03  0.2807E+03
     -0.722  0.2233E+03  0.2856E+03
     -0.700  0.2294E+03  0.2905E+03
     -0.678  0.2165E+03  0.2952E+03
     -0.657  0.1877E+03  0.2992E+03
     -0.635  0.1739E+03  0.3030E+03
     -0.614  0.1926E+03  0.3072E+03
     -0.592  0.2299E+03  0.3121E+03
     -0.570  0.2612E+03  0.3177E+03
     -0.549  0.2567E+03  0.3233E+03
     -0.527  0.2129E+03  0.3279E+03
     -0.506  0.1570E+03  0.3313E+03
     -0.484  0.1290E+03  0.3341E+03
     -0.463  0.1279E+03  0.3368E+03
     -0.441  0.1342E+03  0.3397E+03
     -0.419  0.1523E+03  0.3430E+03
     -0.398  0.1705E+03  0.3467E+03
     -0.376  0.1964E+03  0.3509E+03
     -0.355  0.2325E+03  0.3559E+03
     -0.333  0.2576E+03  0.3615E+03
     -0.312  0.2616E+03  0.3671E+03
     -0.290  0.2454E+03  0.3724E+03
     -0.268  0.2058E+03  0.3769E+03
     -0.247  0.1727E+03  0.3806E+03
     -0.225  0.1728E+03  0.3843E+03
     -0.204  0.1898E+03  0.3884E+03
     -0.182  0.2063E+03  0.3929E+03
     -0.160  0.1992E+03  0.3972E+03
     -0.139  0.1753E+03  0.4010E+03
     -0.117  0.1552E+03  0.4043E+03
     -0.096  0.1511E+03  0.4076E+03
     -0.074  0.1654E+03  0.4111E+03
     -0.053  0.1765E+03  0.4150E+03
     -0.031  0.1895E+03  0.4190E+03
     -0.009  0.2017E+03  0.4234E+03
      0.012  0.2006E+03  0.4277E+03
      0.034  0.1960E+03  0.4320E+03
      0.055  0.2068E+03  0.4364E+03
      0.077  0.2278E+03  0.4413E+03
      0.099  0.2344E+03  0.4464E+03
      0.120  0.2277E+03  0.4513E+03
      0.142  0.2215E+03  0.4561E+03
      0.163  0.2150E+03  0.4607E+03
      0.185  0.2005E+03  0.4651E+03
      0.206  0.1831E+03  0.4690E+03
      0.228  0.1844E+03  0.4730E+03
      0.250  0.2147E+03  0.4776E+03
      0.271  0.2440E+03  0.4829E+03
      0.293  0.2580E+03  0.4885E+03
      0.314  0.2664E+03  0.4942E+03
      0.336  0.2697E+03  0.5000E+03
      0.358  0.2587E+03  0.5056E+03
      0.379  0.2466E+03  0.5109E+03
      0.401  0.2541E+03  0.5164E+03
      0.422  0.2662E+03  0.5222E+03
      0.444  0.2713E+03  0.5280E+03
      0.465  0.2721E+03  0.5339E+03
      0.487  0.2675E+03  0.5397E+03
      0.509  0.2560E+03  0.5452E+03
      0.530  0.2428E+03  0.5504E+03
      0.552  0.2328E+03  0.5555E+03
      0.573  0.2254E+03  0.5603E+03
      0.595  0.2258E+03  0.5652E+03
      0.617  0.2372E+03  0.5703E+03
      0.638  0.2492E+03  0.5757E+03
      0.660  0.2543E+03  0.5812E+03
      0.681  0.2526E+03  0.5866E+03
      0.703  0.2405E+03  0.5918E+03
      0.724  0.2303E+03  0.5968E+03
      0.746  0.2326E+03  0.6018E+03
      0.768  0.2293E+03  0.6068E+03
      0.789  0.2181E+03  0.6115E+03
      0.811  0.2090E+03  0.6160E+03
      0.832  0.2060E+03  0.6204E+03
      0.854  0.1978E+03  0.6247E+03
      0.875  0.1848E+03  0.6287E+03
      0.897  0.1817E+03  0.6326E+03
      0.919  0.1855E+03  0.6366E+03
      0.940  0.1907E+03  0.6407E+03
      0.962  0.1922E+03  0.6449E+03
      0.983  0.1701E+03  0.6485E+03
      1.005  0.1419E+03  0.6516E+03
      1.027  0.1491E+03  0.6548E+03
      1.048  0.1668E+03  0.6584E+03
      1.070  0.1637E+03  0.6619E+03
      1.091  0.1568E+03  0.6653E+03
      1.113  0.1621E+03  0.6688E+03
      1.134  0.1762E+03  0.6726E+03
      1.156  0.1917E+03  0.6768E+03
      1.178  0.1976E+03  0.6810E+03
      1.199  0.1877E+03  0.6851E+03
      1.221  0.1773E+03  0.6889E+03
      1.242  0.1749E+03  0.6927E+03
      1.264  0.1795E+03  0.6966E+03
      1.286  0.1847E+03  0.7005E+03
      1.307  0.1803E+03  0.7044E+03
      1.329  0.1840E+03  0.7084E+03
      1.350  0.1948E+03  0.7126E+03
      1.372  0.2005E+03  0.7169E+03
      1.393  0.2055E+03  0.7214E+03
      1.415  0.1999E+03  0.7257E+03
      1.437  0.1989E+03  0.7300E+03
      1.458  0.2081E+03  0.7345E+03
      1.480  0.2016E+03  0.7388E+03
      1.501  0.1854E+03  0.7428E+03
      1.523  0.1817E+03  0.7467E+03
      1.545  0.1808E+03  0.7507E+03
      1.566  0.1737E+03  0.7544E+03
      1.588  0.1649E+03  0.7580E+03
      1.609  0.1566E+03  0.7613E+03
      1.631  0.1523E+03  0.7646E+03
      1.652  0.1471E+03  0.7678E+03
      1.674  0.1353E+03  0.7707E+03
      1.696  0.1267E+03  0.7735E+03
      1.717  0.1318E+03  0.7763E+03
      1.739  0.1346E+03  0.7792E+03
      1.760  0.1246E+03  0.7819E+03
      1.782  0.1147E+03  0.7844E+03
      1.804  0.1112E+03  0.7868E+03
      1.825  0.1171E+03  0.7893E+03
      1.847  0.1185E+03  0.7919E+03
      1.868  0.9946E+02  0.7940E+03
      1.890  0.6331E+02  0.7954E+03
      1.911  0.2515E+02  0.7959E+03
      1.933  0.1111E+02  0.7961E+03
      1.955  0.2802E+02  0.7968E+03
      1.976  0.6102E+02  0.7981E+03
      1.998  0.8158E+02  0.7998E+03
      2.019  0.6798E+02  0.8013E+03
      2.041  0.3908E+02  0.8021E+03
      2.063  0.2950E+02  0.8028E+03
      2.084  0.4133E+02  0.8037E+03
      2.106  0.6753E+02  0.8051E+03
      2.127  0.8666E+02  0.8070E+03
      2.149  0.9290E+02  0.8090E+03
      2.170  0.1113E+03  0.8114E+03
      2.192  0.1322E+03  0.8143E+03
      2.214  0.1305E+03  0.8171E+03
      2.235  0.1278E+03  0.8198E+03
      2.257  0.1375E+03  0.8228E+03
      2.278  0.1412E+03  0.8258E+03
      2.300  0.1468E+03  0.8290E+03
      2.321  0.1587E+03  0.8324E+03
      2.343  0.1603E+03  0.8359E+03
      2.365  0.1453E+03  0.8390E+03
      2.386  0.1280E+03  0.8418E+03
      2.408  0.1110E+03  0.8442E+03
      2.429  0.1042E+03  0.8464E+03
      2.451  0.1088E+03  0.8488E+03
      2.473  0.1174E+03  0.8513E+03
      2.494  0.1255E+03  0.8540E+03
      2.516  0.1322E+03  0.8569E+03
      2.537  0.1416E+03  0.8599E+03
      2.559  0.1321E+03  0.8628E+03
      2.580  0.9279E+02  0.8648E+03
      2.602  0.4326E+02  0.8657E+03
      2.624  0.1106E+02  0.8660E+03
      2.645  0.1320E+01  0.8660E+03
      2.667  0.6655E-01  0.8660E+03
      2.688  0.1339E-02  0.8660E+03
      2.710  0.1037E-04  0.8660E+03
      2.732  0.3020E-07  0.8660E+03
      2.753  0.3258E-10  0.8660E+03
      2.775  0.1286E-13  0.8660E+03
      2.796  0.0000E+00  0.8660E+03
      2.818  0.0000E+00  0.8660E+03
      2.839  0.0000E+00  0.8660E+03
      2.861  0.0000E+00  0.8660E+03
      2.883  0.0000E+00  0.8660E+03
