 running on   64 total cores
 distrk:  each k-point on   32 cores,    2 groups
 distr:  one band on   32 cores,    1 groups
 vasp.6.2.1 16May21 (build Nov 23 2021 15:40:41) complex                        
  
 POSCAR found type information on POSCAR Li
 POSCAR found :  1 types and     432 ions
 scaLAPACK will be used
 -----------------------------------------------------------------------------
|                                                                             |
|           W    W    AA    RRRRR   N    N  II  N    N   GGGG   !!!           |
|           W    W   A  A   R    R  NN   N  II  NN   N  G    G  !!!           |
|           W    W  A    A  R    R  N N  N  II  N N  N  G       !!!           |
|           W WW W  AAAAAA  RRRRR   N  N N  II  N  N N  G  GGG   !            |
|           WW  WW  A    A  R   R   N   NN  II  N   NN  G    G                |
|           W    W  A    A  R    R  N    N  II  N    N   GGGG   !!!           |
|                                                                             |
|     For optimal performance we recommend to set                             |
|       NCORE = 2 up to number-of-cores-per-socket                            |
|     NCORE specifies how many cores store one orbital (NPAR=cpu/NCORE).      |
|     This setting can greatly improve the performance of VASP for DFT.       |
|     The default, NCORE=1 might be grossly inefficient on modern             |
|     multi-core architectures or massively parallel machines. Do your        |
|     own testing! More info at https://www.vasp.at/wiki/index.php/NCORE      |
|     Unfortunately you need to use the default for GW and RPA                |
|     calculations (for HF NCORE is supported but not extensively tested      |
|     yet).                                                                   |
|                                                                             |
 -----------------------------------------------------------------------------

 -----------------------------------------------------------------------------
|                                                                             |
|               ----> ADVICE to this user running VASP <----                  |
|                                                                             |
|     You have a (more or less) 'large supercell' and for larger cells it     |
|     might be more efficient to use real-space projection operators.         |
|     Therefore, try LREAL= Auto in the INCAR file.                           |
|     Mind: If you want to do very accurate calculations, keep the            |
|     reciprocal projection scheme (i.e. LREAL=.FALSE.).                      |
|                                                                             |
 -----------------------------------------------------------------------------

 LDA part: xc-table for Pade appr. of Perdew
 POSCAR found type information on POSCAR Li
 POSCAR found :  1 types and     432 ions
 POSCAR, INCAR and KPOINTS ok, starting setup
 FFT: planning ...
 WAVECAR not read
 entering main loop
       N       E                     dE             d eps       ncg     rms          rms(c)
DAV:   1    -0.272921506246E+03   -0.27292E+03   -0.10046E+05  3464   0.641E+02
DAV:   2    -0.752916010805E+03   -0.47999E+03   -0.43799E+03  4012   0.632E+01
DAV:   3    -0.788464156827E+03   -0.35548E+02   -0.32668E+02  4416   0.136E+01
DAV:   4    -0.789711698761E+03   -0.12475E+01   -0.12307E+01  4032   0.281E+00
DAV:   5    -0.789741025323E+03   -0.29327E-01   -0.29289E-01  4176   0.455E-01    0.901E+00
DAV:   6    -0.790877772852E+03   -0.11367E+01   -0.98366E+00  4192   0.550E+00    0.856E+00
DAV:   7    -0.778442040517E+03    0.12436E+02   -0.11244E+01  4200   0.484E+00    0.394E+00
DAV:   8    -0.777171095840E+03    0.12709E+01   -0.66812E+00  3952   0.216E+00    0.207E+00
DAV:   9    -0.776945551712E+03    0.22554E+00   -0.25037E+00  3800   0.131E+00    0.110E+00
DAV:  10    -0.776989864687E+03   -0.44313E-01   -0.40380E-01  4048   0.697E-01    0.921E-01
DAV:  11    -0.776900274381E+03    0.89590E-01   -0.16805E-01  3992   0.489E-01    0.493E-01
DAV:  12    -0.776893216893E+03    0.70575E-02   -0.55377E-02  3792   0.210E-01    0.246E-01
DAV:  13    -0.776892871562E+03    0.34533E-03   -0.17469E-02  3824   0.126E-01    0.134E-01
DAV:  14    -0.776892679005E+03    0.19256E-03   -0.36665E-03  4040   0.783E-02    0.968E-02
DAV:  15    -0.776891663080E+03    0.10159E-02   -0.13119E-03  3928   0.485E-02    0.483E-02
DAV:  16    -0.776891562869E+03    0.10021E-03   -0.77219E-04  3712   0.239E-02    0.176E-02
DAV:  17    -0.776891569879E+03   -0.70095E-05   -0.11585E-04  4176   0.126E-02    0.146E-02
DAV:  18    -0.776891547093E+03    0.22786E-04   -0.42978E-05  3840   0.809E-03    0.772E-03
DAV:  19    -0.776891541303E+03    0.57898E-05   -0.15313E-05  2392   0.425E-03
   1 F= -.77689154E+03 E0= -.77684696E+03  d E =-.891643E-01
