Li                                      
           1
    21.672000    0.000000    0.000000
     0.000000   21.672000    0.000000
     0.000000    0.000000   21.672000
   Li
   432
Direct configuration=     1
   0.98138102  0.00422548  0.01587937
   0.91578555  0.10492668  0.08982472
   0.83013659  0.17219531  0.17199877
   0.74020147  0.26538093  0.22966256
   0.66057171  0.34833393  0.32851966
   0.60673513  0.42052829  0.41450994
   0.50750707  0.50635049  0.50306662
   0.40681788  0.57012972  0.56586607
   0.31927693  0.65869918  0.64331592
   0.24562942  0.73286830  0.73643010
   0.15740238  0.82656025  0.83106700
   0.05592801  0.92186841  0.92249692
   0.05117438  0.90049076  0.05891045
   0.99803961  0.00748514  0.16670098
   0.91482348  0.08452563  0.25237844
   0.82775952  0.17364153  0.31870517
   0.75713022  0.27015861  0.40149886
   0.67328291  0.34328451  0.48325739
   0.59117132  0.41903852  0.58568206
   0.50601749  0.47438476  0.66208680
   0.42072001  0.58284971  0.74561215
   0.32221688  0.68525120  0.82359883
   0.24636167  0.72800817  0.91152011
   0.17537499  0.85648557  0.99187266
   0.16007259  0.84291778  0.15076528
   0.09323688  0.91028494  0.23730343
   0.00608110  0.99269840  0.30050040
   0.93005659  0.08964395  0.40950528
   0.82184489  0.17796998  0.49010273
   0.75104540  0.25552808  0.56971801
   0.65945478  0.32600708  0.63816488
   0.57699324  0.43292348  0.75875677
   0.51228188  0.50564112  0.83385296
   0.41713568  0.58096215  0.91103934
   0.34279601  0.66364818  0.00167164
   0.24171592  0.75429798  0.08988719
   0.22799349  0.75920823  0.24888140
   0.17944146  0.84336861  0.32607665
   0.08238782  0.92696834  0.41070521
   0.00625655  0.01052149  0.49803213
   0.91412705  0.06802300  0.57045444
   0.84638749  0.16700355  0.65669838
   0.75981849  0.23958032  0.76373342
   0.63814802  0.32324063  0.83965585
   0.56829339  0.40834553  0.90386342
   0.50779854  0.49271263  0.00092961
   0.42177719  0.59621983  0.09194458
   0.30994332  0.67784959  0.18933581
   0.31433739  0.66137337  0.33400380
   0.23834436  0.75352493  0.40300539
   0.15935548  0.83985110  0.51303468
   0.06972204  0.90251198  0.58261369
   0.01335401  0.02980834  0.66630665
   0.91118257  0.08820038  0.74016071
   0.85244475  0.17041104  0.83777720
   0.71779669  0.25397469  0.90026923
   0.65248478  0.32842886  0.99259153
   0.58514120  0.40143469  0.09370238
   0.52425071  0.52519362  0.17402747
   0.43682450  0.57880169  0.24225313
   0.41557803  0.57426286  0.42579941
   0.32077281  0.67693253  0.48586728
   0.22156598  0.73325826  0.59122236
   0.15474980  0.84447108  0.65996732
   0.06958264  0.91662473  0.75279175
   0.98628042  0.00311721  0.82066270
   0.94137309  0.10822770  0.92317978
   0.83176871  0.19302526  0.99173896
   0.74669720  0.25064884  0.06473957
   0.64143266  0.33197201  0.15634071
   0.58717338  0.42416855  0.26500007
   0.51011264  0.51334900  0.33683307
   0.02996498  0.07468168  0.94216310
   0.98065260  0.17571667  0.02575345
   0.91758290  0.27748565  0.08689617
   0.83477417  0.35068506  0.16201468
   0.74168033  0.42404696  0.23829704
   0.67338816  0.52393231  0.30880808
   0.58811691  0.60192609  0.42906410
   0.50680739  0.67279900  0.49407716
   0.39763027  0.76385711  0.59175024
   0.30941770  0.82275943  0.67842473
   0.24027242  0.91311428  0.75749080
   0.15765616  0.01370050  0.83618329
   0.16291776  0.99807964  0.00777476
   0.05394315  0.10046291  0.08405821
   0.99924913  0.19029910  0.16516825
   0.90724361  0.27822139  0.27016696
   0.82203387  0.36740030  0.34278000
   0.74668782  0.42832884  0.41822289
   0.69339663  0.50065039  0.50862762
   0.57408970  0.58880105  0.59649481
   0.48438223  0.69223275  0.66776643
   0.41925363  0.77314014  0.74903218
   0.33260655  0.80982445  0.84779996
   0.24292711  0.93884888  0.89853696
   0.24966137  0.91686899  0.08026033
   0.14604838  0.00730214  0.14745667
   0.08769190  0.09436868  0.24326937
   0.99766485  0.15620446  0.33605746
   0.92641540  0.26184571  0.41231400
   0.83031123  0.32411080  0.51379898
   0.75770443  0.43704386  0.58858314
   0.68059191  0.48972246  0.69196491
   0.57429126  0.59754348  0.75282543
   0.49050631  0.70108544  0.83195191
   0.42316594  0.75041914  0.92432673
   0.30612154  0.82794848  0.00373522
   0.31029372  0.83903089  0.13618788
   0.23167002  0.92765243  0.22923571
   0.15708948  0.99229312  0.33267859
   0.08153519  0.09693302  0.40909149
   0.01314811  0.15777820  0.50364726
   0.95263211  0.24993713  0.58863432
   0.81257187  0.33272711  0.65259143
   0.74671770  0.38689302  0.75636018
   0.66485335  0.50274893  0.81778389
   0.58054987  0.59997715  0.90577622
   0.51128549  0.68563250  0.99779770
   0.42608578  0.75406053  0.07522878
   0.39009827  0.75765951  0.24347638
   0.32831105  0.85649988  0.32820882
   0.24623136  0.92905673  0.43709039
   0.15009754  0.00092366  0.50291844
   0.11137043  0.07843334  0.61684550
   0.99565651  0.17482272  0.67250467
   0.94583608  0.27751457  0.74095977
   0.84933132  0.32456251  0.84218463
   0.75724544  0.38857704  0.91143373
   0.64754831  0.49448525  0.99305773
   0.56762641  0.59826427  0.09437505
   0.49313762  0.69785223  0.15457031
   0.47748645  0.63903163  0.35320179
   0.41873940  0.73746843  0.40706822
   0.30887301  0.83073912  0.50391167
   0.25813518  0.92070079  0.58823698
   0.15915833  0.99871497  0.66408710
   0.07444990  0.06690516  0.77410484
   0.99304235  0.17985825  0.82246945
   0.93587596  0.27074828  0.92038511
   0.85763775  0.33991253  0.98829957
   0.75152345  0.38812920  0.08838512
   0.66565477  0.50686627  0.15437423
   0.59324982  0.61512818  0.24981907
   0.14879398  0.16858010  0.86377007
   0.07129994  0.23485541  0.91207351
   0.00027209  0.34635792  0.98028380
   0.95002004  0.41460144  0.07644495
   0.84353834  0.49949280  0.16066573
   0.76299373  0.58266892  0.23832202
   0.67432427  0.67844784  0.34700202
   0.58115291  0.76071667  0.41645513
   0.50461276  0.81862485  0.52334371
   0.38982475  0.90477958  0.56011432
   0.30714403  0.98421000  0.66453673
   0.23783084  0.08149158  0.74289664
   0.24279222  0.09812992  0.92405506
   0.16351303  0.16645056  0.01583781
   0.07497966  0.25944276  0.07179128
   0.01681437  0.34207094  0.17373485
   0.93470524  0.40588032  0.26138220
   0.86433041  0.50441555  0.34649807
   0.78941570  0.58966096  0.42610103
   0.68523505  0.66801802  0.48983152
   0.59927302  0.74156692  0.58945800
   0.51180800  0.84728710  0.68122617
   0.42001240  0.87793960  0.76688467
   0.31468035  0.00710725  0.83399423
   0.31052558  0.00953844  0.98297420
   0.23041198  0.09492226  0.09212015
   0.14486755  0.17198412  0.16139738
   0.04714080  0.25648594  0.24876574
   0.00299768  0.34772361  0.32674529
   0.91759797  0.39173791  0.44639009
   0.83781459  0.48737360  0.50118737
   0.74931852  0.58285410  0.58174931
   0.67692446  0.65233424  0.68417103
   0.59470836  0.75300815  0.76082662
   0.50224372  0.85217224  0.82257964
   0.40620262  0.92269160  0.93240650
   0.40428506  0.93909140  0.07619648
   0.32460814  0.99966700  0.17739256
   0.25519702  0.08315051  0.23563717
   0.14555187  0.17596769  0.29985260
   0.09709182  0.22878150  0.38745644
   0.00340031  0.32721472  0.50372896
   0.94173130  0.41525777  0.58208470
   0.84413753  0.48779278  0.69224777
   0.74811767  0.59065671  0.75544330
   0.66764925  0.67149987  0.83001690
   0.58051819  0.78550783  0.91533121
   0.47938916  0.85361172  0.03040573
   0.52469889  0.82866583  0.14990908
   0.42193087  0.90767821  0.22866435
   0.34003780  0.99594142  0.32184576
   0.22311473  0.08820381  0.40634829
   0.17395795  0.14888515  0.51023221
   0.08701973  0.25204315  0.57848482
   0.01460315  0.33380222  0.66297480
   0.94213771  0.38254419  0.75284443
   0.85660060  0.47565291  0.81843685
   0.75310310  0.56396304  0.90417403
   0.66730512  0.66212352  0.98687489
   0.57098432  0.74914359  0.06557480
   0.58204603  0.73937781  0.26012527
   0.49514051  0.83241846  0.33168411
   0.42364847  0.89961687  0.43419096
   0.33235395  0.00465414  0.47819357
   0.25294009  0.08544975  0.57670764
   0.15591665  0.16049803  0.66654305
   0.10235247  0.25848504  0.75399194
   0.02455388  0.33318852  0.82945646
   0.96712007  0.41783509  0.93463316
   0.83805108  0.47796816  0.00631889
   0.75743576  0.57169035  0.08734938
   0.67393874  0.67789912  0.16523143
   0.24874413  0.24109856  0.75283301
   0.19513000  0.29996442  0.84651308
   0.09409201  0.42302586  0.93142819
   0.01108656  0.51310787  0.04346145
   0.91337720  0.57050344  0.08171834
   0.82514178  0.67504149  0.16283220
   0.77301068  0.75741755  0.25281527
   0.66191697  0.83477190  0.32292623
   0.58345469  0.90471163  0.41673382
   0.50033886  0.98733626  0.50735108
   0.39486871  0.06456973  0.58343343
   0.33144870  0.17408080  0.65500336
   0.33577153  0.16589761  0.82256678
   0.26900407  0.23872415  0.93914601
   0.16415811  0.34232000  0.00450039
   0.10546148  0.41309667  0.09582220
   0.02194579  0.50742437  0.17416724
   0.90367058  0.60216451  0.25407212
   0.84279352  0.67101657  0.33975867
   0.75245299  0.75231609  0.44088438
   0.66807422  0.85179986  0.49571552
   0.58086390  0.93488720  0.58322159
   0.48118420  0.98273751  0.66835308
   0.40832912  0.08636614  0.73240237
   0.41137363  0.09473832  0.91606627
   0.33631065  0.14906246  0.99413380
   0.26627365  0.23433626  0.06689180
   0.20665280  0.32901044  0.17326502
   0.09024907  0.40838343  0.22676520
   0.01828958  0.49915204  0.35084848
   0.92971765  0.57154109  0.43336899
   0.84455613  0.65005708  0.51745007
   0.75207657  0.75575666  0.59576670
   0.66108469  0.86043863  0.67358508
   0.58999815  0.92788668  0.76586298
   0.48094940  0.00319327  0.84127595
   0.49067833  0.01495713  0.97162971
   0.40238186  0.07547575  0.07019504
   0.33167406  0.16822540  0.15751036
   0.26239508  0.23730678  0.25010344
   0.15516185  0.31111891  0.33436860
   0.06437339  0.39855387  0.41309151
   0.02023120  0.48724504  0.49592538
   0.91793345  0.55671638  0.61252697
   0.84228594  0.64187541  0.65149983
   0.73920051  0.72397228  0.75349675
   0.69343706  0.81934960  0.83578467
   0.58193560  0.90281600  0.91526458
   0.58923018  0.93697051  0.07422103
   0.51371406  0.00298397  0.14138013
   0.41739737  0.07290929  0.21575243
   0.35605253  0.15586358  0.33685618
   0.26185549  0.22742282  0.40581863
   0.15715014  0.32731910  0.49064489
   0.08002762  0.41708296  0.59820498
   0.99676153  0.48745400  0.67790251
   0.91827788  0.60027224  0.77444413
   0.82086736  0.67052993  0.84625888
   0.75397845  0.76328893  0.91500427
   0.67492293  0.84350838  0.99347180
   0.65288090  0.83611636  0.17679305
   0.58552684  0.92025272  0.25275299
   0.49420891  0.99663877  0.32869787
   0.42596550  0.08400989  0.43217028
   0.36269244  0.14611427  0.50716809
   0.24000241  0.24429732  0.58105354
   0.17611849  0.31471087  0.66856553
   0.09302112  0.40346307  0.77688823
   0.01111368  0.49335210  0.85324448
   0.91914617  0.56726945  0.93090074
   0.79924172  0.65516285  0.00195979
   0.75519242  0.76169023  0.07095070
   0.33827670  0.32251974  0.66106434
   0.25935423  0.39347846  0.73828281
   0.16652955  0.51180503  0.85511695
   0.09999305  0.60122015  0.93817702
   0.99660858  0.66201135  0.01012584
   0.89180885  0.74710354  0.05886121
   0.82473891  0.83900480  0.17119137
   0.76719833  0.90570297  0.25744864
   0.67506486  0.98698090  0.35465539
   0.57808748  0.06495689  0.41455185
   0.52337629  0.14632177  0.49929267
   0.43000118  0.24109188  0.58834718
   0.38647888  0.24709519  0.73530324
   0.33613118  0.32070850  0.85456190
   0.26090747  0.40874296  0.90611086
   0.18568708  0.48449131  0.01139123
   0.10679557  0.60001486  0.08826276
   0.99789499  0.67159253  0.15096673
   0.90946145  0.77028782  0.24386478
   0.83856250  0.81320134  0.34404243
   0.76569180  0.91245630  0.44737025
   0.66764225  0.99003328  0.49593951
   0.58027631  0.07127673  0.60580014
   0.50837168  0.17500897  0.66741097
   0.47535088  0.17379812  0.80357407
   0.40487770  0.24212495  0.89702101
   0.34900592  0.34009012  0.02043824
   0.24736437  0.41616323  0.08628449
   0.17942249  0.49273015  0.16471158
   0.08231629  0.56150091  0.25012569
   0.01294012  0.67828322  0.31896312
   0.90162900  0.73368159  0.41502038
   0.83744658  0.81868588  0.51579731
   0.76266020  0.91901489  0.59358996
   0.66781616  0.99224035  0.66065290
   0.55871796  0.06574758  0.75039137
   0.57103394  0.08094234  0.89051993
   0.49193738  0.14695309  0.96906899
   0.41687114  0.26314538  0.08390459
   0.36157479  0.34487824  0.18417358
   0.24973728  0.40794848  0.28074247
   0.12702530  0.50159836  0.32853312
   0.07117643  0.59154714  0.41299078
   0.99695361  0.65831238  0.50118684
   0.92561026  0.75159408  0.59449779
   0.83704669  0.83106203  0.69316246
   0.75955533  0.91700567  0.74786545
   0.66604307  0.99964766  0.84031962
   0.66178749  0.02353319  0.97016560
   0.59376324  0.07857179  0.07869677
   0.51547733  0.16886090  0.15955324
   0.42528758  0.23374529  0.27114921
   0.34722697  0.32254379  0.33445332
   0.23064816  0.39412759  0.41097972
   0.12088578  0.49215854  0.50345996
   0.06348120  0.58228218  0.58297812
   0.00410789  0.67029798  0.66440862
   0.90492466  0.70666201  0.75805131
   0.84140411  0.84145626  0.82037185
   0.74385779  0.92692085  0.92101151
   0.75302782  0.92802025  0.06488569
   0.66087899  0.01207958  0.15571448
   0.61289856  0.06335841  0.25205113
   0.49816794  0.13605404  0.34205331
   0.43811987  0.25238227  0.44284641
   0.33898193  0.33408106  0.49829682
   0.22728115  0.38755554  0.56050950
   0.15443745  0.51732940  0.67471646
   0.07097647  0.58889622  0.76254309
   0.00368888  0.64292416  0.84548328
   0.90275542  0.73894746  0.90841804
   0.84804546  0.85680423  0.99697240
   0.41483400  0.39974489  0.58435607
   0.31797815  0.48198083  0.64887952
   0.26003520  0.58814937  0.74982773
   0.16167179  0.64263791  0.83663539
   0.08678842  0.76183445  0.95203452
   0.97014921  0.82020780  0.00114748
   0.90670244  0.91738048  0.08905321
   0.82788700  0.01214441  0.14721536
   0.74153549  0.09598667  0.23483701
   0.65680121  0.17224461  0.32426654
   0.57679809  0.26560334  0.41450101
   0.51615432  0.34288194  0.50488980
   0.50063586  0.32144592  0.67022961
   0.40689822  0.39366375  0.74454917
   0.32766382  0.50118745  0.82529648
   0.26545854  0.60812945  0.92189402
   0.19834161  0.66146074  0.02751023
   0.08428048  0.76444366  0.05495650
   0.98611927  0.83454620  0.15390353
   0.90099493  0.92109228  0.24033226
   0.81968438  0.99348078  0.32202681
   0.76108536  0.08565875  0.41019888
   0.67703740  0.13399172  0.47189399
   0.59354425  0.23544203  0.56449405
   0.58599159  0.24562904  0.74762401
   0.48696281  0.34342079  0.82192278
   0.40950941  0.42525739  0.91322303
   0.34029042  0.49868280  0.99100544
   0.26163691  0.57909156  0.09703773
   0.16671270  0.66718754  0.17031884
   0.09607724  0.74394023  0.22226625
   0.01711185  0.83568989  0.31177249
   0.92161391  0.91606551  0.38616256
   0.85629679  0.00886808  0.49229129
   0.75534740  0.08279909  0.57786780
   0.68684817  0.14385414  0.68353690
   0.64667293  0.16167732  0.81257117
   0.59296619  0.23276416  0.92484733
   0.48519138  0.31809173  0.00677107
   0.45373556  0.42787813  0.10114722
   0.34970849  0.48860353  0.18417026
   0.24883007  0.58057368  0.25509539
   0.14501610  0.65006981  0.31726766
   0.09440163  0.76215647  0.42250059
   0.00136016  0.83964391  0.48673046
   0.92239210  0.90864259  0.59954290
   0.84334745  0.01511204  0.67445641
   0.76599794  0.07638266  0.76183195
   0.76933510  0.10914554  0.91154910
   0.65348271  0.16639809  0.00377306
   0.56905883  0.23806984  0.06978631
   0.49615453  0.31058806  0.18651580
   0.45697916  0.41834305  0.25867208
   0.31884227  0.49274774  0.34103131
   0.20886706  0.56831392  0.42369129
   0.14372178  0.68176248  0.50158161
   0.05903207  0.77198289  0.58314564
   0.00617221  0.85228243  0.68737366
   0.93035504  0.93989228  0.74385372
   0.84672417  0.01329643  0.85061789
   0.84838436  0.03406877  0.00649870
   0.75126740  0.10544878  0.07661556
   0.65004056  0.17059364  0.17122269
   0.57352515  0.23311536  0.25504858
   0.50712896  0.32367467  0.34655790
   0.43389341  0.42100266  0.40813592
   0.32060055  0.47416496  0.50319680
   0.23522186  0.57368368  0.58397367
   0.15685741  0.65111420  0.68045230
   0.09621328  0.75235246  0.75946398
   0.00197095  0.83073756  0.82729691
   0.92777380  0.93783360  0.91075893
