Li                                      
           1
   -11.179105   19.362778   -0.000000
   -19.164180  -11.064444   -0.000000
     0.000000   -0.000000   23.447950
   Li
   504
Direct configuration=     1
   0.99825977  0.00012732  0.99385729
   0.92619107  0.04734963  0.67020865
   0.85629732  0.08302943  0.33911845
   0.78006053  0.12708763  0.98748948
   0.71501748  0.17453901  0.65888437
   0.64301738  0.20938542  0.31360047
   0.56565385  0.24486742  0.98788691
   0.49352864  0.29476043  0.66724144
   0.43668663  0.33586107  0.32771496
   0.35145538  0.37270445  0.00206607
   0.29237198  0.41424811  0.67079652
   0.20955452  0.45853180  0.32408373
   0.06817006  0.04055609  0.67368209
   0.99715586  0.08381841  0.34225717
   0.91962737  0.11667628  0.99936084
   0.85428930  0.16740791  0.65977266
   0.78667163  0.21520108  0.32416054
   0.70375685  0.24772112  0.99065177
   0.64220156  0.28774084  0.66627716
   0.57064913  0.33621827  0.33229225
   0.49744933  0.37429134  0.99998162
   0.43464964  0.41248809  0.66018778
   0.35911049  0.45584998  0.32168688
   0.29106413  0.49773666  0.00592428
   0.14289353  0.08482589  0.34597683
   0.06050669  0.12612051  0.99594394
   0.99797954  0.17229306  0.66910812
   0.92647465  0.21769783  0.33557884
   0.85416332  0.25231595  0.99527330
   0.78082498  0.29048229  0.66503409
   0.72148059  0.33253629  0.33862162
   0.63866457  0.37622444  0.00603484
   0.56999558  0.41239062  0.66596493
   0.50275817  0.46292275  0.33121337
   0.43540200  0.50726364  0.00021875
   0.36720001  0.53652202  0.67338200
   0.20815875  0.13234464  0.99884163
   0.13894788  0.17332106  0.66556594
   0.07358502  0.20774311  0.33029353
   0.99999444  0.24492567  0.01655113
   0.92170326  0.29031205  0.68008523
   0.86351289  0.34705931  0.33889267
   0.78130927  0.36968887  0.99976174
   0.72174602  0.41747661  0.66307815
   0.64405791  0.45203216  0.33738980
   0.57010172  0.48790947  0.00785061
   0.50602985  0.54711325  0.66173571
   0.43086681  0.57781097  0.33156864
   0.27492561  0.16799637  0.65611707
   0.21621634  0.21501127  0.33236037
   0.13272841  0.25017965  0.00108610
   0.07617187  0.29172466  0.67932402
   0.99608412  0.33457692  0.34044191
   0.93024695  0.37242575  0.00221232
   0.85427979  0.41614127  0.66329145
   0.77826570  0.45818298  0.33082089
   0.71674545  0.49396290  0.00669300
   0.64305979  0.53822747  0.66320489
   0.56391093  0.58096837  0.33343218
   0.50083149  0.61764854  0.99697086
   0.35747822  0.21288520  0.32353294
   0.27643187  0.24930455  0.00964833
   0.21647565  0.29541035  0.66090575
   0.14786999  0.33224136  0.33519719
   0.07041971  0.36783765  0.00201815
   0.00790276  0.41907521  0.66703587
   0.92645287  0.45690135  0.33871622
   0.85976042  0.50008381  0.99417753
   0.78243259  0.54189550  0.65528293
   0.70821733  0.58165795  0.32759267
   0.64518726  0.61279645  0.00264206
   0.56776746  0.66497562  0.66492597
   0.42500605  0.25329101  0.99591292
   0.36593080  0.28892200  0.67167067
   0.28632162  0.33425243  0.32580305
   0.21040047  0.37492498  0.00438996
   0.14835775  0.41687292  0.66655491
   0.07174341  0.45864599  0.33665281
   0.00905787  0.50147704  0.00267935
   0.92612459  0.54639634  0.67295623
   0.85251543  0.58427180  0.33300914
   0.79435603  0.61600410  0.00222014
   0.71487180  0.66130446  0.65409773
   0.64231961  0.70130944  0.34233527
   0.15039224  0.50678908  0.99248412
   0.07377489  0.54221299  0.65871734
   0.00748128  0.57820396  0.33266604
   0.94118398  0.62533913  0.98903023
   0.85579312  0.66805559  0.66417827
   0.77945912  0.70801336  0.32912890
   0.72578015  0.74475023  0.01301604
   0.21980900  0.54299582  0.65783895
   0.14971629  0.57495690  0.31720587
   0.08065968  0.62880999  0.00206907
   0.99405293  0.67096386  0.67160846
   0.93153720  0.70811862  0.32086661
   0.87038569  0.74620491  0.00579106
   0.78641057  0.78964806  0.65855713
   0.28358821  0.57939843  0.31735643
   0.22931959  0.62613240  0.99581217
   0.14374851  0.66040169  0.66553194
   0.07392689  0.70343909  0.32959048
   0.00964416  0.74743331  0.99671138
   0.92796701  0.79592388  0.65904684
   0.85808411  0.82235505  0.32263360
   0.36405031  0.62149010  0.01232896
   0.29278292  0.66378860  0.67664503
   0.21711878  0.70080319  0.32143972
   0.15390750  0.74769759  0.01127503
   0.07382637  0.79599890  0.66887956
   0.00243973  0.83231142  0.32513418
   0.92830181  0.88217551  0.99048880
   0.43288424  0.66335305  0.66377866
   0.35460718  0.70315872  0.33358897
   0.28962310  0.75942544  0.99976661
   0.21997534  0.79169837  0.66837467
   0.14208638  0.83795681  0.32333644
   0.08238705  0.87329453  0.00366488
   0.00346139  0.92088114  0.67059728
   0.93119908  0.95209496  0.32852122
   0.85540429  0.99376603  0.99305874
   0.77877248  0.04626813  0.66002390
   0.71592811  0.08909818  0.32352493
   0.64158009  0.12424707  0.99722140
   0.57271785  0.17017453  0.66411662
   0.50201238  0.22844834  0.32463225
   0.07122447  0.96732316  0.34057939
   0.14445093  0.99578496  0.00463041
   0.21161447  0.03473044  0.66173997
   0.28316709  0.09603672  0.32784876
   0.35528828  0.12058290  0.01539174
   0.42357718  0.16299402  0.65894549
   0.85805120  0.91544089  0.66955063
   0.78968698  0.95289890  0.31864825
   0.71333580  0.99931934  0.99033369
   0.64111399  0.04437343  0.65797125
   0.57028686  0.10291184  0.32223111
   0.49048796  0.13023842  0.99712738
   0.14360342  0.90949336  0.66700172
   0.21691587  0.95638926  0.32986347
   0.28568542  0.99779124  0.01281365
   0.35113190  0.04742409  0.64867851
   0.43732674  0.09320106  0.33990247
   0.77440874  0.87194199  0.99616511
   0.71738651  0.91914645  0.65674862
   0.64123691  0.95905005  0.32106350
   0.57428614  0.99775637  0.99874817
   0.49864570  0.04375941  0.67060740
   0.21910019  0.87843482  0.01253292
   0.29154130  0.90850122  0.66721214
   0.36215795  0.95601993  0.33658231
   0.42175220  0.99575379  0.99612095
   0.70969268  0.83291708  0.31615868
   0.64148205  0.87217983  0.01131944
   0.57763537  0.91422758  0.67209577
   0.51076425  0.96221714  0.33653007
   0.29338394  0.83880934  0.34366664
   0.36781351  0.87516972  0.00210098
   0.42376565  0.92485115  0.67804070
   0.64782394  0.79303895  0.67248216
   0.57053578  0.83307442  0.33942246
   0.49558489  0.86851263  0.99826144
   0.35670158  0.79028306  0.66533598
   0.43035952  0.83334368  0.33284617
   0.57668770  0.74897654  0.01509033
   0.50136462  0.78312775  0.66076673
   0.43467541  0.75195157  0.00963646
   0.49999677  0.70927882  0.33739770
   0.99554612  0.00370440  0.76926061
   0.92363748  0.03824321  0.44967095
   0.85533775  0.08607181  0.09443663
   0.78388191  0.12639110  0.76951280
   0.70659000  0.16113114  0.44288611
   0.65510610  0.20540892  0.10644392
   0.55213516  0.26994281  0.77060208
   0.50160630  0.29275361  0.44030152
   0.43953280  0.31856325  0.10345230
   0.34299678  0.37606811  0.76924240
   0.29275570  0.42551842  0.45194500
   0.23094991  0.46066460  0.11364856
   0.06196663  0.04543541  0.45113351
   0.01483303  0.08595132  0.10848574
   0.92235084  0.12442059  0.76778194
   0.85037969  0.15361056  0.44523098
   0.78876367  0.21950073  0.10504378
   0.70386525  0.25171328  0.76735497
   0.63541570  0.27804163  0.45036266
   0.57370985  0.33831305  0.10383768
   0.48284115  0.38256014  0.77256898
   0.43401833  0.42607267  0.44595249
   0.35846197  0.44394064  0.10589221
   0.29006173  0.51898274  0.78548168
   0.13946965  0.07750769  0.11685995
   0.07053252  0.12664138  0.77471285
   0.00736643  0.16588006  0.46004225
   0.92990706  0.20893331  0.12556124
   0.84904733  0.24994222  0.78858650
   0.77528098  0.27447088  0.43653493
   0.72707305  0.34006479  0.10972243
   0.63212716  0.38842411  0.77270349
   0.57855030  0.40415695  0.45586979
   0.50258268  0.45550535  0.10601675
   0.41884170  0.51669106  0.77904715
   0.35959045  0.55356352  0.44393181
   0.20964244  0.12695643  0.78733773
   0.13539245  0.17219911  0.45424362
   0.06511467  0.20311960  0.12714253
   0.99562831  0.24051818  0.78316825
   0.91757169  0.28256212  0.45851339
   0.86899490  0.34556850  0.11683864
   0.77417362  0.36777949  0.76898558
   0.71834007  0.41684477  0.46134292
   0.65278484  0.45912783  0.10920551
   0.57196235  0.50519691  0.77786333
   0.50940342  0.54409721  0.44210273
   0.44147144  0.57773948  0.12355040
   0.27860037  0.16265671  0.42710024
   0.20870333  0.19944186  0.12063568
   0.14762945  0.25531730  0.78200836
   0.05914119  0.28916859  0.45801359
   0.00207773  0.33957057  0.11958138
   0.91762769  0.36886627  0.78262415
   0.87023777  0.40771954  0.44232869
   0.79428636  0.46669365  0.11823972
   0.71769136  0.50658640  0.76755978
   0.64567309  0.54777077  0.44984260
   0.57005305  0.57039178  0.10640019
   0.48997772  0.63227673  0.77266190
   0.35400073  0.21189421  0.11402004
   0.28795083  0.24430183  0.78658628
   0.21530985  0.28788520  0.44762899
   0.15169485  0.32726262  0.11788789
   0.07291970  0.37508131  0.78596076
   0.01696152  0.41748555  0.44310752
   0.93933686  0.47046301  0.12027523
   0.85232940  0.50020329  0.77980270
   0.79093326  0.53635166  0.44048770
   0.71756552  0.59993057  0.12072574
   0.63099090  0.63529315  0.77365464
   0.58125741  0.66254554  0.44717825
   0.41810292  0.26302199  0.76508464
   0.35556910  0.30247461  0.44193153
   0.28865532  0.31769798  0.11583609
   0.21186076  0.37492723  0.78036326
   0.14648378  0.41216079  0.44560767
   0.07330506  0.45511291  0.10595157
   0.00025435  0.49664736  0.77499756
   0.93458564  0.53184641  0.44076031
   0.85481616  0.59142895  0.11239662
   0.78605693  0.61990978  0.76212711
   0.72345902  0.66970658  0.44941588
   0.63175931  0.70620052  0.12731479
   0.13867713  0.50333051  0.78527585
   0.06901713  0.53736376  0.44187091
   0.99889689  0.58978554  0.10887351
   0.93244919  0.62590817  0.77415891
   0.86849918  0.65814005  0.44052387
   0.77613159  0.71452600  0.09563592
   0.71473289  0.74645283  0.77809022
   0.20798544  0.54453179  0.43987465
   0.14323124  0.59576616  0.09642448
   0.06918670  0.62088956  0.77664386
   0.99108318  0.67143087  0.42435654
   0.92592540  0.70345730  0.11328439
   0.84938410  0.74230684  0.77314989
   0.78580470  0.79423734  0.44328693
   0.28532987  0.57737515  0.10516467
   0.21723265  0.62078366  0.77281996
   0.13894543  0.66510367  0.43754893
   0.06651627  0.70859173  0.10695873
   0.00097558  0.73916523  0.76871740
   0.92169204  0.80097053  0.43921236
   0.86059192  0.82673518  0.12376660
   0.35158213  0.63874296  0.77208763
   0.29433609  0.67479139  0.43324502
   0.21421452  0.70229697  0.12102270
   0.13929298  0.74124619  0.78352389
   0.06094704  0.79289694  0.44292913
   0.99484484  0.83127745  0.10824529
   0.91712959  0.86633149  0.77932736
   0.42632847  0.66291528  0.44598844
   0.36172955  0.69910146  0.10942133
   0.27602905  0.74096457  0.77902619
   0.20905118  0.77932589  0.44155324
   0.13971702  0.82857838  0.10796691
   0.07130359  0.87155054  0.77452400
   0.99407677  0.92343198  0.43999384
   0.93146823  0.95965077  0.10283055
   0.85864627  0.99904360  0.77859440
   0.77128036  0.04020517  0.44079854
   0.72165985  0.09105692  0.09440085
   0.62820683  0.13337011  0.77197080
   0.56250357  0.16029226  0.44489333
   0.52051698  0.20623556  0.09887965
   0.08819324  0.95034977  0.10788643
   0.14568975  0.99495222  0.77842489
   0.21430223  0.04670381  0.43978821
   0.28527585  0.07653269  0.11889762
   0.34873901  0.12208424  0.76466128
   0.41937156  0.17094608  0.43777765
   0.84258945  0.91784459  0.44129408
   0.78703031  0.96461161  0.10213336
   0.71906438  0.01045899  0.77127265
   0.63022114  0.03234976  0.44538995
   0.57805423  0.08146266  0.11351034
   0.49108721  0.12794369  0.77006501
   0.13461938  0.91990165  0.44459869
   0.21645508  0.96165313  0.11941977
   0.29049871  0.00155769  0.78228266
   0.35401031  0.04221908  0.43385702
   0.44730440  0.08599110  0.12559465
   0.77313455  0.86903923  0.77985146
   0.70517766  0.91281846  0.43586000
   0.64669925  0.96547372  0.10023715
   0.56679026  0.00333118  0.79000672
   0.48315216  0.02693097  0.45228695
   0.21749979  0.86898359  0.78661388
   0.28137164  0.90975404  0.44740454
   0.36284514  0.94541162  0.12106216
   0.42398244  0.01246986  0.78073728
   0.71256963  0.83214191  0.11956371
   0.64228039  0.89082395  0.77805515
   0.55384247  0.90713300  0.44391732
   0.50635918  0.94610985  0.10724230
   0.27577507  0.82355321  0.11168677
   0.35160649  0.88005968  0.78662948
   0.42163982  0.90451358  0.44971741
   0.64931270  0.78801609  0.44146761
   0.57358907  0.83994382  0.12823400
   0.49150398  0.88021777  0.76971784
   0.35154241  0.79783531  0.44057796
   0.43023675  0.82913046  0.12533218
   0.56722637  0.75458584  0.77827587
   0.49709012  0.78199887  0.45804287
   0.44003580  0.75589062  0.77054058
   0.49957761  0.70608998  0.12896134
   0.00031768  0.99926805  0.21617801
   0.92981247  0.04813631  0.88081108
   0.85953032  0.07125094  0.55903683
   0.77851137  0.12601006  0.21764498
   0.72713441  0.17007975  0.89196711
   0.63690972  0.19158427  0.56522826
   0.57810019  0.26658248  0.21700851
   0.50627067  0.28628076  0.88601167
   0.41873478  0.33484783  0.55625842
   0.35651872  0.37990107  0.20672723
   0.28130120  0.41759271  0.90156574
   0.21488434  0.45625200  0.56202720
   0.07450136  0.04679598  0.89145275
   0.99473660  0.08405784  0.56280410
   0.93699459  0.12751372  0.22154470
   0.85922254  0.17125099  0.89543267
   0.79018582  0.20509234  0.55220619
   0.70938489  0.25043683  0.22409886
   0.64352136  0.29332882  0.86970418
   0.56842304  0.32704966  0.55995427
   0.51310842  0.37978311  0.22472783
   0.42873379  0.40866574  0.88636063
   0.35415254  0.46465021  0.56175792
   0.29026265  0.50255772  0.21091745
   0.13644089  0.09289990  0.55935094
   0.06969978  0.12335512  0.23144982
   0.00496275  0.16696672  0.89287508
   0.92391033  0.20302614  0.55385517
   0.85159008  0.24462851  0.21940542
   0.78093011  0.29542417  0.88266202
   0.71236036  0.32069480  0.56070769
   0.64484139  0.38429516  0.22995975
   0.57286382  0.42589637  0.88829036
   0.50483451  0.45416712  0.55331775
   0.43744974  0.49743663  0.21585592
   0.36231865  0.54409087  0.89078834
   0.21151577  0.12362016  0.23176359
   0.13691678  0.16241285  0.87903686
   0.06175919  0.20782314  0.57651664
   0.00213012  0.24801061  0.22033902
   0.93185146  0.28943142  0.89101389
   0.85898852  0.34193135  0.56584479
   0.78838385  0.38813753  0.22578680
   0.70485742  0.41035779  0.88439875
   0.65048483  0.44939771  0.55310854
   0.57543496  0.50834080  0.22200160
   0.50085416  0.55057789  0.88698110
   0.43134374  0.57720109  0.55572025
   0.29159578  0.16474853  0.90903877
   0.20591806  0.20510618  0.55022572
   0.13758112  0.25210937  0.23242530
   0.06538025  0.29801377  0.89903162
   0.98802539  0.33413197  0.55928127
   0.93952121  0.38718534  0.23210676
   0.83310221  0.40343822  0.88025644
   0.78465703  0.46236940  0.55914309
   0.71611551  0.51625437  0.22173404
   0.64438605  0.55430497  0.89696208
   0.56915847  0.57261755  0.56200598
   0.50033323  0.62917908  0.23077182
   0.35576253  0.20686750  0.55649561
   0.27767388  0.25118517  0.22832041
   0.20655648  0.28611863  0.89538851
   0.13390211  0.33862024  0.56286059
   0.06503030  0.37807968  0.22718328
   0.98501302  0.41447100  0.90320959
   0.92345533  0.46378526  0.55225661
   0.86273826  0.50946350  0.21831986
   0.77668278  0.53316093  0.88611036
   0.71097499  0.58482320  0.55279442
   0.64340187  0.63072883  0.22848635
   0.55809342  0.67070346  0.89054311
   0.42063070  0.25554763  0.22717971
   0.35498232  0.28743202  0.88359470
   0.28519276  0.32268936  0.54448836
   0.22063985  0.36585380  0.22361237
   0.13666683  0.41392403  0.89165095
   0.07510100  0.45072031  0.55381127
   0.00535581  0.50773015  0.22314574
   0.90532512  0.53770106  0.88774445
   0.86693450  0.57550457  0.55348637
   0.79828196  0.62240726  0.21603937
   0.70474311  0.65730537  0.89451390
   0.66041105  0.70024457  0.55617684
   0.15033391  0.50596341  0.21069219
   0.05622296  0.52363457  0.88576636
   0.01083430  0.58886281  0.54960225
   0.93684551  0.62521866  0.22085495
   0.85937700  0.65703003  0.89159037
   0.79641095  0.69806473  0.55580954
   0.72019234  0.76088418  0.22597579
   0.21197990  0.54123807  0.88647815
   0.14053954  0.57397842  0.54313692
   0.08330625  0.62397888  0.21250992
   0.98866780  0.67179940  0.88661162
   0.94117533  0.71687086  0.56482165
   0.86854261  0.75013447  0.22223934
   0.76862394  0.78201376  0.89374539
   0.28402744  0.59150656  0.54712736
   0.22350391  0.63370583  0.21923680
   0.13480082  0.66138289  0.90129590
   0.08460294  0.70577493  0.54547681
   0.01163912  0.75244642  0.21041833
   0.91319295  0.80521546  0.88456073
   0.85737576  0.84400056  0.56110891
   0.36835338  0.62514673  0.23175883
   0.27510069  0.65785652  0.90216287
   0.22427389  0.69616240  0.55317497
   0.14709778  0.74210703  0.21720341
   0.05305903  0.80275593  0.89372711
   0.01206462  0.83243987  0.55286534
   0.92759552  0.87473392  0.22768213
   0.42738875  0.67160150  0.90272503
   0.36564976  0.70503270  0.55340845
   0.29464903  0.75018714  0.22537249
   0.20349034  0.78258827  0.90215431
   0.15642400  0.83333770  0.56188906
   0.07960761  0.87292863  0.21813298
   0.98464039  0.92283065  0.88910994
   0.94820257  0.94919946  0.55335769
   0.85059372  0.99698694  0.20942677
   0.79421920  0.04129115  0.87604110
   0.72122912  0.06658697  0.55066688
   0.63414281  0.13653345  0.20713597
   0.57784800  0.15993785  0.88034488
   0.50370751  0.21526999  0.56576539
   0.07742807  0.95560598  0.55854775
   0.13834272  0.00653836  0.23144196
   0.22096599  0.04051457  0.88773999
   0.28979164  0.08768736  0.53838097
   0.35764628  0.13052277  0.22566631
   0.43318721  0.16590490  0.88464577
   0.85645973  0.91520799  0.88145854
   0.78966558  0.95177392  0.55587887
   0.71456703  0.01009938  0.21039018
   0.65114490  0.04816770  0.88647717
   0.57425483  0.06102968  0.55893201
   0.48283223  0.13374009  0.22594898
   0.13953009  0.92179422  0.88977708
   0.23231186  0.95630321  0.55377042
   0.29008675  0.00120439  0.23160357
   0.36319721  0.04714076  0.88961404
   0.43952852  0.09077574  0.55115538
   0.78972262  0.88131179  0.21667973
   0.72906222  0.91333914  0.89680859
   0.64876418  0.94447728  0.54745958
   0.56575616  0.00142109  0.22259117
   0.50201178  0.03793861  0.90020300
   0.20499324  0.87642206  0.22416650
   0.28550019  0.92784364  0.90210386
   0.35830974  0.97463851  0.55920014
   0.43129868  0.00000575  0.23197748
   0.72110823  0.83285937  0.54913833
   0.64214791  0.88179020  0.21808685
   0.57331232  0.91748737  0.89871633
   0.50159947  0.95071184  0.55818379
   0.28911319  0.84183289  0.56475897
   0.34761278  0.87557972  0.22958862
   0.42578393  0.90842348  0.88958595
   0.64064751  0.78633349  0.89629324
   0.56797643  0.83235107  0.55745876
   0.48914764  0.88050425  0.23089183
   0.34512397  0.79292431  0.88567818
   0.43559968  0.83525033  0.56371733
   0.58027721  0.75766377  0.24033743
   0.49708468  0.80292314  0.89390297
   0.42547198  0.76036499  0.23529519
   0.51121934  0.70113828  0.54798809
