 432 432   0   0
  0.2356206E+02  0.2167200E-08  0.2167200E-08  0.2167200E-08  0.5000000E-15
  1.000000000000000E-004
  CAR 
 Li                                      
      2.80078946     -3.59891641  301      0.02273217      1.00000000
     -3.599  0.0000E+00  0.0000E+00
     -3.578  0.0000E+00  0.0000E+00
     -3.556  0.0000E+00  0.0000E+00
     -3.535  0.0000E+00  0.0000E+00
     -3.514  0.0000E+00  0.0000E+00
     -3.492  0.0000E+00  0.0000E+00
     -3.471  0.2342E-13  0.4996E-15
     -3.450  0.5497E-10  0.1173E-11
     -3.428  0.4877E-07  0.1042E-08
     -3.407  0.1610E-04  0.3445E-06
     -3.386  0.1991E-02  0.4282E-04
     -3.364  0.9306E-01  0.2028E-02
     -3.343  0.1662E+01  0.3748E-01
     -3.322  0.1148E+02  0.2824E+00
     -3.300  0.3105E+02  0.9448E+00
     -3.279  0.3310E+02  0.1651E+01
     -3.258  0.1396E+02  0.1949E+01
     -3.236  0.3292E+01  0.2019E+01
     -3.215  0.9479E+01  0.2221E+01
     -3.194  0.3843E+02  0.3041E+01
     -3.172  0.7802E+02  0.4705E+01
     -3.151  0.8604E+02  0.6541E+01
     -3.130  0.5123E+02  0.7634E+01
     -3.108  0.1617E+02  0.7979E+01
     -3.087  0.1180E+02  0.8230E+01
     -3.066  0.4035E+02  0.9091E+01
     -3.044  0.8183E+02  0.1084E+02
     -3.023  0.8689E+02  0.1269E+02
     -3.002  0.4795E+02  0.1371E+02
     -2.980  0.1776E+02  0.1409E+02
     -2.959  0.3026E+02  0.1474E+02
     -2.938  0.7657E+02  0.1637E+02
     -2.916  0.1111E+03  0.1874E+02
     -2.895  0.9473E+02  0.2076E+02
     -2.874  0.4785E+02  0.2178E+02
     -2.852  0.2670E+02  0.2235E+02
     -2.831  0.5573E+02  0.2354E+02
     -2.810  0.1093E+03  0.2587E+02
     -2.788  0.1375E+03  0.2881E+02
     -2.767  0.1248E+03  0.3147E+02
     -2.746  0.8206E+02  0.3322E+02
     -2.724  0.3321E+02  0.3393E+02
     -2.703  0.2229E+02  0.3440E+02
     -2.682  0.5621E+02  0.3560E+02
     -2.660  0.9322E+02  0.3759E+02
     -2.639  0.7858E+02  0.3927E+02
     -2.618  0.4089E+02  0.4014E+02
     -2.596  0.4674E+02  0.4114E+02
     -2.575  0.8978E+02  0.4305E+02
     -2.554  0.1289E+03  0.4580E+02
     -2.532  0.1347E+03  0.4868E+02
     -2.511  0.1005E+03  0.5082E+02
     -2.490  0.6026E+02  0.5211E+02
     -2.468  0.7018E+02  0.5361E+02
     -2.447  0.1204E+03  0.5617E+02
     -2.426  0.1572E+03  0.5953E+02
     -2.404  0.1723E+03  0.6320E+02
     -2.383  0.1515E+03  0.6643E+02
     -2.362  0.1008E+03  0.6858E+02
     -2.340  0.5875E+02  0.6984E+02
     -2.319  0.5388E+02  0.7099E+02
     -2.298  0.7933E+02  0.7268E+02
     -2.276  0.8204E+02  0.7443E+02
     -2.255  0.5683E+02  0.7564E+02
     -2.234  0.4714E+02  0.7665E+02
     -2.212  0.8191E+02  0.7839E+02
     -2.191  0.1344E+03  0.8126E+02
     -2.170  0.1565E+03  0.8460E+02
     -2.148  0.1363E+03  0.8751E+02
     -2.127  0.8913E+02  0.8941E+02
     -2.106  0.6164E+02  0.9072E+02
     -2.084  0.9446E+02  0.9274E+02
     -2.063  0.1563E+03  0.9607E+02
     -2.042  0.1879E+03  0.1001E+03
     -2.020  0.1731E+03  0.1038E+03
     -1.999  0.1251E+03  0.1064E+03
     -1.978  0.7461E+02  0.1080E+03
     -1.956  0.7393E+02  0.1096E+03
     -1.935  0.1153E+03  0.1121E+03
     -1.914  0.1448E+03  0.1152E+03
     -1.892  0.1330E+03  0.1180E+03
     -1.871  0.9824E+02  0.1201E+03
     -1.850  0.9850E+02  0.1222E+03
     -1.828  0.1368E+03  0.1251E+03
     -1.807  0.1618E+03  0.1286E+03
     -1.786  0.1580E+03  0.1319E+03
     -1.764  0.1399E+03  0.1349E+03
     -1.743  0.1113E+03  0.1373E+03
     -1.722  0.1033E+03  0.1395E+03
     -1.700  0.1429E+03  0.1425E+03
     -1.679  0.1779E+03  0.1463E+03
     -1.658  0.1788E+03  0.1502E+03
     -1.636  0.1512E+03  0.1534E+03
     -1.615  0.9722E+02  0.1555E+03
     -1.594  0.6821E+02  0.1569E+03
     -1.572  0.9563E+02  0.1589E+03
     -1.551  0.1291E+03  0.1617E+03
     -1.530  0.1344E+03  0.1646E+03
     -1.508  0.1081E+03  0.1669E+03
     -1.487  0.7800E+02  0.1685E+03
     -1.466  0.9996E+02  0.1707E+03
     -1.444  0.1426E+03  0.1737E+03
     -1.423  0.1429E+03  0.1768E+03
     -1.402  0.1168E+03  0.1793E+03
     -1.380  0.1145E+03  0.1817E+03
     -1.359  0.1556E+03  0.1850E+03
     -1.338  0.2038E+03  0.1894E+03
     -1.316  0.2339E+03  0.1944E+03
     -1.295  0.2402E+03  0.1995E+03
     -1.274  0.2157E+03  0.2041E+03
     -1.252  0.1706E+03  0.2077E+03
     -1.231  0.1407E+03  0.2107E+03
     -1.210  0.1528E+03  0.2140E+03
     -1.188  0.1741E+03  0.2177E+03
     -1.167  0.1738E+03  0.2214E+03
     -1.146  0.1530E+03  0.2247E+03
     -1.124  0.1187E+03  0.2272E+03
     -1.103  0.1071E+03  0.2295E+03
     -1.082  0.1397E+03  0.2325E+03
     -1.060  0.1669E+03  0.2360E+03
     -1.039  0.1522E+03  0.2393E+03
     -1.018  0.1190E+03  0.2418E+03
     -0.996  0.1195E+03  0.2444E+03
     -0.975  0.1612E+03  0.2478E+03
     -0.954  0.1934E+03  0.2519E+03
     -0.932  0.2060E+03  0.2563E+03
     -0.911  0.2006E+03  0.2606E+03
     -0.890  0.1742E+03  0.2643E+03
     -0.868  0.1395E+03  0.2673E+03
     -0.847  0.1080E+03  0.2696E+03
     -0.826  0.7888E+02  0.2713E+03
     -0.804  0.6787E+02  0.2727E+03
     -0.783  0.1108E+03  0.2751E+03
     -0.762  0.1743E+03  0.2788E+03
     -0.740  0.2105E+03  0.2833E+03
     -0.719  0.2277E+03  0.2881E+03
     -0.698  0.2282E+03  0.2930E+03
     -0.676  0.2049E+03  0.2974E+03
     -0.655  0.1781E+03  0.3012E+03
     -0.634  0.1717E+03  0.3048E+03
     -0.612  0.1902E+03  0.3089E+03
     -0.591  0.2231E+03  0.3137E+03
     -0.570  0.2434E+03  0.3189E+03
     -0.548  0.2341E+03  0.3239E+03
     -0.527  0.2037E+03  0.3282E+03
     -0.506  0.1682E+03  0.3318E+03
     -0.484  0.1505E+03  0.3350E+03
     -0.463  0.1588E+03  0.3384E+03
     -0.442  0.1617E+03  0.3418E+03
     -0.420  0.1566E+03  0.3452E+03
     -0.399  0.1738E+03  0.3489E+03
     -0.378  0.2088E+03  0.3533E+03
     -0.356  0.2314E+03  0.3583E+03
     -0.335  0.2301E+03  0.3632E+03
     -0.314  0.2208E+03  0.3679E+03
     -0.292  0.2082E+03  0.3723E+03
     -0.271  0.1933E+03  0.3765E+03
     -0.250  0.1863E+03  0.3804E+03
     -0.228  0.1953E+03  0.3846E+03
     -0.207  0.2079E+03  0.3890E+03
     -0.186  0.2044E+03  0.3934E+03
     -0.164  0.1909E+03  0.3975E+03
     -0.143  0.1778E+03  0.4013E+03
     -0.122  0.1660E+03  0.4048E+03
     -0.100  0.1591E+03  0.4082E+03
     -0.079  0.1644E+03  0.4117E+03
     -0.058  0.1835E+03  0.4156E+03
     -0.036  0.2055E+03  0.4200E+03
     -0.015  0.2071E+03  0.4244E+03
      0.006  0.1999E+03  0.4287E+03
      0.028  0.2021E+03  0.4330E+03
      0.049  0.2098E+03  0.4375E+03
      0.070  0.2185E+03  0.4421E+03
      0.092  0.2226E+03  0.4469E+03
      0.113  0.2197E+03  0.4516E+03
      0.134  0.2130E+03  0.4561E+03
      0.156  0.2184E+03  0.4608E+03
      0.177  0.2277E+03  0.4656E+03
      0.198  0.2162E+03  0.4702E+03
      0.220  0.2057E+03  0.4746E+03
      0.241  0.2112E+03  0.4791E+03
      0.262  0.2146E+03  0.4837E+03
      0.284  0.2173E+03  0.4883E+03
      0.305  0.2337E+03  0.4933E+03
      0.326  0.2530E+03  0.4987E+03
      0.348  0.2539E+03  0.5041E+03
      0.369  0.2404E+03  0.5093E+03
      0.390  0.2328E+03  0.5142E+03
      0.412  0.2450E+03  0.5195E+03
      0.433  0.2548E+03  0.5249E+03
      0.454  0.2516E+03  0.5303E+03
      0.476  0.2510E+03  0.5356E+03
      0.497  0.2509E+03  0.5410E+03
      0.518  0.2417E+03  0.5461E+03
      0.540  0.2263E+03  0.5510E+03
      0.561  0.2179E+03  0.5556E+03
      0.582  0.2270E+03  0.5604E+03
      0.604  0.2445E+03  0.5657E+03
      0.625  0.2404E+03  0.5708E+03
      0.646  0.2197E+03  0.5755E+03
      0.668  0.2146E+03  0.5801E+03
      0.689  0.2230E+03  0.5848E+03
      0.710  0.2291E+03  0.5897E+03
      0.732  0.2290E+03  0.5946E+03
      0.753  0.2238E+03  0.5994E+03
      0.774  0.2184E+03  0.6040E+03
      0.796  0.2161E+03  0.6086E+03
      0.817  0.2136E+03  0.6132E+03
      0.838  0.2077E+03  0.6176E+03
      0.860  0.1968E+03  0.6218E+03
      0.881  0.1822E+03  0.6257E+03
      0.902  0.1768E+03  0.6295E+03
      0.924  0.1808E+03  0.6333E+03
      0.945  0.1835E+03  0.6372E+03
      0.966  0.1890E+03  0.6413E+03
      0.988  0.1985E+03  0.6455E+03
      1.009  0.1873E+03  0.6495E+03
      1.030  0.1672E+03  0.6531E+03
      1.052  0.1640E+03  0.6566E+03
      1.073  0.1693E+03  0.6602E+03
      1.094  0.1734E+03  0.6639E+03
      1.116  0.1730E+03  0.6676E+03
      1.137  0.1834E+03  0.6715E+03
      1.158  0.1952E+03  0.6756E+03
      1.180  0.1908E+03  0.6797E+03
      1.201  0.1851E+03  0.6837E+03
      1.222  0.1889E+03  0.6877E+03
      1.244  0.2004E+03  0.6920E+03
      1.265  0.2079E+03  0.6964E+03
      1.286  0.2028E+03  0.7007E+03
      1.308  0.1889E+03  0.7048E+03
      1.329  0.1823E+03  0.7086E+03
      1.350  0.1836E+03  0.7126E+03
      1.372  0.1807E+03  0.7164E+03
      1.393  0.1750E+03  0.7202E+03
      1.414  0.1817E+03  0.7240E+03
      1.436  0.1933E+03  0.7281E+03
      1.457  0.1928E+03  0.7323E+03
      1.478  0.1825E+03  0.7362E+03
      1.500  0.1746E+03  0.7399E+03
      1.521  0.1785E+03  0.7437E+03
      1.542  0.1780E+03  0.7475E+03
      1.564  0.1664E+03  0.7510E+03
      1.585  0.1574E+03  0.7544E+03
      1.606  0.1547E+03  0.7577E+03
      1.628  0.1506E+03  0.7609E+03
      1.649  0.1497E+03  0.7641E+03
      1.670  0.1470E+03  0.7672E+03
      1.692  0.1334E+03  0.7701E+03
      1.713  0.1227E+03  0.7727E+03
      1.734  0.1271E+03  0.7754E+03
      1.756  0.1319E+03  0.7782E+03
      1.777  0.1225E+03  0.7808E+03
      1.798  0.1119E+03  0.7832E+03
      1.820  0.1118E+03  0.7856E+03
      1.841  0.1132E+03  0.7880E+03
      1.862  0.1091E+03  0.7904E+03
      1.883  0.9788E+02  0.7924E+03
      1.905  0.8114E+02  0.7942E+03
      1.926  0.5749E+02  0.7954E+03
      1.947  0.4099E+02  0.7963E+03
      1.969  0.5495E+02  0.7974E+03
      1.990  0.8315E+02  0.7992E+03
      2.011  0.9387E+02  0.8012E+03
      2.033  0.8996E+02  0.8031E+03
      2.054  0.9002E+02  0.8051E+03
      2.075  0.9005E+02  0.8070E+03
      2.097  0.8722E+02  0.8088E+03
      2.118  0.9555E+02  0.8109E+03
      2.139  0.1115E+03  0.8133E+03
      2.161  0.1267E+03  0.8160E+03
      2.182  0.1407E+03  0.8190E+03
      2.203  0.1501E+03  0.8222E+03
      2.225  0.1562E+03  0.8255E+03
      2.246  0.1590E+03  0.8289E+03
      2.267  0.1552E+03  0.8322E+03
      2.289  0.1475E+03  0.8353E+03
      2.310  0.1471E+03  0.8385E+03
      2.331  0.1545E+03  0.8418E+03
      2.353  0.1543E+03  0.8451E+03
      2.374  0.1459E+03  0.8482E+03
      2.395  0.1453E+03  0.8513E+03
      2.417  0.1560E+03  0.8546E+03
      2.438  0.1663E+03  0.8582E+03
      2.459  0.1545E+03  0.8615E+03
      2.481  0.1156E+03  0.8639E+03
      2.502  0.6624E+02  0.8653E+03
      2.523  0.2518E+02  0.8659E+03
      2.545  0.5378E+01  0.8660E+03
      2.566  0.5720E+00  0.8660E+03
      2.587  0.2739E-01  0.8660E+03
      2.609  0.5452E-03  0.8660E+03
      2.630  0.4276E-05  0.8660E+03
      2.651  0.1281E-07  0.8660E+03
      2.673  0.1441E-10  0.8660E+03
      2.694  0.5204E-14  0.8660E+03
      2.715  0.0000E+00  0.8660E+03
      2.737  0.0000E+00  0.8660E+03
      2.758  0.0000E+00  0.8660E+03
      2.779  0.0000E+00  0.8660E+03
      2.801  0.0000E+00  0.8660E+03
