       N       E                     dE             d eps       ncg     rms          rms(c)
DAV:   1    -0.252272925771E+03   -0.25227E+03   -0.10053E+05  3464   0.641E+02
DAV:   2    -0.741212910817E+03   -0.48894E+03   -0.44553E+03  4004   0.636E+01
DAV:   3    -0.778639492923E+03   -0.37427E+02   -0.34442E+02  4480   0.139E+01
DAV:   4    -0.779968236726E+03   -0.13287E+01   -0.13110E+01  4080   0.289E+00
DAV:   5    -0.780000879628E+03   -0.32643E-01   -0.32590E-01  4216   0.473E-01    0.109E+01
DAV:   6    -0.784806863968E+03   -0.48060E+01   -0.15100E+01  4408   0.711E+00    0.109E+01
DAV:   7    -0.763070577338E+03    0.21736E+02   -0.17957E+01  4416   0.619E+00    0.461E+00
DAV:   8    -0.761437107811E+03    0.16335E+01   -0.11215E+01  4072   0.284E+00    0.247E+00
DAV:   9    -0.761101723108E+03    0.33538E+00   -0.39441E+00  3832   0.164E+00    0.124E+00
DAV:  10    -0.761144795244E+03   -0.43072E-01   -0.61777E-01  4088   0.785E-01    0.959E-01
DAV:  11    -0.761062736424E+03    0.82059E-01   -0.21477E-01  4040   0.541E-01    0.569E-01
DAV:  12    -0.761048289393E+03    0.14447E-01   -0.63114E-02  3888   0.242E-01    0.274E-01
DAV:  13    -0.761048130917E+03    0.15848E-03   -0.24231E-02  3904   0.148E-01    0.163E-01
DAV:  14    -0.761048033210E+03    0.97706E-04   -0.60769E-03  4176   0.977E-02    0.120E-01
DAV:  15    -0.761046532312E+03    0.15009E-02   -0.21737E-03  4064   0.591E-02    0.555E-02
DAV:  16    -0.761046484789E+03    0.47523E-04   -0.96551E-04  3872   0.289E-02    0.272E-02
DAV:  17    -0.761046461040E+03    0.23749E-04   -0.24566E-04  4160   0.186E-02    0.199E-02
DAV:  18    -0.761046424600E+03    0.36440E-04   -0.65123E-05  3984   0.978E-03    0.927E-03
DAV:  19    -0.761046420841E+03    0.37595E-05   -0.25743E-05  2784   0.540E-03
   1 F= -.76104642E+03 E0= -.76100061E+03  d E =-.916142E-01
