Li                                      
           1
    21.672000    0.000000    0.000000
     0.000000   21.672000    0.000000
     0.000000    0.000000   21.672000
   Li
   432
Direct configuration=     1
   0.01894459  0.01607655  0.01603615
   0.92151693  0.07539417  0.07718422
   0.84308113  0.16024342  0.16999054
   0.76974275  0.24403466  0.24632429
   0.68453441  0.32740500  0.33304429
   0.61234033  0.42708674  0.41722510
   0.50701160  0.54048766  0.48822951
   0.38992267  0.62295030  0.58613794
   0.29829255  0.67867077  0.68121838
   0.28754140  0.75672313  0.77362346
   0.16286027  0.83999610  0.83885855
   0.09666839  0.90467511  0.91281518
   0.09522182  0.93532181  0.07495941
   0.00521721  0.01657246  0.19033308
   0.90072860  0.08623744  0.25442872
   0.82892142  0.16962087  0.33763130
   0.76883353  0.23904066  0.40883563
   0.65816382  0.33955055  0.46082272
   0.57457076  0.42736876  0.57910877
   0.49287076  0.51634945  0.66030956
   0.44527378  0.60154223  0.75990901
   0.34519746  0.65298255  0.85975677
   0.26930010  0.74862736  0.90936213
   0.16757159  0.82225054  0.00441132
   0.16220169  0.83892857  0.15254743
   0.07126154  0.91908554  0.24298946
   0.98332451  0.02141406  0.33748694
   0.88718559  0.07026301  0.42690396
   0.82473093  0.17793256  0.51391396
   0.74913237  0.25076921  0.55704433
   0.67170946  0.33793357  0.67142613
   0.60012567  0.42145963  0.73414833
   0.52345892  0.49155713  0.83658103
   0.45595009  0.58884324  0.91667687
   0.35891232  0.67972034  0.01851060
   0.25737671  0.73597043  0.07056681
   0.24071642  0.75493492  0.23882990
   0.14969605  0.82907635  0.30203847
   0.09475285  0.92724701  0.41305446
   0.00043067  0.99903263  0.51124974
   0.88077185  0.09496549  0.56349380
   0.79873335  0.14826710  0.66546950
   0.74453848  0.24219658  0.75863244
   0.65212932  0.29425468  0.85844832
   0.58936768  0.42560573  0.91872658
   0.50082268  0.50829475  0.99750660
   0.42564916  0.57864429  0.08437833
   0.32056817  0.65286866  0.16873176
   0.32225656  0.64409942  0.30857439
   0.25590322  0.75954968  0.40667797
   0.16191643  0.82883831  0.48949985
   0.09680806  0.90551529  0.58037205
   0.97408770  0.01410577  0.62951843
   0.91069613  0.06112657  0.73154772
   0.82670483  0.16108420  0.83932143
   0.73588003  0.22461354  0.96414023
   0.65817763  0.34273914  0.00821342
   0.58974316  0.41586995  0.08079160
   0.50006709  0.47688394  0.15612083
   0.42555219  0.55448439  0.25128032
   0.43963136  0.59141138  0.41849586
   0.30903193  0.66267632  0.46880935
   0.24613885  0.77212202  0.58985400
   0.15194801  0.83914514  0.65543833
   0.08532825  0.94455915  0.74417692
   0.03109401  0.99807755  0.84282213
   0.94476897  0.06659817  0.93250916
   0.83797755  0.14969157  0.01628069
   0.75757066  0.24571602  0.06587948
   0.67108651  0.30835397  0.18042050
   0.60716011  0.39139179  0.25838580
   0.49087413  0.48952875  0.33404447
   0.08770162  0.12925620  0.93893418
   0.98232168  0.16044421  0.00262929
   0.89788381  0.25111964  0.08048351
   0.79912856  0.32766273  0.15006150
   0.75452942  0.41378694  0.24689889
   0.66711096  0.49884435  0.32699870
   0.56059043  0.60531798  0.41941238
   0.49225561  0.68149254  0.49700715
   0.40000839  0.74621944  0.58198571
   0.32936805  0.87071395  0.67015183
   0.22593405  0.94077704  0.74598852
   0.18206364  0.01864481  0.86620628
   0.17139888  0.02694265  0.99717575
   0.07900154  0.11156153  0.07150610
   0.99360805  0.16674438  0.18063394
   0.89746704  0.26478607  0.25411266
   0.85349623  0.34037676  0.33645446
   0.74949698  0.44561575  0.40614061
   0.65196505  0.49839490  0.48291868
   0.59594260  0.57161237  0.59444622
   0.53994437  0.68286775  0.65401846
   0.43395486  0.76174911  0.76058156
   0.31801917  0.86204062  0.87067865
   0.26080970  0.94168651  0.94676542
   0.24402919  0.90676893  0.07725626
   0.14742104  0.01707398  0.16060586
   0.08381640  0.10935577  0.24739031
   0.00874414  0.18929898  0.32546250
   0.91241266  0.21292384  0.41157859
   0.85362683  0.33850711  0.48378491
   0.74040884  0.42144380  0.56457824
   0.65504563  0.48751961  0.64828585
   0.62289218  0.57827791  0.74391530
   0.53522753  0.67620130  0.82387035
   0.43294099  0.74380986  0.92345562
   0.34465512  0.80917499  0.99342934
   0.32624364  0.80032664  0.15540826
   0.25422440  0.90109732  0.23473888
   0.17768059  0.97841002  0.35055424
   0.08781162  0.09318256  0.40943682
   0.00007895  0.15268036  0.50806634
   0.89896212  0.24524888  0.59975080
   0.81168015  0.35386333  0.64373203
   0.71326946  0.42113174  0.74912097
   0.66665122  0.51320557  0.85276576
   0.57956301  0.58080606  0.91893611
   0.53593980  0.66638481  0.00341592
   0.44779216  0.72357099  0.09151511
   0.42549168  0.76164419  0.23512181
   0.33002413  0.82856945  0.32224911
   0.27684805  0.89735890  0.41128802
   0.16613913  0.05666402  0.48772252
   0.08167326  0.07798410  0.58344975
   0.98833380  0.15120872  0.67247761
   0.89726418  0.22800514  0.74638927
   0.80463420  0.30499672  0.85331582
   0.73209482  0.37856922  0.91152364
   0.69614201  0.51004370  0.96794845
   0.60357222  0.55182765  0.08590559
   0.52181981  0.64786859  0.16669238
   0.47791481  0.67673316  0.28955696
   0.38614282  0.71488528  0.40211952
   0.35918371  0.83400109  0.50201102
   0.23538561  0.91594599  0.59397942
   0.17902640  0.01312207  0.63748156
   0.09600061  0.06858716  0.73550726
   0.98341084  0.14406964  0.84333280
   0.90705738  0.24549530  0.92744118
   0.81376417  0.34049062  0.01284535
   0.70985456  0.42268810  0.08138587
   0.64692467  0.46808451  0.16715028
   0.59531378  0.56084491  0.23365254
   0.18510468  0.18042980  0.82394012
   0.06686423  0.26792616  0.90508513
   0.00147016  0.32085842  0.99712886
   0.93835035  0.40911133  0.08551045
   0.83096270  0.46733496  0.14765346
   0.76878507  0.56244179  0.24235120
   0.68428505  0.65358846  0.29257357
   0.57390224  0.73089169  0.40904946
   0.50644763  0.82413587  0.49119358
   0.42111629  0.92755111  0.58193824
   0.32272014  0.01378316  0.64239918
   0.27054491  0.08409884  0.74142947
   0.27696894  0.14042416  0.91734941
   0.16249970  0.19302793  0.96940837
   0.06314738  0.24113032  0.09420985
   0.99840577  0.31736361  0.17682016
   0.92136390  0.39984630  0.25853317
   0.81762382  0.49560982  0.35414934
   0.71868809  0.57749249  0.42118190
   0.66443367  0.66001551  0.51295700
   0.57171726  0.76017225  0.57843997
   0.48291987  0.82161369  0.64126261
   0.41167778  0.90451224  0.74345643
   0.33013348  0.99519651  0.81931048
   0.36716720  0.00494171  0.00259949
   0.24947331  0.09568914  0.07272552
   0.17776797  0.15857021  0.18040637
   0.08413418  0.29029027  0.27412863
   0.98189047  0.36166862  0.36050887
   0.90723670  0.41735417  0.43526013
   0.85094425  0.52575991  0.50611545
   0.75103276  0.56995152  0.59256287
   0.64141798  0.67578625  0.68621863
   0.59735369  0.78689175  0.74130645
   0.52147042  0.81882900  0.84232038
   0.42687606  0.93735158  0.91341456
   0.41188976  0.92675792  0.10351935
   0.33289764  0.01570351  0.15264007
   0.27133400  0.07321518  0.28882389
   0.15526811  0.17273349  0.30965611
   0.07999150  0.24648833  0.41633625
   0.99940802  0.33330244  0.49137735
   0.91485286  0.41217892  0.55715205
   0.80563596  0.51793456  0.66643154
   0.73903122  0.59425408  0.77174194
   0.65060389  0.67978667  0.81359925
   0.59591502  0.74714213  0.90923024
   0.50352527  0.83957699  0.02361819
   0.49291534  0.83699328  0.15740460
   0.40426380  0.94360978  0.22154135
   0.31892268  0.00528487  0.34261466
   0.27501603  0.09397633  0.39444679
   0.15505276  0.14993898  0.47308273
   0.04628133  0.26395849  0.58867828
   0.99520834  0.37006501  0.68404681
   0.87281958  0.38960347  0.75299972
   0.82103040  0.45648667  0.83861568
   0.75029463  0.59930386  0.89705591
   0.67757069  0.68127405  0.00460189
   0.59580906  0.75929639  0.09518159
   0.57624872  0.74790105  0.25849975
   0.48146179  0.83828086  0.34762617
   0.39426450  0.90441717  0.43639484
   0.31225124  0.01246317  0.48479902
   0.24302482  0.10345961  0.56295879
   0.12377575  0.17174163  0.65242150
   0.05575449  0.24431471  0.73152889
   0.96454337  0.32645795  0.80932669
   0.92681843  0.41027830  0.91145474
   0.83204836  0.47836781  0.00075390
   0.73434441  0.58175852  0.09841706
   0.66162463  0.66537677  0.17682473
   0.26234912  0.23943773  0.71376784
   0.15359531  0.32636616  0.82143194
   0.05842495  0.40935070  0.87713918
   0.99399164  0.51204876  0.00795780
   0.92757420  0.58965392  0.07910000
   0.82792051  0.66091764  0.20284689
   0.72834261  0.76584037  0.23154825
   0.64269461  0.79348276  0.32861813
   0.58654779  0.91312364  0.42721628
   0.49636733  0.96971976  0.46301990
   0.42308721  0.08862633  0.55964684
   0.33472947  0.18478046  0.63762814
   0.33213049  0.17024007  0.82327094
   0.24324172  0.27599937  0.91033618
   0.14521733  0.35007886  0.00275439
   0.04974715  0.38392539  0.07483642
   0.01419027  0.48688256  0.17082505
   0.94155322  0.53709155  0.22664024
   0.84989903  0.63088125  0.31540532
   0.73920796  0.74127730  0.43373997
   0.66444036  0.84785943  0.49734164
   0.58372776  0.91511026  0.59284504
   0.51472173  0.00283109  0.68682254
   0.44161035  0.08654504  0.74339520
   0.40454352  0.07309123  0.92427045
   0.35376758  0.19020498  0.02506409
   0.23387854  0.25786398  0.07868119
   0.14881761  0.33818550  0.17698830
   0.05598341  0.41764819  0.25940264
   0.00701216  0.48164881  0.33053679
   0.93814529  0.56675639  0.40892757
   0.83917912  0.65023248  0.47265127
   0.75245552  0.72519677  0.56031887
   0.66184610  0.84897878  0.66024030
   0.58324610  0.92718211  0.75215137
   0.50866049  0.00958679  0.84442083
   0.48631988  0.01282714  0.03902162
   0.40897336  0.09799445  0.08094115
   0.31659328  0.15067472  0.17158250
   0.24229326  0.24017807  0.28590104
   0.17199302  0.37736873  0.34016226
   0.07836433  0.42564312  0.43650363
   0.00498029  0.50900720  0.51031345
   0.92076693  0.58026037  0.60625541
   0.83899010  0.66619682  0.70102478
   0.75950048  0.75294106  0.76602704
   0.68767299  0.83702791  0.84705142
   0.57931977  0.92920694  0.92658837
   0.59351072  0.92330389  0.10371148
   0.50726139  0.03169198  0.14140769
   0.40119706  0.08867253  0.24469837
   0.33406054  0.18558864  0.33195706
   0.25710989  0.28223266  0.42497916
   0.14843013  0.33906657  0.51146563
   0.07257297  0.43146498  0.59611961
   0.96601649  0.49249728  0.67354174
   0.87604061  0.56877530  0.77909946
   0.85930458  0.68241995  0.84201775
   0.76540550  0.75367653  0.92937701
   0.69019846  0.85686615  0.01659943
   0.67868832  0.83404113  0.17133562
   0.55698245  0.92546694  0.23052059
   0.47135084  0.01223602  0.36020694
   0.40051277  0.12031694  0.41486416
   0.30870503  0.18808007  0.50503852
   0.25511542  0.26232539  0.58696048
   0.15778666  0.34022248  0.65620542
   0.09145785  0.41586956  0.74218252
   0.98067013  0.48025165  0.81964273
   0.93379433  0.56805616  0.91133302
   0.85051715  0.64367071  0.99032420
   0.75676647  0.74175321  0.10945938
   0.36730777  0.34324036  0.65544656
   0.24658936  0.41366033  0.73975550
   0.15253961  0.50395856  0.81961760
   0.04942117  0.57772973  0.91764209
   0.00334887  0.67166427  0.98913550
   0.91976672  0.74235699  0.09982931
   0.84364140  0.85086640  0.18103891
   0.72727077  0.91014636  0.26434065
   0.65845344  0.96693568  0.33211927
   0.59410051  0.09247513  0.42297395
   0.49165700  0.17495249  0.48138075
   0.43277735  0.27536858  0.57953306
   0.45204129  0.22929046  0.73081682
   0.33828398  0.31380777  0.79893395
   0.26882299  0.42297799  0.92706893
   0.14775483  0.47884550  0.98491305
   0.09966090  0.57654263  0.07241615
   0.03041809  0.66908177  0.16329224
   0.92047577  0.75797302  0.26079447
   0.80418391  0.82010628  0.32982681
   0.73483960  0.89184852  0.41169143
   0.66714857  0.98048517  0.46233370
   0.58609312  0.05553652  0.54600438
   0.52794135  0.15719195  0.64709074
   0.51210559  0.16451312  0.84797266
   0.44708178  0.25549283  0.90549244
   0.32116434  0.30844490  0.98988333
   0.26535171  0.40506890  0.10015560
   0.16214924  0.48753868  0.17112491
   0.12320812  0.57418535  0.25772464
   0.98212898  0.67830565  0.32279651
   0.89406295  0.75004297  0.42870516
   0.82498562  0.84415531  0.49918648
   0.72701317  0.91329472  0.59588587
   0.65618964  0.99956983  0.69168057
   0.58781020  0.09535544  0.78361374
   0.59288428  0.08977317  0.94808449
   0.50004362  0.17869596  0.01428571
   0.42883476  0.23042297  0.09801431
   0.32385965  0.30334355  0.21025083
   0.25794063  0.43377671  0.25141783
   0.16065870  0.48690312  0.35519699
   0.07122858  0.57470824  0.39644495
   0.00378976  0.68357401  0.51679315
   0.88425458  0.76007343  0.62318714
   0.83431161  0.84116349  0.67268822
   0.76681140  0.93469432  0.76872879
   0.68498966  0.97172260  0.84725143
   0.68136936  0.98387855  0.01178030
   0.59191217  0.08156217  0.08293953
   0.50250918  0.14347691  0.18238904
   0.41027825  0.25844554  0.23760650
   0.35385651  0.35488411  0.31779434
   0.28741364  0.40587851  0.44894977
   0.17989851  0.52362553  0.52550059
   0.06343981  0.57777579  0.62485117
   0.97931985  0.66402568  0.70317733
   0.90664034  0.74429389  0.75013284
   0.84020026  0.84244622  0.83428739
   0.76196422  0.93650455  0.95262635
   0.75687111  0.91094462  0.11678214
   0.65733963  0.00089921  0.16518208
   0.57811923  0.07241848  0.23662835
   0.50033382  0.15047152  0.32970530
   0.43299814  0.26302416  0.42659578
   0.34036427  0.35242466  0.49663143
   0.25924191  0.42693337  0.57758333
   0.17737864  0.50204412  0.66041035
   0.07803037  0.57140361  0.76813966
   0.98018527  0.67530627  0.80966903
   0.92719534  0.76835311  0.91126061
   0.85158942  0.81623922  0.01476188
   0.40027215  0.43585567  0.56685261
   0.34785531  0.50863774  0.65607088
   0.27464117  0.56137608  0.73754212
   0.18492581  0.65548143  0.83168193
   0.06373711  0.73624706  0.88251794
   0.01506187  0.82700613  0.01647671
   0.91465549  0.94026143  0.06869143
   0.82967082  0.97580811  0.18866460
   0.75118316  0.07894226  0.24926438
   0.65996993  0.16581760  0.31380242
   0.59004696  0.25034511  0.41770990
   0.51431430  0.35481354  0.48491707
   0.53133354  0.32692232  0.64963286
   0.43428006  0.42250790  0.72302391
   0.35471709  0.47314421  0.81934645
   0.28962919  0.58014817  0.91408805
   0.17452974  0.64812683  0.98337829
   0.08348997  0.73736159  0.06031037
   0.97271784  0.84454079  0.14381297
   0.92156068  0.92769238  0.26435054
   0.83242431  0.96139519  0.35758230
   0.75830178  0.06168021  0.39642070
   0.68779667  0.14885986  0.48577125
   0.58758846  0.23017184  0.55210682
   0.58832474  0.22742934  0.73564880
   0.53233895  0.30760923  0.82046211
   0.41549848  0.40534851  0.90895784
   0.34534365  0.50129499  0.98746862
   0.25889715  0.55571058  0.09656379
   0.16708978  0.66001819  0.16075898
   0.08618535  0.74192565  0.23294336
   0.00605834  0.84612653  0.34229158
   0.91131914  0.93906164  0.41135262
   0.80006869  0.97450286  0.50111336
   0.71508356  0.07337181  0.56151226
   0.66524435  0.14967735  0.65581630
   0.66436787  0.16983197  0.83183005
   0.60140405  0.23197258  0.95694330
   0.51752014  0.32405685  0.99274752
   0.45007299  0.38765881  0.06691940
   0.35773443  0.46046096  0.16955909
   0.22542135  0.56657265  0.24528210
   0.17370110  0.67472109  0.34376998
   0.09274578  0.76749716  0.40526254
   0.96656568  0.83593834  0.49970861
   0.89990201  0.94122983  0.56366400
   0.81602842  0.00596346  0.67535387
   0.74047127  0.07006457  0.75185511
   0.75244959  0.08299318  0.95307657
   0.67971485  0.16897780  0.02129918
   0.58507335  0.21295878  0.08044867
   0.53236869  0.32602510  0.15574153
   0.43574530  0.40477071  0.25581124
   0.35937667  0.51117664  0.33714104
   0.23745864  0.57596050  0.39545789
   0.19327305  0.67961895  0.49736675
   0.07085072  0.74155856  0.61799090
   0.98848127  0.85266375  0.66214032
   0.91404062  0.94579772  0.73529798
   0.83881286  0.00703469  0.82166039
   0.83880903  0.00703162  0.02572372
   0.74157334  0.06681370  0.09891373
   0.67534251  0.16457232  0.18668673
   0.57235250  0.22826055  0.29025591
   0.48656440  0.35665235  0.34848721
   0.39679052  0.45101819  0.41704268
   0.33752359  0.55720925  0.51325811
   0.25772846  0.61643570  0.59504541
   0.17333291  0.65750487  0.68596845
   0.08611091  0.75591679  0.74975939
   0.99055375  0.84929102  0.81508795
   0.89965533  0.91233757  0.92520115
