 504 504   0   0
  0.2301818E+02  0.2235821E-08  0.2212889E-08  0.2344795E-08  0.5000000E-15
  1.000000000000000E-004
  CAR 
 Li                                      
      2.95165483     -3.57144083  301      0.09469403      1.00000000
     -3.571  0.0000E+00  0.0000E+00
     -3.550  0.0000E+00  0.0000E+00
     -3.528  0.0000E+00  0.0000E+00
     -3.506  0.0000E+00  0.0000E+00
     -3.484  0.0000E+00  0.0000E+00
     -3.463  0.0000E+00  0.0000E+00
     -3.441  0.6000E-13  0.1305E-14
     -3.419  0.1469E-09  0.3196E-11
     -3.397  0.1279E-06  0.2785E-08
     -3.376  0.3992E-04  0.8708E-06
     -3.354  0.4499E-02  0.9869E-04
     -3.332  0.1850E+00  0.4120E-02
     -3.311  0.2810E+01  0.6521E-01
     -3.289  0.1599E+02  0.4129E+00
     -3.267  0.3451E+02  0.1163E+01
     -3.245  0.2846E+02  0.1782E+01
     -3.224  0.9495E+01  0.1989E+01
     -3.202  0.8355E+01  0.2170E+01
     -3.180  0.3923E+02  0.3023E+01
     -3.158  0.9066E+02  0.4995E+01
     -3.137  0.9137E+02  0.6981E+01
     -3.115  0.3962E+02  0.7843E+01
     -3.093  0.1151E+02  0.8093E+01
     -3.071  0.3060E+02  0.8758E+01
     -3.050  0.8268E+02  0.1056E+02
     -3.028  0.9693E+02  0.1266E+02
     -3.006  0.5054E+02  0.1376E+02
     -2.984  0.2048E+02  0.1421E+02
     -2.963  0.3933E+02  0.1506E+02
     -2.941  0.8415E+02  0.1689E+02
     -2.919  0.1151E+03  0.1940E+02
     -2.897  0.8677E+02  0.2128E+02
     -2.876  0.3960E+02  0.2214E+02
     -2.854  0.5300E+02  0.2330E+02
     -2.832  0.1137E+03  0.2577E+02
     -2.810  0.1578E+03  0.2920E+02
     -2.789  0.1381E+03  0.3220E+02
     -2.767  0.6779E+02  0.3368E+02
     -2.745  0.2982E+02  0.3433E+02
     -2.723  0.5139E+02  0.3544E+02
     -2.702  0.8434E+02  0.3728E+02
     -2.680  0.8086E+02  0.3904E+02
     -2.658  0.5632E+02  0.4026E+02
     -2.636  0.5596E+02  0.4148E+02
     -2.615  0.8000E+02  0.4322E+02
     -2.593  0.1132E+03  0.4568E+02
     -2.571  0.1297E+03  0.4850E+02
     -2.549  0.1195E+03  0.5110E+02
     -2.528  0.1076E+03  0.5344E+02
     -2.506  0.1192E+03  0.5603E+02
     -2.484  0.1454E+03  0.5919E+02
     -2.463  0.1783E+03  0.6307E+02
     -2.441  0.1785E+03  0.6695E+02
     -2.419  0.1207E+03  0.6957E+02
     -2.397  0.6735E+02  0.7104E+02
     -2.376  0.4955E+02  0.7211E+02
     -2.354  0.6037E+02  0.7343E+02
     -2.332  0.7280E+02  0.7501E+02
     -2.310  0.6431E+02  0.7641E+02
     -2.289  0.8467E+02  0.7825E+02
     -2.267  0.1202E+03  0.8086E+02
     -2.245  0.1440E+03  0.8399E+02
     -2.223  0.1561E+03  0.8739E+02
     -2.202  0.1394E+03  0.9042E+02
     -2.180  0.1124E+03  0.9286E+02
     -2.158  0.1139E+03  0.9534E+02
     -2.136  0.1446E+03  0.9848E+02
     -2.115  0.1864E+03  0.1025E+03
     -2.093  0.2016E+03  0.1069E+03
     -2.071  0.1518E+03  0.1102E+03
     -2.049  0.6953E+02  0.1117E+03
     -2.028  0.3880E+02  0.1126E+03
     -2.006  0.8380E+02  0.1144E+03
     -1.984  0.1424E+03  0.1175E+03
     -1.962  0.1518E+03  0.1208E+03
     -1.941  0.1411E+03  0.1239E+03
     -1.919  0.1537E+03  0.1272E+03
     -1.897  0.1690E+03  0.1309E+03
     -1.875  0.1785E+03  0.1348E+03
     -1.854  0.1767E+03  0.1386E+03
     -1.832  0.1446E+03  0.1417E+03
     -1.810  0.1237E+03  0.1444E+03
     -1.788  0.1355E+03  0.1474E+03
     -1.767  0.1615E+03  0.1509E+03
     -1.745  0.1812E+03  0.1548E+03
     -1.723  0.1528E+03  0.1582E+03
     -1.701  0.1103E+03  0.1606E+03
     -1.680  0.1027E+03  0.1628E+03
     -1.658  0.1150E+03  0.1653E+03
     -1.636  0.1132E+03  0.1677E+03
     -1.615  0.9586E+02  0.1698E+03
     -1.593  0.1108E+03  0.1722E+03
     -1.571  0.1530E+03  0.1756E+03
     -1.549  0.1558E+03  0.1790E+03
     -1.528  0.1485E+03  0.1822E+03
     -1.506  0.1688E+03  0.1859E+03
     -1.484  0.1779E+03  0.1897E+03
     -1.462  0.1692E+03  0.1934E+03
     -1.441  0.1822E+03  0.1974E+03
     -1.419  0.2212E+03  0.2022E+03
     -1.397  0.2458E+03  0.2075E+03
     -1.375  0.2348E+03  0.2126E+03
     -1.354  0.2084E+03  0.2172E+03
     -1.332  0.1892E+03  0.2213E+03
     -1.310  0.1698E+03  0.2250E+03
     -1.288  0.1459E+03  0.2281E+03
     -1.267  0.1167E+03  0.2307E+03
     -1.245  0.9981E+02  0.2328E+03
     -1.223  0.1282E+03  0.2356E+03
     -1.201  0.1630E+03  0.2392E+03
     -1.180  0.1645E+03  0.2428E+03
     -1.158  0.1574E+03  0.2462E+03
     -1.136  0.1653E+03  0.2498E+03
     -1.114  0.1867E+03  0.2538E+03
     -1.093  0.2108E+03  0.2584E+03
     -1.071  0.2068E+03  0.2629E+03
     -1.049  0.1770E+03  0.2668E+03
     -1.027  0.1420E+03  0.2698E+03
     -1.006  0.1197E+03  0.2724E+03
     -0.984  0.1423E+03  0.2755E+03
     -0.962  0.1799E+03  0.2795E+03
     -0.940  0.1701E+03  0.2832E+03
     -0.919  0.1531E+03  0.2865E+03
     -0.897  0.1640E+03  0.2900E+03
     -0.875  0.1950E+03  0.2943E+03
     -0.853  0.2331E+03  0.2994E+03
     -0.832  0.2492E+03  0.3048E+03
     -0.810  0.2342E+03  0.3099E+03
     -0.788  0.2095E+03  0.3144E+03
     -0.767  0.2033E+03  0.3188E+03
     -0.745  0.2308E+03  0.3239E+03
     -0.723  0.2568E+03  0.3294E+03
     -0.701  0.2445E+03  0.3348E+03
     -0.680  0.1960E+03  0.3390E+03
     -0.658  0.1455E+03  0.3422E+03
     -0.636  0.1494E+03  0.3454E+03
     -0.614  0.1832E+03  0.3494E+03
     -0.593  0.1858E+03  0.3535E+03
     -0.571  0.1636E+03  0.3570E+03
     -0.549  0.1591E+03  0.3605E+03
     -0.527  0.1875E+03  0.3645E+03
     -0.506  0.2084E+03  0.3691E+03
     -0.484  0.1986E+03  0.3734E+03
     -0.462  0.1906E+03  0.3775E+03
     -0.440  0.2058E+03  0.3820E+03
     -0.419  0.2224E+03  0.3869E+03
     -0.397  0.2375E+03  0.3920E+03
     -0.375  0.2527E+03  0.3975E+03
     -0.353  0.2659E+03  0.4033E+03
     -0.332  0.2735E+03  0.4092E+03
     -0.310  0.2622E+03  0.4149E+03
     -0.288  0.2216E+03  0.4198E+03
     -0.266  0.1948E+03  0.4240E+03
     -0.245  0.2145E+03  0.4287E+03
     -0.223  0.2283E+03  0.4336E+03
     -0.201  0.2141E+03  0.4383E+03
     -0.179  0.2124E+03  0.4429E+03
     -0.158  0.2191E+03  0.4477E+03
     -0.136  0.2092E+03  0.4522E+03
     -0.114  0.1914E+03  0.4564E+03
     -0.092  0.1801E+03  0.4603E+03
     -0.071  0.1880E+03  0.4644E+03
     -0.049  0.2062E+03  0.4689E+03
     -0.027  0.2000E+03  0.4732E+03
     -0.005  0.1884E+03  0.4773E+03
      0.016  0.2066E+03  0.4818E+03
      0.038  0.2461E+03  0.4871E+03
      0.060  0.2846E+03  0.4933E+03
      0.081  0.3024E+03  0.4999E+03
      0.103  0.3116E+03  0.5067E+03
      0.125  0.3153E+03  0.5135E+03
      0.147  0.3114E+03  0.5203E+03
      0.168  0.3151E+03  0.5272E+03
      0.190  0.3183E+03  0.5341E+03
      0.212  0.3198E+03  0.5410E+03
      0.234  0.3163E+03  0.5479E+03
      0.255  0.3004E+03  0.5544E+03
      0.277  0.2747E+03  0.5604E+03
      0.299  0.2567E+03  0.5660E+03
      0.321  0.2629E+03  0.5717E+03
      0.342  0.2751E+03  0.5777E+03
      0.364  0.2620E+03  0.5834E+03
      0.386  0.2197E+03  0.5882E+03
      0.408  0.1898E+03  0.5923E+03
      0.429  0.1972E+03  0.5966E+03
      0.451  0.2245E+03  0.6015E+03
      0.473  0.2470E+03  0.6068E+03
      0.495  0.2290E+03  0.6118E+03
      0.516  0.1953E+03  0.6161E+03
      0.538  0.2023E+03  0.6205E+03
      0.560  0.2241E+03  0.6253E+03
      0.582  0.2144E+03  0.6300E+03
      0.603  0.1939E+03  0.6342E+03
      0.625  0.1985E+03  0.6385E+03
      0.647  0.2320E+03  0.6436E+03
      0.669  0.2684E+03  0.6494E+03
      0.690  0.2860E+03  0.6556E+03
      0.712  0.2825E+03  0.6618E+03
      0.734  0.2745E+03  0.6677E+03
      0.756  0.2755E+03  0.6737E+03
      0.777  0.2738E+03  0.6797E+03
      0.799  0.2590E+03  0.6853E+03
      0.821  0.2496E+03  0.6908E+03
      0.843  0.2425E+03  0.6960E+03
      0.864  0.2315E+03  0.7011E+03
      0.886  0.2379E+03  0.7062E+03
      0.908  0.2551E+03  0.7118E+03
      0.929  0.2675E+03  0.7176E+03
      0.951  0.2615E+03  0.7233E+03
      0.973  0.2392E+03  0.7285E+03
      0.995  0.2097E+03  0.7330E+03
      1.016  0.1902E+03  0.7372E+03
      1.038  0.1932E+03  0.7414E+03
      1.060  0.2077E+03  0.7459E+03
      1.082  0.2296E+03  0.7509E+03
      1.103  0.2494E+03  0.7563E+03
      1.125  0.2522E+03  0.7618E+03
      1.147  0.2455E+03  0.7671E+03
      1.169  0.2476E+03  0.7725E+03
      1.190  0.2558E+03  0.7781E+03
      1.212  0.2503E+03  0.7835E+03
      1.234  0.2383E+03  0.7887E+03
      1.256  0.2394E+03  0.7939E+03
      1.277  0.2510E+03  0.7994E+03
      1.299  0.2510E+03  0.8048E+03
      1.321  0.2450E+03  0.8101E+03
      1.343  0.2496E+03  0.8156E+03
      1.364  0.2566E+03  0.8212E+03
      1.386  0.2578E+03  0.8268E+03
      1.408  0.2612E+03  0.8324E+03
      1.430  0.2483E+03  0.8378E+03
      1.451  0.2198E+03  0.8426E+03
      1.473  0.2090E+03  0.8472E+03
      1.495  0.2015E+03  0.8515E+03
      1.517  0.1970E+03  0.8558E+03
      1.538  0.2050E+03  0.8603E+03
      1.560  0.2119E+03  0.8649E+03
      1.582  0.2108E+03  0.8695E+03
      1.604  0.2069E+03  0.8740E+03
      1.625  0.2141E+03  0.8786E+03
      1.647  0.2227E+03  0.8835E+03
      1.669  0.2171E+03  0.8882E+03
      1.691  0.2039E+03  0.8926E+03
      1.712  0.1917E+03  0.8968E+03
      1.734  0.1786E+03  0.9007E+03
      1.756  0.1665E+03  0.9043E+03
      1.777  0.1628E+03  0.9078E+03
      1.799  0.1531E+03  0.9112E+03
      1.821  0.1441E+03  0.9143E+03
      1.843  0.1444E+03  0.9174E+03
      1.864  0.1497E+03  0.9207E+03
      1.886  0.1606E+03  0.9242E+03
      1.908  0.1712E+03  0.9279E+03
      1.930  0.1680E+03  0.9316E+03
      1.951  0.1499E+03  0.9348E+03
      1.973  0.1327E+03  0.9377E+03
      1.995  0.1384E+03  0.9407E+03
      2.017  0.1500E+03  0.9440E+03
      2.038  0.1513E+03  0.9473E+03
      2.060  0.1520E+03  0.9506E+03
      2.082  0.1517E+03  0.9539E+03
      2.104  0.1523E+03  0.9572E+03
      2.125  0.1587E+03  0.9606E+03
      2.147  0.1672E+03  0.9643E+03
      2.169  0.1621E+03  0.9678E+03
      2.191  0.1452E+03  0.9710E+03
      2.212  0.1312E+03  0.9738E+03
      2.234  0.1237E+03  0.9765E+03
      2.256  0.1266E+03  0.9792E+03
      2.278  0.1354E+03  0.9822E+03
      2.299  0.1343E+03  0.9851E+03
      2.321  0.1260E+03  0.9879E+03
      2.343  0.1209E+03  0.9905E+03
      2.365  0.1242E+03  0.9932E+03
      2.386  0.1256E+03  0.9959E+03
      2.408  0.1154E+03  0.9984E+03
      2.430  0.1017E+03  0.1001E+04
      2.452  0.8567E+02  0.1002E+04
      2.473  0.5956E+02  0.1004E+04
      2.495  0.4346E+02  0.1005E+04
      2.517  0.3968E+02  0.1006E+04
      2.539  0.3638E+02  0.1006E+04
      2.560  0.3693E+02  0.1007E+04
      2.582  0.2698E+02  0.1008E+04
      2.604  0.1402E+02  0.1008E+04
      2.626  0.2083E+02  0.1009E+04
      2.647  0.3322E+02  0.1009E+04
      2.669  0.2469E+02  0.1010E+04
      2.691  0.8048E+01  0.1010E+04
      2.712  0.1115E+01  0.1010E+04
      2.734  0.6287E-01  0.1010E+04
      2.756  0.1384E-02  0.1010E+04
      2.778  0.1151E-04  0.1010E+04
      2.799  0.3536E-07  0.1010E+04
      2.821  0.3951E-10  0.1010E+04
      2.843  0.1532E-13  0.1010E+04
      2.865  0.0000E+00  0.1010E+04
      2.886  0.0000E+00  0.1010E+04
      2.908  0.0000E+00  0.1010E+04
      2.930  0.0000E+00  0.1010E+04
      2.952  0.0000E+00  0.1010E+04
