       N       E                     dE             d eps       ncg     rms          rms(c)
DAV:   1    -0.345702416719E+03   -0.34570E+03   -0.11787E+05  4040   0.644E+02
DAV:   2    -0.900195166836E+03   -0.55449E+03   -0.50864E+03  4636   0.635E+01
DAV:   3    -0.939673327919E+03   -0.39478E+02   -0.36035E+02  5168   0.134E+01
DAV:   4    -0.941072486349E+03   -0.13992E+01   -0.13754E+01  4648   0.274E+00
DAV:   5    -0.941103968423E+03   -0.31482E-01   -0.31415E-01  4832   0.442E-01    0.634E+00
DAV:   6    -0.936538504805E+03    0.45655E+01   -0.46382E+00  4448   0.192E+00    0.350E+00
DAV:   7    -0.937890753319E+03   -0.13522E+01   -0.33163E+00  4592   0.227E+00    0.401E+00
DAV:   8    -0.935675909688E+03    0.22148E+01   -0.24943E+00  4592   0.184E+00    0.201E+00
DAV:   9    -0.935319929769E+03    0.35598E+00   -0.12015E+00  4504   0.944E-01    0.108E+00
DAV:  10    -0.935360882209E+03   -0.40952E-01   -0.44165E-01  4568   0.660E-01    0.972E-01
DAV:  11    -0.935270317303E+03    0.90565E-01   -0.19236E-01  4504   0.427E-01    0.476E-01
DAV:  12    -0.935269224199E+03    0.10931E-02   -0.38756E-02  4568   0.201E-01    0.323E-01
DAV:  13    -0.935265127716E+03    0.40965E-02   -0.18337E-02  4504   0.166E-01    0.226E-01
DAV:  14    -0.935260568757E+03    0.45590E-02   -0.68410E-03  4504   0.988E-02    0.103E-01
DAV:  15    -0.935260212021E+03    0.35674E-03   -0.27045E-03  4448   0.520E-02    0.622E-02
DAV:  16    -0.935260175769E+03    0.36252E-04   -0.10247E-03  4736   0.372E-02    0.533E-02
DAV:  17    -0.935259855205E+03    0.32056E-03   -0.45415E-04  4560   0.239E-02    0.235E-02
DAV:  18    -0.935259827405E+03    0.27800E-04   -0.15819E-04  4552   0.140E-02    0.164E-02
DAV:  19    -0.935259805452E+03    0.21953E-04   -0.73445E-05  4536   0.985E-03    0.108E-02
DAV:  20    -0.935259789496E+03    0.15956E-04   -0.29974E-05  3432   0.543E-03    0.436E-03
DAV:  21    -0.935259789832E+03   -0.33571E-06   -0.76096E-06  2288   0.331E-03
   1 F= -.93525979E+03 E0= -.93518942E+03  d E =-.140732E+00
