 504 504   0   0
  0.1982611E+02  0.2127286E-08  0.2105467E-08  0.2230970E-08  0.5000000E-15
  1.000000000000000E-004
  CAR 
 Li                                      
      3.53950584     -3.40858266  301      0.44959185      1.00000000
     -3.409  0.0000E+00  0.0000E+00
     -3.385  0.0000E+00  0.0000E+00
     -3.362  0.0000E+00  0.0000E+00
     -3.339  0.0000E+00  0.0000E+00
     -3.316  0.0000E+00  0.0000E+00
     -3.293  0.0000E+00  0.0000E+00
     -3.270  0.4794E-14  0.1110E-15
     -3.246  0.1773E-10  0.4106E-12
     -3.223  0.3135E-07  0.7264E-09
     -3.200  0.1728E-04  0.4010E-06
     -3.177  0.3000E-02  0.6988E-04
     -3.154  0.1660E+00  0.3915E-02
     -3.131  0.2981E+01  0.7295E-01
     -3.107  0.1771E+02  0.4831E+00
     -3.084  0.3544E+02  0.1304E+01
     -3.061  0.2411E+02  0.1862E+01
     -3.038  0.6334E+01  0.2009E+01
     -3.015  0.1083E+02  0.2260E+01
     -2.992  0.4981E+02  0.3413E+01
     -2.969  0.9385E+02  0.5587E+01
     -2.945  0.7475E+02  0.7318E+01
     -2.922  0.2616E+02  0.7924E+01
     -2.899  0.1093E+02  0.8177E+01
     -2.876  0.4037E+02  0.9112E+01
     -2.853  0.8828E+02  0.1116E+02
     -2.830  0.8291E+02  0.1308E+02
     -2.806  0.3553E+02  0.1390E+02
     -2.783  0.2058E+02  0.1438E+02
     -2.760  0.5323E+02  0.1561E+02
     -2.737  0.9491E+02  0.1781E+02
     -2.714  0.1016E+03  0.2016E+02
     -2.691  0.6302E+02  0.2162E+02
     -2.667  0.3634E+02  0.2246E+02
     -2.644  0.6802E+02  0.2404E+02
     -2.621  0.1158E+03  0.2672E+02
     -2.598  0.1394E+03  0.2995E+02
     -2.575  0.1147E+03  0.3260E+02
     -2.552  0.5574E+02  0.3389E+02
     -2.528  0.3709E+02  0.3475E+02
     -2.505  0.6079E+02  0.3616E+02
     -2.482  0.8045E+02  0.3802E+02
     -2.459  0.6825E+02  0.3960E+02
     -2.436  0.4928E+02  0.4075E+02
     -2.413  0.5983E+02  0.4213E+02
     -2.390  0.8588E+02  0.4412E+02
     -2.366  0.1145E+03  0.4677E+02
     -2.343  0.1258E+03  0.4968E+02
     -2.320  0.1124E+03  0.5229E+02
     -2.297  0.1048E+03  0.5472E+02
     -2.274  0.1166E+03  0.5742E+02
     -2.251  0.1449E+03  0.6077E+02
     -2.227  0.1696E+03  0.6470E+02
     -2.204  0.1428E+03  0.6801E+02
     -2.181  0.8482E+02  0.6997E+02
     -2.158  0.5615E+02  0.7127E+02
     -2.135  0.5346E+02  0.7251E+02
     -2.112  0.6764E+02  0.7408E+02
     -2.088  0.7035E+02  0.7571E+02
     -2.065  0.7166E+02  0.7737E+02
     -2.042  0.9856E+02  0.7965E+02
     -2.019  0.1252E+03  0.8255E+02
     -1.996  0.1465E+03  0.8594E+02
     -1.973  0.1431E+03  0.8926E+02
     -1.949  0.1090E+03  0.9178E+02
     -1.926  0.9906E+02  0.9407E+02
     -1.903  0.1287E+03  0.9705E+02
     -1.880  0.1539E+03  0.1006E+03
     -1.857  0.1758E+03  0.1047E+03
     -1.834  0.1692E+03  0.1086E+03
     -1.811  0.1064E+03  0.1111E+03
     -1.787  0.4645E+02  0.1121E+03
     -1.764  0.5847E+02  0.1135E+03
     -1.741  0.1210E+03  0.1163E+03
     -1.718  0.1485E+03  0.1197E+03
     -1.695  0.1277E+03  0.1227E+03
     -1.672  0.1342E+03  0.1258E+03
     -1.648  0.1586E+03  0.1295E+03
     -1.625  0.1600E+03  0.1332E+03
     -1.602  0.1638E+03  0.1370E+03
     -1.579  0.1465E+03  0.1404E+03
     -1.556  0.1218E+03  0.1432E+03
     -1.533  0.1342E+03  0.1463E+03
     -1.509  0.1530E+03  0.1498E+03
     -1.486  0.1572E+03  0.1535E+03
     -1.463  0.1424E+03  0.1568E+03
     -1.440  0.1194E+03  0.1595E+03
     -1.417  0.1038E+03  0.1620E+03
     -1.394  0.1045E+03  0.1644E+03
     -1.370  0.1047E+03  0.1668E+03
     -1.347  0.1019E+03  0.1692E+03
     -1.324  0.1125E+03  0.1718E+03
     -1.301  0.1374E+03  0.1749E+03
     -1.278  0.1458E+03  0.1783E+03
     -1.255  0.1454E+03  0.1817E+03
     -1.232  0.1560E+03  0.1853E+03
     -1.208  0.1609E+03  0.1890E+03
     -1.185  0.1607E+03  0.1928E+03
     -1.162  0.1663E+03  0.1966E+03
     -1.139  0.1914E+03  0.2010E+03
     -1.116  0.2176E+03  0.2061E+03
     -1.093  0.2232E+03  0.2112E+03
     -1.069  0.2000E+03  0.2159E+03
     -1.046  0.1706E+03  0.2198E+03
     -1.023  0.1654E+03  0.2237E+03
     -1.000  0.1590E+03  0.2273E+03
     -0.977  0.1299E+03  0.2303E+03
     -0.954  0.1002E+03  0.2327E+03
     -0.930  0.1148E+03  0.2353E+03
     -0.907  0.1561E+03  0.2389E+03
     -0.884  0.1584E+03  0.2426E+03
     -0.861  0.1431E+03  0.2459E+03
     -0.838  0.1567E+03  0.2496E+03
     -0.815  0.1741E+03  0.2536E+03
     -0.791  0.1836E+03  0.2578E+03
     -0.768  0.1838E+03  0.2621E+03
     -0.745  0.1732E+03  0.2661E+03
     -0.722  0.1501E+03  0.2696E+03
     -0.699  0.1231E+03  0.2724E+03
     -0.676  0.1344E+03  0.2756E+03
     -0.653  0.1675E+03  0.2794E+03
     -0.629  0.1694E+03  0.2834E+03
     -0.606  0.1689E+03  0.2873E+03
     -0.583  0.1778E+03  0.2914E+03
     -0.560  0.1787E+03  0.2955E+03
     -0.537  0.1904E+03  0.2999E+03
     -0.514  0.2116E+03  0.3048E+03
     -0.490  0.2184E+03  0.3099E+03
     -0.467  0.2064E+03  0.3147E+03
     -0.444  0.2110E+03  0.3196E+03
     -0.421  0.2299E+03  0.3249E+03
     -0.398  0.2194E+03  0.3300E+03
     -0.375  0.1946E+03  0.3345E+03
     -0.351  0.1762E+03  0.3386E+03
     -0.328  0.1580E+03  0.3422E+03
     -0.305  0.1546E+03  0.3458E+03
     -0.282  0.1727E+03  0.3498E+03
     -0.259  0.1796E+03  0.3540E+03
     -0.236  0.1728E+03  0.3580E+03
     -0.212  0.1745E+03  0.3620E+03
     -0.189  0.1868E+03  0.3663E+03
     -0.166  0.1986E+03  0.3709E+03
     -0.143  0.1966E+03  0.3755E+03
     -0.120  0.1862E+03  0.3798E+03
     -0.097  0.1886E+03  0.3842E+03
     -0.074  0.2081E+03  0.3890E+03
     -0.050  0.2260E+03  0.3942E+03
     -0.027  0.2367E+03  0.3997E+03
     -0.004  0.2446E+03  0.4054E+03
      0.019  0.2464E+03  0.4111E+03
      0.042  0.2305E+03  0.4164E+03
      0.065  0.2078E+03  0.4212E+03
      0.089  0.2013E+03  0.4259E+03
      0.112  0.2033E+03  0.4306E+03
      0.135  0.2040E+03  0.4353E+03
      0.158  0.2093E+03  0.4402E+03
      0.181  0.2074E+03  0.4450E+03
      0.204  0.2002E+03  0.4496E+03
      0.228  0.1976E+03  0.4542E+03
      0.251  0.1909E+03  0.4586E+03
      0.274  0.1846E+03  0.4629E+03
      0.297  0.1876E+03  0.4672E+03
      0.320  0.1958E+03  0.4717E+03
      0.343  0.2132E+03  0.4767E+03
      0.367  0.2353E+03  0.4821E+03
      0.390  0.2448E+03  0.4878E+03
      0.413  0.2592E+03  0.4938E+03
      0.436  0.2768E+03  0.5002E+03
      0.459  0.2779E+03  0.5067E+03
      0.482  0.2757E+03  0.5130E+03
      0.506  0.2760E+03  0.5194E+03
      0.529  0.2739E+03  0.5258E+03
      0.552  0.2636E+03  0.5319E+03
      0.575  0.2558E+03  0.5378E+03
      0.598  0.2593E+03  0.5438E+03
      0.621  0.2553E+03  0.5497E+03
      0.644  0.2414E+03  0.5553E+03
      0.668  0.2311E+03  0.5607E+03
      0.691  0.2305E+03  0.5660E+03
      0.714  0.2346E+03  0.5714E+03
      0.737  0.2384E+03  0.5770E+03
      0.760  0.2345E+03  0.5824E+03
      0.783  0.2176E+03  0.5874E+03
      0.807  0.2113E+03  0.5923E+03
      0.830  0.2103E+03  0.5972E+03
      0.853  0.2065E+03  0.6020E+03
      0.876  0.2105E+03  0.6069E+03
      0.899  0.2112E+03  0.6117E+03
      0.922  0.1989E+03  0.6164E+03
      0.946  0.1986E+03  0.6210E+03
      0.969  0.2167E+03  0.6260E+03
      0.992  0.2223E+03  0.6311E+03
      1.015  0.2096E+03  0.6360E+03
      1.038  0.2042E+03  0.6407E+03
      1.061  0.2070E+03  0.6455E+03
      1.085  0.2233E+03  0.6507E+03
      1.108  0.2395E+03  0.6562E+03
      1.131  0.2511E+03  0.6620E+03
      1.154  0.2539E+03  0.6679E+03
      1.177  0.2492E+03  0.6737E+03
      1.200  0.2294E+03  0.6790E+03
      1.223  0.2140E+03  0.6840E+03
      1.247  0.2160E+03  0.6890E+03
      1.270  0.2181E+03  0.6940E+03
      1.293  0.2238E+03  0.6992E+03
      1.316  0.2267E+03  0.7044E+03
      1.339  0.2162E+03  0.7094E+03
      1.362  0.2084E+03  0.7143E+03
      1.386  0.2141E+03  0.7192E+03
      1.409  0.2157E+03  0.7242E+03
      1.432  0.2138E+03  0.7292E+03
      1.455  0.2118E+03  0.7341E+03
      1.478  0.2080E+03  0.7389E+03
      1.501  0.2030E+03  0.7436E+03
      1.525  0.2084E+03  0.7484E+03
      1.548  0.2063E+03  0.7532E+03
      1.571  0.2058E+03  0.7580E+03
      1.594  0.2113E+03  0.7629E+03
      1.617  0.2094E+03  0.7677E+03
      1.640  0.2098E+03  0.7726E+03
      1.664  0.2142E+03  0.7775E+03
      1.687  0.2138E+03  0.7825E+03
      1.710  0.2121E+03  0.7874E+03
      1.733  0.2139E+03  0.7924E+03
      1.756  0.2154E+03  0.7973E+03
      1.779  0.2167E+03  0.8024E+03
      1.802  0.2180E+03  0.8074E+03
      1.826  0.2176E+03  0.8125E+03
      1.849  0.2104E+03  0.8173E+03
      1.872  0.2106E+03  0.8222E+03
      1.895  0.2181E+03  0.8273E+03
      1.918  0.2095E+03  0.8321E+03
      1.941  0.1980E+03  0.8367E+03
      1.965  0.1896E+03  0.8411E+03
      1.988  0.1890E+03  0.8455E+03
      2.011  0.1914E+03  0.8499E+03
      2.034  0.1863E+03  0.8542E+03
      2.057  0.1840E+03  0.8585E+03
      2.080  0.1878E+03  0.8628E+03
      2.104  0.1933E+03  0.8673E+03
      2.127  0.1916E+03  0.8717E+03
      2.150  0.1901E+03  0.8761E+03
      2.173  0.1848E+03  0.8804E+03
      2.196  0.1783E+03  0.8845E+03
      2.219  0.1773E+03  0.8887E+03
      2.243  0.1736E+03  0.8927E+03
      2.266  0.1642E+03  0.8965E+03
      2.289  0.1558E+03  0.9001E+03
      2.312  0.1641E+03  0.9039E+03
      2.335  0.1662E+03  0.9077E+03
      2.358  0.1518E+03  0.9113E+03
      2.381  0.1390E+03  0.9145E+03
      2.405  0.1402E+03  0.9177E+03
      2.428  0.1496E+03  0.9212E+03
      2.451  0.1528E+03  0.9247E+03
      2.474  0.1509E+03  0.9282E+03
      2.497  0.1474E+03  0.9316E+03
      2.520  0.1501E+03  0.9351E+03
      2.544  0.1441E+03  0.9384E+03
      2.567  0.1317E+03  0.9415E+03
      2.590  0.1323E+03  0.9446E+03
      2.613  0.1417E+03  0.9478E+03
      2.636  0.1436E+03  0.9512E+03
      2.659  0.1414E+03  0.9544E+03
      2.683  0.1406E+03  0.9577E+03
      2.706  0.1317E+03  0.9607E+03
      2.729  0.1304E+03  0.9638E+03
      2.752  0.1307E+03  0.9668E+03
      2.775  0.1235E+03  0.9697E+03
      2.798  0.1176E+03  0.9724E+03
      2.822  0.1269E+03  0.9753E+03
      2.845  0.1404E+03  0.9786E+03
      2.868  0.1286E+03  0.9815E+03
      2.891  0.1132E+03  0.9842E+03
      2.914  0.1176E+03  0.9869E+03
      2.937  0.1248E+03  0.9898E+03
      2.960  0.1168E+03  0.9925E+03
      2.984  0.1054E+03  0.9949E+03
      3.007  0.9845E+02  0.9972E+03
      3.030  0.9122E+02  0.9993E+03
      3.053  0.8418E+02  0.1001E+04
      3.076  0.7801E+02  0.1003E+04
      3.099  0.6561E+02  0.1005E+04
      3.123  0.4892E+02  0.1006E+04
      3.146  0.3609E+02  0.1007E+04
      3.169  0.3709E+02  0.1007E+04
      3.192  0.4136E+02  0.1008E+04
      3.215  0.3915E+02  0.1009E+04
      3.238  0.2277E+02  0.1010E+04
      3.262  0.6785E+01  0.1010E+04
      3.285  0.8954E+00  0.1010E+04
      3.308  0.4521E-01  0.1010E+04
      3.331  0.7897E-03  0.1010E+04
      3.354  0.4512E-05  0.1010E+04
      3.377  0.8192E-08  0.1010E+04
      3.401  0.4655E-11  0.1010E+04
      3.424  0.0000E+00  0.1010E+04
      3.447  0.0000E+00  0.1010E+04
      3.470  0.0000E+00  0.1010E+04
      3.493  0.0000E+00  0.1010E+04
      3.516  0.0000E+00  0.1010E+04
      3.540  0.0000E+00  0.1010E+04
