Li                                      
           1
   -10.636430   18.422837    0.000000
   -18.233880  -10.527336    0.000000
    -0.000000    0.000000   22.309700
   Li
   504
Direct configuration=     1
   0.99745539  0.00995601  0.97822686
   0.93819279  0.04338640  0.68217745
   0.85379443  0.10013536  0.34495278
   0.78506172  0.14414460  0.00259318
   0.71960659  0.16730110  0.65930501
   0.63972049  0.21548611  0.34142375
   0.58793556  0.25523370  0.99246393
   0.51374856  0.29246821  0.69364820
   0.43499203  0.33445342  0.33974582
   0.36256778  0.38125526  0.01614499
   0.29810984  0.41602614  0.63202714
   0.21220014  0.45977377  0.30801076
   0.06699712  0.05847954  0.67176950
   0.99504454  0.08643002  0.34449194
   0.92809864  0.14606779  0.00000094
   0.85327949  0.17504214  0.68422754
   0.78520896  0.21608222  0.34314028
   0.71563917  0.26038351  0.98380014
   0.65160731  0.28070427  0.70990417
   0.58271295  0.32973425  0.35011430
   0.50542499  0.37495624  0.00341316
   0.44429723  0.41691694  0.66289986
   0.35712003  0.45817930  0.32442630
   0.28378169  0.51643732  0.99984953
   0.13617191  0.09849140  0.31589187
   0.06680960  0.14345691  0.99098992
   0.00602915  0.16640853  0.67166740
   0.93446111  0.21661222  0.33581802
   0.85707039  0.26159304  0.99196694
   0.78725827  0.29506559  0.66948213
   0.71241496  0.33312346  0.33550333
   0.63290360  0.37718042  0.01097859
   0.57409844  0.40644265  0.67537356
   0.50416104  0.45611726  0.34047058
   0.43635842  0.48741872  0.01415618
   0.36302527  0.54359714  0.68347207
   0.20823413  0.13739057  0.01422520
   0.13904786  0.17390652  0.67622491
   0.06489291  0.20825060  0.33539912
   0.00523133  0.23780175  0.00483105
   0.93853126  0.29257330  0.66574570
   0.87066986  0.32314837  0.33380626
   0.78838279  0.37201803  0.97933233
   0.70865607  0.42081815  0.67130430
   0.63915255  0.45633170  0.33496327
   0.56683083  0.49850937  0.99999749
   0.50274312  0.54715824  0.67091154
   0.42273161  0.57908061  0.33958811
   0.28722599  0.16098897  0.69733827
   0.23072921  0.21632086  0.33450383
   0.14502072  0.24932067  0.99480243
   0.06347927  0.29345972  0.67756263
   0.00044174  0.33010897  0.33798992
   0.92856789  0.37532253  0.01752015
   0.85595913  0.41485875  0.64792548
   0.78131844  0.45279184  0.35049935
   0.72094030  0.49829048  0.99863021
   0.64879210  0.53469809  0.68447104
   0.57686346  0.59025280  0.32199166
   0.50055367  0.63201096  0.98924092
   0.36501860  0.21604258  0.33659174
   0.28356260  0.24821404  0.99237972
   0.22561678  0.29245607  0.67813650
   0.14917962  0.33881902  0.31994377
   0.08323483  0.38220743  0.00494345
   0.00141439  0.42211220  0.64560248
   0.93058626  0.45323389  0.33868733
   0.85668242  0.49732094  0.97572106
   0.78236828  0.55130991  0.66245583
   0.71738696  0.57693951  0.33105317
   0.65115787  0.62278048  0.99369358
   0.57573208  0.66205713  0.68333801
   0.43296894  0.25760550  0.01022166
   0.35622371  0.29060741  0.66357603
   0.28307429  0.34043239  0.31883917
   0.22246378  0.37803923  0.00080890
   0.15953195  0.41939389  0.66885230
   0.07662611  0.46558860  0.34701925
   0.00706423  0.49667036  0.01627429
   0.93232120  0.54150869  0.65146347
   0.85313524  0.57526114  0.32573308
   0.78007166  0.62967391  0.01724357
   0.71386149  0.66330024  0.68500292
   0.64604923  0.70882449  0.33565528
   0.14615464  0.50477158  0.00161457
   0.07278106  0.54409199  0.65038517
   0.99562772  0.58715969  0.33440267
   0.92090624  0.62879827  0.98887485
   0.84302419  0.66120580  0.69262199
   0.78083026  0.69851224  0.31580777
   0.71163335  0.73922301  0.98991298
   0.21504285  0.55234357  0.66928583
   0.14923651  0.59281910  0.33771556
   0.07450759  0.62440330  0.00190644
   0.99188640  0.67198601  0.67232082
   0.91616899  0.70812164  0.32364570
   0.85625027  0.74884280  0.98687456
   0.78285366  0.79019709  0.68302826
   0.29017718  0.59572433  0.31877428
   0.20886963  0.62038144  0.99382194
   0.13093035  0.66065440  0.65602082
   0.06984632  0.70387801  0.32301688
   0.98999329  0.74840666  0.01194139
   0.92365356  0.78522025  0.66872078
   0.85018992  0.83399258  0.34255913
   0.35651998  0.62952347  0.95790056
   0.28346817  0.67166532  0.66099851
   0.20613606  0.70706498  0.34144997
   0.13439557  0.75220713  0.99470946
   0.06476579  0.79119450  0.66554211
   0.99460100  0.83610941  0.30573128
   0.91605767  0.87488227  0.01053955
   0.42305410  0.65756753  0.66796063
   0.35217180  0.70231244  0.33968498
   0.28923995  0.76459441  0.96454397
   0.22066129  0.78999221  0.67153411
   0.13804315  0.84134175  0.31513261
   0.05623309  0.87644764  0.00695472
   0.99216563  0.92290934  0.65961698
   0.92573007  0.97107280  0.31904573
   0.85422691  0.00843097  0.99617968
   0.78607722  0.04655502  0.66939903
   0.70063658  0.08157268  0.34374821
   0.64390906  0.12978357  0.01664848
   0.57327620  0.16719301  0.67345609
   0.50295660  0.21838498  0.34194071
   0.07134913  0.97275903  0.33828460
   0.13984436  0.01022541  0.02524418
   0.20690344  0.04705859  0.67031146
   0.28799761  0.08862645  0.34496004
   0.36565355  0.13220854  0.98825591
   0.44420037  0.16919858  0.68393936
   0.85666797  0.91031385  0.66109767
   0.78637932  0.95308309  0.33252504
   0.71631371  0.00835448  0.00382907
   0.63612007  0.04537724  0.67269130
   0.57049984  0.09236033  0.32481277
   0.50624977  0.13155238  0.01569500
   0.13693849  0.91982393  0.64031371
   0.19897947  0.97560339  0.34458997
   0.28318339  0.00042467  0.01193210
   0.36295447  0.04142121  0.66586046
   0.43752519  0.08832956  0.34027728
   0.77952379  0.87665278  0.00586935
   0.70741932  0.93429640  0.65522138
   0.63549472  0.96346527  0.33473921
   0.57169923  0.00577721  0.00097519
   0.49298178  0.05179383  0.64832128
   0.21933618  0.88235472  0.00559425
   0.28102697  0.93824305  0.64429628
   0.35918312  0.96813226  0.32030339
   0.44594048  0.99808804  0.00706707
   0.71087998  0.83329288  0.32965262
   0.63785814  0.87643745  0.99056855
   0.56062536  0.93039384  0.65620410
   0.50324976  0.95492633  0.34900718
   0.28482576  0.83873264  0.33232674
   0.35886405  0.88145467  0.98564759
   0.42577057  0.92512576  0.64995780
   0.63442945  0.79051100  0.67040560
   0.56781452  0.83732879  0.32858392
   0.49806816  0.88027959  0.96950156
   0.36098829  0.78805811  0.65106372
   0.42292566  0.83006900  0.34004697
   0.57739623  0.75121398  0.95490214
   0.50049977  0.79039757  0.68864750
   0.43672748  0.74933593  0.97042953
   0.48938893  0.71207782  0.33753520
   0.02224305  0.98066680  0.78669205
   0.94652284  0.05595811  0.43746147
   0.85765043  0.06637432  0.11467660
   0.79902010  0.13445861  0.77900392
   0.71269710  0.18165449  0.46540376
   0.66829367  0.20317910  0.11603917
   0.57150854  0.23974192  0.78843852
   0.52585810  0.28858345  0.44748410
   0.41861684  0.32037759  0.11750110
   0.35469074  0.37243442  0.78505247
   0.26703744  0.42391672  0.41653520
   0.20787158  0.45346107  0.10123855
   0.06903745  0.05473049  0.43324810
   0.00825055  0.08163012  0.08566924
   0.92790470  0.13058379  0.76268676
   0.84499696  0.16310133  0.46066492
   0.78098220  0.20044426  0.11590817
   0.71567364  0.23244556  0.77974303
   0.62954343  0.30164426  0.46549718
   0.58184376  0.32565876  0.11608013
   0.47399617  0.36604715  0.78271453
   0.43943047  0.42512758  0.46404390
   0.35413911  0.46709533  0.13073798
   0.29385219  0.48204799  0.76804226
   0.14223513  0.08531539  0.10753256
   0.05739664  0.11164638  0.78962231
   0.00768485  0.17706743  0.45907870
   0.93855926  0.20073844  0.09464159
   0.86383825  0.22822961  0.78492878
   0.79289063  0.30711890  0.46248438
   0.72420972  0.32693469  0.11893760
   0.62463488  0.36583934  0.78762021
   0.56815310  0.42883016  0.44776015
   0.49722574  0.45077269  0.10866918
   0.43171165  0.48774192  0.76375369
   0.35013199  0.51912541  0.41440857
   0.20556700  0.11620626  0.78975977
   0.13655156  0.17008751  0.43621828
   0.05504886  0.20677567  0.11404562
   0.01500498  0.23209278  0.78616496
   0.94935519  0.28237397  0.47021195
   0.86374147  0.31672049  0.12425350
   0.77756092  0.35500005  0.78022892
   0.72508795  0.41404300  0.44381044
   0.64605258  0.46240203  0.10861425
   0.56866441  0.48132539  0.77987707
   0.49352154  0.55595342  0.44589892
   0.42602841  0.58156916  0.10648216
   0.29332816  0.16091092  0.45067886
   0.21668569  0.20152764  0.11908646
   0.13796096  0.24098527  0.78657892
   0.09707317  0.28956681  0.46185491
   0.99377001  0.31441201  0.11566177
   0.93872744  0.37474955  0.76647556
   0.86592685  0.40910036  0.45165219
   0.77939730  0.46629124  0.11201287
   0.71076441  0.45865007  0.79755435
   0.63245973  0.55171627  0.44276228
   0.55498474  0.58818199  0.10139119
   0.49568386  0.63002748  0.76631646
   0.36459414  0.19506163  0.11195987
   0.28378327  0.25711098  0.77645910
   0.22050517  0.29924528  0.42600146
   0.15327402  0.31312817  0.13054372
   0.09319922  0.36476810  0.78162375
   0.00727608  0.40140842  0.45345542
   0.92459917  0.45819298  0.12597796
   0.86481260  0.48426553  0.77808854
   0.77750136  0.53822710  0.44317163
   0.72807330  0.59044422  0.11901077
   0.64519121  0.59995633  0.78929968
   0.58285924  0.66185206  0.42785241
   0.41390540  0.24045596  0.80506421
   0.36250746  0.30198139  0.45387591
   0.28322871  0.32738354  0.11408495
   0.20835330  0.34756618  0.77877982
   0.13950541  0.43179402  0.42712286
   0.06838382  0.43750120  0.11290956
   0.00690408  0.47680380  0.75943390
   0.94943393  0.54286399  0.45205350
   0.84042495  0.59504903  0.13463105
   0.78385463  0.61173675  0.79982606
   0.72294650  0.66462211  0.43851164
   0.65006590  0.71098924  0.09772612
   0.15647823  0.50176667  0.75097838
   0.07813047  0.54645789  0.44472686
   0.00251294  0.58701432  0.10881094
   0.90907588  0.61466694  0.79734553
   0.84088418  0.66401284  0.43004694
   0.79034458  0.71001203  0.10295974
   0.70352901  0.73227487  0.77393516
   0.21284187  0.54772706  0.43694516
   0.13487518  0.58116571  0.09712108
   0.05012733  0.60586366  0.78460495
   0.00264565  0.67196016  0.43026738
   0.90377257  0.69577330  0.12380801
   0.84856079  0.74594367  0.77790355
   0.80136388  0.78333885  0.43063863
   0.26102900  0.57877242  0.11577783
   0.20761858  0.62492720  0.78484594
   0.15706469  0.66996166  0.43067154
   0.05225302  0.70674607  0.10916649
   0.00409435  0.73183630  0.78546970
   0.94955102  0.80228438  0.45246562
   0.84673227  0.83586824  0.10560571
   0.36281166  0.60765356  0.78874140
   0.28884523  0.66193868  0.43212202
   0.20044764  0.69903480  0.10530382
   0.15064077  0.74366720  0.75850898
   0.08458914  0.79767890  0.43004272
   0.99847137  0.81630090  0.11825881
   0.92459500  0.87589895  0.75530474
   0.43268559  0.65971958  0.44390632
   0.35126382  0.68999992  0.08444604
   0.29026022  0.75357256  0.77555605
   0.21220336  0.78815473  0.44025288
   0.14222693  0.82812942  0.12697599
   0.07924328  0.84749761  0.80450795
   0.01780435  0.92708700  0.45525871
   0.92511394  0.95197210  0.10550342
   0.88157098  0.99129255  0.79792183
   0.79440983  0.05639054  0.45186664
   0.72411359  0.06908103  0.12610975
   0.63592010  0.11497525  0.77002905
   0.57690135  0.16390983  0.46497019
   0.51760220  0.21918962  0.13051515
   0.06790500  0.94620002  0.10628436
   0.12330827  0.97835575  0.77956392
   0.20546372  0.05421401  0.45434209
   0.28344654  0.08703907  0.10181136
   0.33886889  0.10176733  0.78989339
   0.42639894  0.16518106  0.43203057
   0.86514993  0.92018820  0.46784794
   0.78475152  0.94852919  0.12303496
   0.73708659  0.99965040  0.78031679
   0.64953925  0.02792146  0.44720937
   0.57843426  0.09076757  0.10089371
   0.50163033  0.12323237  0.78576892
   0.14070401  0.93619385  0.45084063
   0.20650774  0.97047003  0.12240859
   0.27345684  0.98733548  0.75350001
   0.34933348  0.04194780  0.42953316
   0.45822175  0.07490682  0.12448071
   0.80623602  0.85767919  0.79458373
   0.73359124  0.92654886  0.44863142
   0.63467331  0.95941035  0.09940656
   0.57925981  0.98315780  0.76169774
   0.49876685  0.05348699  0.45837718
   0.20274477  0.86271493  0.77650645
   0.28992186  0.90437849  0.45234219
   0.36496656  0.94887496  0.11588374
   0.44570234  0.99519978  0.75794722
   0.70504310  0.81714504  0.09106853
   0.65698065  0.85639166  0.75736489
   0.57808349  0.92234736  0.42931101
   0.49819596  0.95122322  0.12227605
   0.28319451  0.83787967  0.11354213
   0.36069154  0.87372486  0.75817388
   0.43592296  0.91257437  0.45446957
   0.67826378  0.79634803  0.47145702
   0.56008434  0.84053634  0.10512696
   0.49954633  0.86417495  0.77740940
   0.35702986  0.79082386  0.44087239
   0.42821428  0.82604020  0.08823525
   0.56356165  0.72956502  0.79190819
   0.50981027  0.78032671  0.45234615
   0.42108733  0.74102796  0.77603771
   0.49542746  0.70030573  0.08840971
   0.98737854  0.00775318  0.22129769
   0.93570253  0.04548100  0.88792095
   0.87061429  0.08962148  0.58342101
   0.77119697  0.10830145  0.22468925
   0.72162599  0.14128906  0.88598608
   0.62866911  0.22034159  0.58093573
   0.59114678  0.25818489  0.23464261
   0.48243790  0.28839719  0.88062498
   0.44629083  0.35407344  0.55840306
   0.35369338  0.37339422  0.22282587
   0.29617908  0.39773880  0.87069774
   0.19945099  0.47288045  0.53650744
   0.07406866  0.03506411  0.90425846
   0.99736163  0.08837624  0.56500769
   0.93446646  0.11990656  0.20454926
   0.86692951  0.16170885  0.89092461
   0.79763842  0.21156342  0.56000404
   0.73620247  0.24473545  0.23889098
   0.64662162  0.27045184  0.88170595
   0.56106886  0.35643700  0.57554978
   0.50772687  0.39619902  0.23139297
   0.41314036  0.42230406  0.88917682
   0.33996510  0.44375516  0.56615848
   0.26987203  0.49639277  0.21398690
   0.13763462  0.09179718  0.54825282
   0.07223440  0.13464852  0.21709940
   0.98985260  0.16388702  0.90168927
   0.92340900  0.20904800  0.56205561
   0.86128835  0.24315573  0.23763580
   0.77309216  0.26871452  0.87260406
   0.70867967  0.33120548  0.56630245
   0.66370503  0.37751279  0.22886431
   0.55834683  0.40332898  0.90071889
   0.50654528  0.48247749  0.56738709
   0.41027758  0.48803859  0.22529420
   0.36419559  0.53802914  0.88134561
   0.20487763  0.13807586  0.22237414
   0.13833668  0.16318067  0.89299687
   0.08190784  0.21403060  0.56728310
   0.98003574  0.25581008  0.20798224
   0.92790050  0.28536507  0.89596669
   0.86271405  0.34810626  0.56548103
   0.79827552  0.38341657  0.22525575
   0.70433371  0.39496621  0.88681848
   0.64868372  0.45778702  0.54530448
   0.56527020  0.50776527  0.20109663
   0.50171078  0.52654342  0.89980138
   0.41995664  0.57437668  0.54142893
   0.28552923  0.17559006  0.86872678
   0.21666552  0.22446788  0.55437843
   0.15148164  0.24750410  0.21383069
   0.07515580  0.28542946  0.89074578
   0.01867280  0.32952293  0.55697136
   0.93351426  0.35615810  0.24344945
   0.86185223  0.40869397  0.89218681
   0.79675114  0.46314367  0.53959832
   0.71088653  0.51974633  0.23497707
   0.64765188  0.50354136  0.87782167
   0.56744013  0.58318692  0.54960554
   0.49035979  0.60173579  0.21176687
   0.35724069  0.23647697  0.56995790
   0.28819763  0.23422301  0.23491437
   0.20791662  0.29626640  0.88338156
   0.15871993  0.36443452  0.56841811
   0.06926496  0.35911371  0.21296676
   0.01260212  0.40870068  0.88231573
   0.94051090  0.46196148  0.54466310
   0.84011064  0.50155350  0.24341451
   0.77780950  0.53507226  0.88510172
   0.69446336  0.59209394  0.54807878
   0.61740067  0.64861152  0.21684474
   0.56260287  0.64817252  0.87959400
   0.42927838  0.25116974  0.24343869
   0.35171226  0.28148326  0.89487039
   0.28536007  0.34093364  0.55523831
   0.22082611  0.37218442  0.22736384
   0.14881056  0.41077645  0.88714239
   0.06576345  0.46729169  0.53904666
   0.00390290  0.51430018  0.22731258
   0.93280830  0.53887620  0.86676885
   0.84627603  0.57693072  0.55011002
   0.77833175  0.64017612  0.22193954
   0.70146230  0.65383627  0.89899580
   0.64153458  0.71159161  0.56517484
   0.12945818  0.50274753  0.19827490
   0.07439034  0.52885601  0.87961861
   0.00289164  0.60880070  0.56076125
   0.92578502  0.63762825  0.23922237
   0.85101887  0.66234109  0.89023770
   0.78721672  0.70398017  0.55613331
   0.70967024  0.75964600  0.21049088
   0.23338865  0.55077740  0.88039696
   0.14880623  0.59164627  0.56611184
   0.06985741  0.63565275  0.22917980
   0.99110055  0.67362493  0.88634119
   0.92856254  0.72989112  0.55011407
   0.84674763  0.74535381  0.22865336
   0.77169747  0.79428743  0.87725717
   0.29964422  0.58961813  0.55717001
   0.20229172  0.62028809  0.20276520
   0.12917514  0.66486019  0.89126925
   0.07178748  0.72151332  0.55827700
   0.97845105  0.75449866  0.19666077
   0.91523904  0.78693044  0.87254116
   0.86376333  0.82436280  0.54532409
   0.34947692  0.63095400  0.20860137
   0.29777219  0.67292549  0.85367327
   0.22505226  0.70847901  0.56395237
   0.12669326  0.73833010  0.22769470
   0.07677779  0.78831343  0.86967006
   0.00483806  0.84878777  0.56513614
   0.91400449  0.88077812  0.20855956
   0.42599917  0.64238904  0.87194525
   0.36988314  0.70910461  0.54060509
   0.29495471  0.74048612  0.22709046
   0.22190268  0.79087995  0.88041933
   0.15565820  0.85966673  0.53398366
   0.07431754  0.87290334  0.21373422
   0.99857675  0.91111417  0.89387505
   0.93746819  0.98880029  0.56163204
   0.83949500  0.99565109  0.22988450
   0.79765875  0.04056230  0.88754729
   0.71619268  0.09061472  0.57985688
   0.64072518  0.14556155  0.22004838
   0.57672710  0.17286800  0.89589210
   0.50489126  0.19512237  0.56022091
   0.06875140  0.97762174  0.54663699
   0.14285554  0.00159079  0.21689666
   0.21635919  0.03557174  0.88997846
   0.28403849  0.10072674  0.53825118
   0.37851087  0.14180196  0.23076433
   0.42325174  0.14899427  0.86485472
   0.85699749  0.91740351  0.89926729
   0.78114252  0.97391631  0.57092703
   0.70915815  0.99944402  0.23450700
   0.64209097  0.04333599  0.88909378
   0.57223280  0.08051425  0.58330584
   0.50333915  0.12974442  0.22162526
   0.13348496  0.90003623  0.91818018
   0.21404491  0.97728669  0.55760285
   0.29917132  0.02204204  0.21855042
   0.35785131  0.03206130  0.89538545
   0.41914000  0.09217070  0.54685478
   0.76354380  0.88287329  0.22679003
   0.71557080  0.92016899  0.88709293
   0.64608190  0.96197132  0.55556411
   0.55539065  0.01796323  0.21336761
   0.50846869  0.02064592  0.89891695
   0.21080578  0.89436135  0.22265225
   0.27443029  0.92179595  0.88871329
   0.36598138  0.96288286  0.53942810
   0.42965555  0.99186965  0.23884270
   0.72114636  0.84508243  0.56520212
   0.61499092  0.89019252  0.22596143
   0.57207411  0.91085928  0.88340142
   0.49813970  0.96285742  0.53122109
   0.28625768  0.84746381  0.55006315
   0.34000721  0.88511486  0.18797843
   0.42312775  0.92161160  0.87176823
   0.61306837  0.79467008  0.87660464
   0.58341475  0.83719754  0.57239414
   0.48732589  0.87366745  0.22776767
   0.35627269  0.80040713  0.87065564
   0.43466760  0.83920262  0.55569789
   0.56238606  0.76974348  0.23888677
   0.49380198  0.77739352  0.85500747
   0.42245396  0.73482592  0.20400885
   0.50079428  0.71059073  0.57437055
