 432 432   0   0
  0.1915683E+02  0.2022720E-08  0.2022720E-08  0.2022720E-08  0.5000000E-15
  1.000000000000000E-004
  CAR 
 Li                                      
      3.95870245     -3.37666031  301      0.56786933      1.00000000
     -3.377  0.0000E+00  0.0000E+00
     -3.352  0.0000E+00  0.0000E+00
     -3.328  0.0000E+00  0.0000E+00
     -3.303  0.0000E+00  0.0000E+00
     -3.279  0.0000E+00  0.0000E+00
     -3.254  0.0000E+00  0.0000E+00
     -3.230  0.0000E+00  0.0000E+00
     -3.206  0.8139E-12  0.1990E-13
     -3.181  0.3312E-08  0.8100E-10
     -3.157  0.3672E-05  0.8988E-07
     -3.132  0.1120E-02  0.2747E-04
     -3.108  0.9537E-01  0.2359E-02
     -3.083  0.2317E+01  0.5900E-01
     -3.059  0.1648E+02  0.4620E+00
     -3.034  0.3523E+02  0.1323E+01
     -3.010  0.2291E+02  0.1884E+01
     -2.985  0.4573E+01  0.1995E+01
     -2.961  0.2635E+01  0.2060E+01
     -2.937  0.2421E+02  0.2652E+01
     -2.912  0.8197E+02  0.4656E+01
     -2.888  0.9456E+02  0.6968E+01
     -2.863  0.3716E+02  0.7877E+01
     -2.839  0.5386E+01  0.8009E+01
     -2.814  0.9385E+01  0.8238E+01
     -2.790  0.5161E+02  0.9500E+01
     -2.765  0.9996E+02  0.1194E+02
     -2.741  0.6738E+02  0.1359E+02
     -2.716  0.1563E+02  0.1397E+02
     -2.692  0.4611E+01  0.1409E+02
     -2.668  0.3222E+02  0.1487E+02
     -2.643  0.1062E+03  0.1747E+02
     -2.619  0.1254E+03  0.2054E+02
     -2.594  0.5218E+02  0.2181E+02
     -2.570  0.8734E+01  0.2203E+02
     -2.545  0.2053E+02  0.2253E+02
     -2.521  0.1009E+03  0.2500E+02
     -2.496  0.1872E+03  0.2957E+02
     -2.472  0.1367E+03  0.3292E+02
     -2.448  0.3983E+02  0.3389E+02
     -2.423  0.6690E+01  0.3405E+02
     -2.399  0.2383E+02  0.3464E+02
     -2.374  0.8108E+02  0.3662E+02
     -2.350  0.9494E+02  0.3894E+02
     -2.325  0.3810E+02  0.3987E+02
     -2.301  0.6891E+01  0.4004E+02
     -2.276  0.2076E+02  0.4055E+02
     -2.252  0.9351E+02  0.4283E+02
     -2.227  0.1803E+03  0.4724E+02
     -2.203  0.1447E+03  0.5078E+02
     -2.179  0.4538E+02  0.5189E+02
     -2.154  0.1589E+02  0.5228E+02
     -2.130  0.7468E+02  0.5411E+02
     -2.105  0.2053E+03  0.5913E+02
     -2.081  0.2568E+03  0.6540E+02
     -2.056  0.1483E+03  0.6903E+02
     -2.032  0.3660E+02  0.6993E+02
     -2.007  0.1028E+02  0.7018E+02
     -1.983  0.4264E+02  0.7122E+02
     -1.958  0.9439E+02  0.7353E+02
     -1.934  0.7677E+02  0.7540E+02
     -1.910  0.2272E+02  0.7596E+02
     -1.885  0.1226E+02  0.7626E+02
     -1.861  0.6574E+02  0.7787E+02
     -1.836  0.1728E+03  0.8209E+02
     -1.812  0.1998E+03  0.8698E+02
     -1.787  0.1015E+03  0.8946E+02
     -1.763  0.2287E+02  0.9002E+02
     -1.738  0.2905E+02  0.9073E+02
     -1.714  0.1259E+03  0.9380E+02
     -1.690  0.2420E+03  0.9972E+02
     -1.665  0.2222E+03  0.1052E+03
     -1.641  0.9704E+02  0.1075E+03
     -1.616  0.2014E+02  0.1080E+03
     -1.592  0.2680E+02  0.1087E+03
     -1.567  0.1098E+03  0.1114E+03
     -1.543  0.1834E+03  0.1158E+03
     -1.518  0.1285E+03  0.1190E+03
     -1.494  0.4210E+02  0.1200E+03
     -1.469  0.4525E+02  0.1211E+03
     -1.445  0.1448E+03  0.1247E+03
     -1.421  0.2432E+03  0.1306E+03
     -1.396  0.2066E+03  0.1357E+03
     -1.372  0.8199E+02  0.1377E+03
     -1.347  0.2242E+02  0.1382E+03
     -1.323  0.7426E+02  0.1400E+03
     -1.298  0.2182E+03  0.1454E+03
     -1.274  0.2643E+03  0.1518E+03
     -1.249  0.1377E+03  0.1552E+03
     -1.225  0.3167E+02  0.1560E+03
     -1.201  0.2094E+02  0.1565E+03
     -1.176  0.8917E+02  0.1587E+03
     -1.152  0.1709E+03  0.1628E+03
     -1.127  0.1451E+03  0.1664E+03
     -1.103  0.5649E+02  0.1678E+03
     -1.078  0.1394E+02  0.1681E+03
     -1.054  0.3638E+02  0.1690E+03
     -1.029  0.1064E+03  0.1716E+03
     -1.005  0.1513E+03  0.1753E+03
     -0.980  0.1268E+03  0.1784E+03
     -0.956  0.7713E+02  0.1803E+03
     -0.932  0.1155E+03  0.1831E+03
     -0.907  0.2365E+03  0.1889E+03
     -0.883  0.3166E+03  0.1966E+03
     -0.858  0.3042E+03  0.2041E+03
     -0.834  0.1831E+03  0.2085E+03
     -0.809  0.7496E+02  0.2104E+03
     -0.785  0.1121E+03  0.2131E+03
     -0.760  0.2136E+03  0.2183E+03
     -0.736  0.2120E+03  0.2235E+03
     -0.711  0.1305E+03  0.2267E+03
     -0.687  0.4694E+02  0.2279E+03
     -0.663  0.2823E+02  0.2286E+03
     -0.638  0.1046E+03  0.2311E+03
     -0.614  0.2016E+03  0.2360E+03
     -0.589  0.1711E+03  0.2402E+03
     -0.565  0.6758E+02  0.2419E+03
     -0.540  0.5020E+02  0.2431E+03
     -0.516  0.1507E+03  0.2468E+03
     -0.491  0.2743E+03  0.2535E+03
     -0.467  0.2913E+03  0.2606E+03
     -0.443  0.1813E+03  0.2651E+03
     -0.418  0.1024E+03  0.2676E+03
     -0.394  0.1048E+03  0.2701E+03
     -0.369  0.6243E+02  0.2716E+03
     -0.345  0.1509E+02  0.2720E+03
     -0.320  0.2058E+02  0.2725E+03
     -0.296  0.9359E+02  0.2748E+03
     -0.271  0.2086E+03  0.2799E+03
     -0.247  0.2648E+03  0.2864E+03
     -0.222  0.2291E+03  0.2920E+03
     -0.198  0.1483E+03  0.2956E+03
     -0.174  0.1173E+03  0.2985E+03
     -0.149  0.1663E+03  0.3025E+03
     -0.125  0.2146E+03  0.3078E+03
     -0.100  0.2238E+03  0.3133E+03
     -0.076  0.2206E+03  0.3187E+03
     -0.051  0.2254E+03  0.3242E+03
     -0.027  0.2023E+03  0.3291E+03
     -0.002  0.1264E+03  0.3322E+03
      0.022  0.1054E+03  0.3348E+03
      0.047  0.1193E+03  0.3377E+03
      0.071  0.1279E+03  0.3408E+03
      0.095  0.1266E+03  0.3439E+03
      0.120  0.1449E+03  0.3475E+03
      0.144  0.2353E+03  0.3532E+03
      0.169  0.3007E+03  0.3606E+03
      0.193  0.3234E+03  0.3685E+03
      0.218  0.2803E+03  0.3753E+03
      0.242  0.1520E+03  0.3791E+03
      0.267  0.7353E+02  0.3809E+03
      0.291  0.1359E+03  0.3842E+03
      0.315  0.2386E+03  0.3900E+03
      0.340  0.2595E+03  0.3964E+03
      0.364  0.1952E+03  0.4011E+03
      0.389  0.1020E+03  0.4036E+03
      0.413  0.7318E+02  0.4054E+03
      0.438  0.1182E+03  0.4083E+03
      0.462  0.1519E+03  0.4120E+03
      0.487  0.1919E+03  0.4167E+03
      0.511  0.2087E+03  0.4218E+03
      0.536  0.1795E+03  0.4262E+03
      0.560  0.1743E+03  0.4305E+03
      0.584  0.2087E+03  0.4356E+03
      0.609  0.2393E+03  0.4414E+03
      0.633  0.2508E+03  0.4475E+03
      0.658  0.2389E+03  0.4534E+03
      0.682  0.2042E+03  0.4584E+03
      0.707  0.1610E+03  0.4623E+03
      0.731  0.1315E+03  0.4655E+03
      0.756  0.1298E+03  0.4687E+03
      0.780  0.1657E+03  0.4728E+03
      0.804  0.2162E+03  0.4780E+03
      0.829  0.2280E+03  0.4836E+03
      0.853  0.2267E+03  0.4892E+03
      0.878  0.2391E+03  0.4950E+03
      0.902  0.2584E+03  0.5013E+03
      0.927  0.2836E+03  0.5083E+03
      0.951  0.2988E+03  0.5156E+03
      0.976  0.2827E+03  0.5225E+03
      1.000  0.2439E+03  0.5284E+03
      1.025  0.2104E+03  0.5336E+03
      1.049  0.2067E+03  0.5386E+03
      1.073  0.2352E+03  0.5444E+03
      1.098  0.2521E+03  0.5506E+03
      1.122  0.2501E+03  0.5567E+03
      1.147  0.2405E+03  0.5626E+03
      1.171  0.2232E+03  0.5680E+03
      1.196  0.1956E+03  0.5728E+03
      1.220  0.1928E+03  0.5775E+03
      1.245  0.2338E+03  0.5832E+03
      1.269  0.2745E+03  0.5899E+03
      1.294  0.2694E+03  0.5965E+03
      1.318  0.2320E+03  0.6022E+03
      1.342  0.2132E+03  0.6074E+03
      1.367  0.2105E+03  0.6126E+03
      1.391  0.2027E+03  0.6175E+03
      1.416  0.1765E+03  0.6218E+03
      1.440  0.1603E+03  0.6258E+03
      1.465  0.1795E+03  0.6301E+03
      1.489  0.2040E+03  0.6351E+03
      1.514  0.2098E+03  0.6403E+03
      1.538  0.1991E+03  0.6451E+03
      1.562  0.1585E+03  0.6490E+03
      1.587  0.9100E+02  0.6512E+03
      1.611  0.5295E+02  0.6525E+03
      1.636  0.8587E+02  0.6546E+03
      1.660  0.1446E+03  0.6582E+03
      1.685  0.1465E+03  0.6617E+03
      1.709  0.1069E+03  0.6644E+03
      1.734  0.1117E+03  0.6671E+03
      1.758  0.1486E+03  0.6707E+03
      1.783  0.1771E+03  0.6750E+03
      1.807  0.2017E+03  0.6800E+03
      1.831  0.2085E+03  0.6851E+03
      1.856  0.1763E+03  0.6894E+03
      1.880  0.1238E+03  0.6924E+03
      1.905  0.7677E+02  0.6943E+03
      1.929  0.9514E+02  0.6966E+03
      1.954  0.1684E+03  0.7007E+03
      1.978  0.2003E+03  0.7056E+03
      2.003  0.1791E+03  0.7100E+03
      2.027  0.1708E+03  0.7142E+03
      2.052  0.1838E+03  0.7187E+03
      2.076  0.1852E+03  0.7232E+03
      2.100  0.1906E+03  0.7279E+03
      2.125  0.2073E+03  0.7329E+03
      2.149  0.2186E+03  0.7383E+03
      2.174  0.2093E+03  0.7434E+03
      2.198  0.1783E+03  0.7478E+03
      2.223  0.1482E+03  0.7514E+03
      2.247  0.1313E+03  0.7546E+03
      2.272  0.1461E+03  0.7582E+03
      2.296  0.1643E+03  0.7622E+03
      2.320  0.1679E+03  0.7663E+03
      2.345  0.1570E+03  0.7701E+03
      2.369  0.1432E+03  0.7736E+03
      2.394  0.1425E+03  0.7771E+03
      2.418  0.1310E+03  0.7803E+03
      2.443  0.9354E+02  0.7826E+03
      2.467  0.6303E+02  0.7842E+03
      2.492  0.7525E+02  0.7860E+03
      2.516  0.1094E+03  0.7887E+03
      2.541  0.1136E+03  0.7914E+03
      2.565  0.9234E+02  0.7937E+03
      2.589  0.6412E+02  0.7953E+03
      2.614  0.2554E+02  0.7959E+03
      2.638  0.4217E+01  0.7960E+03
      2.663  0.4718E+01  0.7961E+03
      2.687  0.3501E+02  0.7970E+03
      2.712  0.9140E+02  0.7992E+03
      2.736  0.8371E+02  0.8013E+03
      2.761  0.2734E+02  0.8019E+03
      2.785  0.3117E+01  0.8020E+03
      2.809  0.1178E+00  0.8020E+03
      2.834  0.2716E-02  0.8020E+03
      2.858  0.1022E+00  0.8020E+03
      2.883  0.2416E+01  0.8021E+03
      2.907  0.1925E+02  0.8025E+03
      2.932  0.6129E+02  0.8040E+03
      2.956  0.1000E+03  0.8065E+03
      2.981  0.1121E+03  0.8092E+03
      3.005  0.1122E+03  0.8120E+03
      3.030  0.1040E+03  0.8145E+03
      3.054  0.8872E+02  0.8167E+03
      3.078  0.6065E+02  0.8182E+03
      3.103  0.6553E+02  0.8198E+03
      3.127  0.1002E+03  0.8222E+03
      3.152  0.1267E+03  0.8253E+03
      3.176  0.1509E+03  0.8290E+03
      3.201  0.1630E+03  0.8330E+03
      3.225  0.1483E+03  0.8366E+03
      3.250  0.1241E+03  0.8396E+03
      3.274  0.9488E+02  0.8420E+03
      3.299  0.8277E+02  0.8440E+03
      3.323  0.8645E+02  0.8461E+03
      3.347  0.5780E+02  0.8475E+03
      3.372  0.1959E+02  0.8480E+03
      3.396  0.1726E+02  0.8484E+03
      3.421  0.4493E+02  0.8495E+03
      3.445  0.6100E+02  0.8510E+03
      3.470  0.6144E+02  0.8525E+03
      3.494  0.7893E+02  0.8544E+03
      3.519  0.1070E+03  0.8571E+03
      3.543  0.1071E+03  0.8597E+03
      3.567  0.7976E+02  0.8616E+03
      3.592  0.6100E+02  0.8631E+03
      3.616  0.5788E+02  0.8645E+03
      3.641  0.4298E+02  0.8656E+03
      3.665  0.1523E+02  0.8660E+03
      3.690  0.1878E+01  0.8660E+03
      3.714  0.7086E-01  0.8660E+03
      3.739  0.7766E-03  0.8660E+03
      3.763  0.2406E-05  0.8660E+03
      3.788  0.2071E-08  0.8660E+03
      3.812  0.4881E-12  0.8660E+03
      3.836  0.0000E+00  0.8660E+03
      3.861  0.0000E+00  0.8660E+03
      3.885  0.0000E+00  0.8660E+03
      3.910  0.0000E+00  0.8660E+03
      3.934  0.0000E+00  0.8660E+03
      3.959  0.0000E+00  0.8660E+03
