Li                                      
           1
    20.227200    0.000000    0.000000
     0.000000   20.227200    0.000000
     0.000000    0.000000   20.227200
   Li
   432
Direct configuration=     1
   0.00313427  0.98534102  0.99827805
   0.90981451  0.07917399  0.07691424
   0.83198074  0.16927834  0.17173039
   0.73847839  0.24738797  0.24619271
   0.65668571  0.33010214  0.32437889
   0.57709920  0.42230781  0.41405715
   0.49924069  0.50531227  0.48547709
   0.41317345  0.58670414  0.58517387
   0.33654035  0.67219251  0.66980218
   0.23505182  0.74958946  0.75787927
   0.14853153  0.82886571  0.85004469
   0.07628357  0.92401929  0.91147071
   0.07454917  0.91297172  0.08036469
   0.98277470  0.01411216  0.15843358
   0.90378475  0.09575660  0.24742243
   0.82550335  0.16946191  0.35180658
   0.73976240  0.25267088  0.40588978
   0.65169091  0.33770844  0.49407643
   0.59105044  0.42688248  0.58161801
   0.48998137  0.49937848  0.66224809
   0.41703208  0.58907713  0.75695476
   0.31650546  0.65729674  0.81537579
   0.24823815  0.74641312  0.91516915
   0.16331004  0.83967057  0.00182798
   0.15851460  0.85124682  0.16809480
   0.07015095  0.94038554  0.24755893
   0.98516824  0.00503745  0.32694292
   0.92193879  0.07559846  0.41828181
   0.83915016  0.17170598  0.49608543
   0.74207626  0.23362536  0.58043863
   0.66299875  0.33437847  0.65906460
   0.59028502  0.41691364  0.73937738
   0.49808558  0.49371549  0.82713626
   0.40581528  0.57005355  0.92609459
   0.33857465  0.66428579  0.00829489
   0.22950186  0.74941149  0.07582797
   0.24554941  0.74760169  0.24445333
   0.15687338  0.84786927  0.32688673
   0.07759546  0.94196036  0.41431947
   0.00726368  0.99526032  0.50435078
   0.91805182  0.08472822  0.56928840
   0.83414416  0.18510977  0.66917654
   0.75241037  0.25344621  0.74076751
   0.66988415  0.33915499  0.82510144
   0.58002880  0.42857489  0.90601500
   0.51113217  0.51014182  0.00562385
   0.43355284  0.58944198  0.09662355
   0.33094753  0.69069347  0.15298182
   0.33166035  0.68135561  0.33222552
   0.24786127  0.75563070  0.42340972
   0.16213052  0.84162396  0.49992595
   0.07429848  0.90754626  0.59156838
   0.99101291  0.00270772  0.66050144
   0.92054450  0.09408728  0.73080552
   0.83292430  0.17054847  0.81589378
   0.74588331  0.23809803  0.91128459
   0.65893014  0.33312025  0.97977234
   0.58656207  0.41838580  0.08041364
   0.51318500  0.48457488  0.17490999
   0.41529474  0.59369188  0.24671928
   0.40996391  0.58811417  0.41506911
   0.31756079  0.67968185  0.50387885
   0.24616722  0.75632677  0.59219614
   0.15498106  0.81527691  0.68065036
   0.08867000  0.92660002  0.74554330
   0.99458936  0.00708786  0.83219361
   0.90390068  0.06951531  0.90155089
   0.83764912  0.17343950  0.99115909
   0.75814012  0.25921565  0.07956296
   0.66507307  0.33372604  0.15922907
   0.58639949  0.40484276  0.23862384
   0.49304922  0.50763535  0.33629485
   0.07306648  0.08458696  0.93214300
   0.98943250  0.14468410  0.00788754
   0.91685738  0.24328932  0.08984775
   0.83738489  0.33263291  0.17192454
   0.75091191  0.41045032  0.25627337
   0.67165154  0.49155507  0.30472847
   0.58744341  0.59115980  0.39736747
   0.48880349  0.66475133  0.48723232
   0.42560843  0.74827431  0.58366308
   0.33411987  0.80543018  0.68687788
   0.22753596  0.90500501  0.76017252
   0.16227087  0.00965577  0.84436834
   0.16060015  0.00211083  0.00551312
   0.08550470  0.07909306  0.09661725
   0.99217886  0.17100282  0.15661711
   0.91788420  0.25429800  0.26748510
   0.83940303  0.32382391  0.33506425
   0.75754687  0.42868380  0.41377822
   0.65791694  0.52197920  0.48817344
   0.58229574  0.58941826  0.57360233
   0.49745934  0.65978917  0.68065996
   0.42778903  0.74699909  0.75161354
   0.32852466  0.83262324  0.82556127
   0.22604045  0.91942106  0.92006054
   0.24881399  0.92377308  0.09058658
   0.16132185  0.00233113  0.16875932
   0.08826982  0.10506778  0.25213178
   0.00929874  0.15773216  0.32687387
   0.92661430  0.24660848  0.41009459
   0.83207539  0.29970214  0.50847888
   0.73648700  0.41528837  0.57419127
   0.66207500  0.49695190  0.67529947
   0.57588035  0.59052480  0.75162670
   0.49720284  0.66313747  0.84063805
   0.40542989  0.74835592  0.90912260
   0.32182448  0.83104124  0.00456682
   0.32244584  0.83144892  0.15711034
   0.25332594  0.91090843  0.25371924
   0.17199552  0.00956482  0.32430006
   0.09393014  0.08576602  0.40665634
   0.01024466  0.16520691  0.50685390
   0.91836882  0.25238826  0.59599156
   0.84205183  0.35182055  0.65355513
   0.76889022  0.40606494  0.74907099
   0.65298708  0.49522912  0.83614839
   0.58033078  0.60051790  0.92405399
   0.50008146  0.65434951  0.00507314
   0.39807367  0.75798422  0.07686423
   0.40999482  0.76402469  0.26299684
   0.32673555  0.83199410  0.33946541
   0.23885147  0.92726099  0.41405621
   0.16777671  0.99034872  0.50089135
   0.10155483  0.08168701  0.58119302
   0.00916787  0.17118377  0.67291683
   0.93276818  0.27047864  0.73403131
   0.83736162  0.33242724  0.83497292
   0.74359648  0.42083375  0.91609703
   0.65565407  0.49808852  0.00517239
   0.58365789  0.60343666  0.08742941
   0.49343264  0.68415768  0.15891724
   0.49768126  0.68589577  0.32813318
   0.41508591  0.74474970  0.42653462
   0.33067769  0.85459288  0.50155070
   0.24769964  0.90706266  0.59792755
   0.16700831  0.00136329  0.67232623
   0.08334402  0.08672360  0.74819801
   0.98506444  0.16106158  0.83001690
   0.92562581  0.24820811  0.91162848
   0.84319161  0.32133928  0.99846886
   0.74541301  0.40923780  0.07694901
   0.66947923  0.49052353  0.18121785
   0.57724817  0.57952466  0.25285046
   0.15229683  0.17365902  0.84434837
   0.08726955  0.24930945  0.93020106
   0.00543568  0.31847571  0.01325697
   0.91809098  0.41863840  0.08323983
   0.83757619  0.48829734  0.17386753
   0.76443168  0.58294355  0.24016853
   0.68248276  0.68037903  0.32131894
   0.58465931  0.75421582  0.42065106
   0.49808753  0.84334139  0.50420669
   0.41406253  0.91215958  0.60422867
   0.33264434  0.99726350  0.68183479
   0.25383925  0.09097862  0.75349622
   0.26125855  0.09550243  0.91453973
   0.18066905  0.16947562  0.01102838
   0.09106992  0.23474969  0.10050749
   0.00498165  0.33686757  0.17702361
   0.92368855  0.41986847  0.27550115
   0.83899704  0.49029923  0.34327213
   0.75269723  0.58236704  0.41143392
   0.66813117  0.67183109  0.48596454
   0.57990525  0.74113568  0.57468330
   0.50417328  0.83730807  0.66939752
   0.40985611  0.90767535  0.76066009
   0.32386981  0.00718204  0.82261402
   0.33256697  0.00823353  0.99445514
   0.26643761  0.08465462  0.08061338
   0.19969089  0.16391212  0.17655504
   0.09560321  0.23105851  0.25896615
   0.00752187  0.33209375  0.34892473
   0.90885243  0.39697941  0.43980407
   0.82362950  0.50846999  0.51582807
   0.73190146  0.57658808  0.58449434
   0.65802731  0.67541198  0.66827040
   0.57853805  0.75952850  0.77341839
   0.49489726  0.83256119  0.83319087
   0.41171025  0.92780699  0.91685552
   0.42062195  0.91290972  0.07115479
   0.34810989  0.99564921  0.16258118
   0.27267095  0.08511854  0.25967531
   0.18158784  0.16529680  0.33984371
   0.09798237  0.24577662  0.41182236
   0.99908248  0.31587811  0.51400316
   0.89766520  0.42478176  0.56982747
   0.82824144  0.51156810  0.65549398
   0.73824319  0.59176154  0.75549156
   0.65912116  0.67837778  0.83722028
   0.57470199  0.74590869  0.92000745
   0.50213442  0.83541432  0.00755228
   0.50690254  0.84968848  0.15386534
   0.41578833  0.91293200  0.25955816
   0.33969277  0.00249343  0.35003832
   0.25483818  0.08275073  0.43418329
   0.17045863  0.15528135  0.49719511
   0.09412132  0.25091742  0.58497398
   0.00459745  0.34537829  0.65859053
   0.93415426  0.43842524  0.73934492
   0.82531053  0.51163623  0.82764132
   0.74510246  0.57889115  0.91822254
   0.66107939  0.66429770  0.99428960
   0.57960595  0.74910596  0.07634795
   0.59458138  0.75175243  0.23863462
   0.52749713  0.83034113  0.33298129
   0.42746983  0.91208342  0.40590581
   0.33961006  0.98425392  0.50433089
   0.27424819  0.07983637  0.58582228
   0.17961336  0.15991599  0.66508883
   0.07228579  0.24992957  0.75443570
   0.99965054  0.34987624  0.83552726
   0.91732284  0.42734919  0.91131908
   0.83323591  0.49356961  0.99605727
   0.76625458  0.56975857  0.08897921
   0.67732560  0.66851043  0.15660219
   0.24879286  0.24562067  0.75861444
   0.16473244  0.32914056  0.83801744
   0.08662729  0.41559395  0.93051923
   0.00084146  0.49033003  0.01027195
   0.92316125  0.56715161  0.08495510
   0.85011994  0.66231343  0.16288059
   0.77030428  0.74240191  0.23788727
   0.65958298  0.83845499  0.31200732
   0.59432049  0.91204879  0.42168925
   0.49188146  0.99415175  0.49558402
   0.41366555  0.08069501  0.59605399
   0.33312867  0.17760955  0.67393080
   0.33255608  0.17690115  0.83792921
   0.23777619  0.23835051  0.92414423
   0.16812753  0.33266874  0.00410811
   0.09247117  0.40429153  0.09259049
   0.00444417  0.49784430  0.15523646
   0.91649303  0.57045218  0.25030126
   0.84628855  0.66355399  0.33136592
   0.74337541  0.75738384  0.39067702
   0.67834705  0.83540503  0.50442232
   0.58731785  0.91398851  0.58870404
   0.51089781  0.99463563  0.68000174
   0.41373418  0.08427081  0.74820938
   0.41977803  0.07552549  0.90377575
   0.34298177  0.16290219  0.99449921
   0.27239419  0.25075272  0.08639692
   0.17563233  0.32429799  0.19214157
   0.07335732  0.40720080  0.26003619
   0.99623619  0.49521428  0.33761963
   0.91604573  0.57485812  0.41235932
   0.82187763  0.66598286  0.48562318
   0.74479405  0.73940688  0.56419424
   0.65356992  0.81878463  0.66275557
   0.59339977  0.91848288  0.75902285
   0.49853189  0.00312242  0.83833923
   0.51123373  0.99283912  0.99833419
   0.41953977  0.07112590  0.07396420
   0.35680094  0.16460549  0.17200038
   0.27468558  0.23758880  0.27114171
   0.17431033  0.34283978  0.33704135
   0.09418588  0.42263232  0.42520684
   0.98581689  0.49305768  0.50876691
   0.91870958  0.58401309  0.58126647
   0.82931112  0.66457828  0.64645449
   0.74704548  0.74045701  0.75084891
   0.67251265  0.82174604  0.83614707
   0.58368233  0.92647118  0.90900088
   0.58530410  0.92985555  0.06930293
   0.48936285  0.00597387  0.16402635
   0.41479478  0.07791371  0.25572236
   0.35731511  0.16308899  0.36579448
   0.25363289  0.25177810  0.42944808
   0.16486655  0.33621176  0.50680990
   0.09115523  0.42719980  0.57808882
   0.00424210  0.50524123  0.65301605
   0.92302507  0.58205615  0.74335114
   0.84429149  0.65915450  0.82510920
   0.73827060  0.74480705  0.92443505
   0.64838483  0.82410237  0.98660310
   0.66400510  0.83680912  0.14963766
   0.59961161  0.92200911  0.23903686
   0.50445201  0.99316640  0.33393370
   0.42767831  0.07539267  0.42648805
   0.35530378  0.16689123  0.50676852
   0.25268447  0.23229651  0.56972398
   0.17295734  0.32354642  0.67135857
   0.09181304  0.41765342  0.74531174
   0.02277902  0.48190168  0.82275590
   0.93728958  0.56834553  0.91191381
   0.83590779  0.66853742  0.98792150
   0.75504600  0.74641914  0.09049524
   0.32819414  0.32851540  0.67438594
   0.24097444  0.42966398  0.73839704
   0.17749810  0.50171995  0.85166135
   0.07090084  0.57414071  0.93739356
   0.98896453  0.66879752  0.00538781
   0.92049808  0.75267023  0.08095595
   0.83195158  0.83290372  0.15476688
   0.73573882  0.91519264  0.24034241
   0.66820435  0.01204539  0.31417227
   0.57965560  0.07032585  0.40434787
   0.51545774  0.15878152  0.51056692
   0.42850727  0.25864916  0.60424181
   0.44046828  0.25426521  0.74631381
   0.33741174  0.32311172  0.83115381
   0.27916940  0.41583088  0.90757843
   0.17452773  0.48893263  0.01173162
   0.09180287  0.57736942  0.08005395
   0.98951770  0.64551139  0.16128625
   0.92058817  0.73518793  0.23927510
   0.83187486  0.84569743  0.30942076
   0.74758376  0.92410185  0.40333473
   0.65378364  0.99280802  0.50279224
   0.58088662  0.06974777  0.57983464
   0.49852151  0.15440213  0.66533403
   0.49575546  0.17119977  0.83086049
   0.42803516  0.26677733  0.92710294
   0.33469012  0.33981400  0.00985912
   0.25157692  0.40573403  0.08688278
   0.17389047  0.48806025  0.16569932
   0.08337457  0.58439900  0.25372536
   0.99182310  0.65650130  0.34204242
   0.90618469  0.75566516  0.43277553
   0.81192630  0.84263748  0.49244287
   0.73155628  0.93447351  0.59063782
   0.66017968  0.00141064  0.68059114
   0.59373929  0.09240701  0.76034946
   0.59076391  0.09701779  0.91984945
   0.48112380  0.16200586  0.99823322
   0.41600330  0.25254966  0.07756228
   0.34243196  0.32592317  0.17288266
   0.26096841  0.42035602  0.25869369
   0.18265667  0.50368856  0.33039747
   0.08940739  0.57418661  0.42346579
   0.00079101  0.66415995  0.49193219
   0.91243820  0.75655430  0.57063396
   0.82089831  0.81905143  0.65227485
   0.74197960  0.89124505  0.75031484
   0.67202609  0.00499456  0.82798715
   0.67687877  0.01560082  0.99777702
   0.57515134  0.08043054  0.07884218
   0.48621413  0.16496497  0.16798423
   0.40923320  0.24801886  0.28010438
   0.33220568  0.32922183  0.33862884
   0.25991189  0.41310168  0.41049573
   0.18755241  0.51095792  0.50199572
   0.08705095  0.59748411  0.56620860
   0.01052940  0.66427175  0.65676980
   0.90117251  0.74488106  0.73444444
   0.82648248  0.80737285  0.85199364
   0.74548058  0.91376107  0.91337916
   0.75440034  0.89462057  0.06116913
   0.66408551  0.00531242  0.14809262
   0.57765856  0.08369873  0.25321150
   0.50549351  0.17421235  0.33589892
   0.42884813  0.25943136  0.43513608
   0.32500398  0.33101054  0.49943261
   0.25182360  0.41582345  0.58927367
   0.16001176  0.50882081  0.66058806
   0.09302848  0.57152688  0.74415071
   0.99965214  0.66923706  0.82305513
   0.92201434  0.74843730  0.91565264
   0.83191934  0.83263687  0.99767833
   0.41410794  0.41648528  0.57964504
   0.32988793  0.51305459  0.67266329
   0.22438468  0.58600042  0.74812124
   0.15430406  0.66816028  0.84731516
   0.06452309  0.74481135  0.93157667
   0.98563490  0.83244565  0.99286338
   0.90478961  0.92239551  0.08898013
   0.82024631  0.99772231  0.15925082
   0.74618669  0.09029151  0.26688202
   0.65778170  0.16212110  0.34887646
   0.57984939  0.25775793  0.41230282
   0.51740522  0.34584003  0.50000537
   0.50633775  0.35433798  0.66779342
   0.41281153  0.41252864  0.75114665
   0.32300963  0.51566111  0.81963159
   0.25181897  0.58505571  0.92293982
   0.16163085  0.67267960  0.00083527
   0.06731664  0.74664472  0.08344196
   0.99284977  0.83554758  0.16387366
   0.91702344  0.91922918  0.24393072
   0.82423627  0.99780066  0.32809509
   0.75032034  0.07953738  0.43601854
   0.66014832  0.15644779  0.50623251
   0.56953457  0.24918965  0.58879358
   0.58300635  0.26189161  0.74618635
   0.50428195  0.33567359  0.81724345
   0.43291019  0.41833945  0.92955402
   0.33321763  0.51022127  0.00773891
   0.23941943  0.58412976  0.09451399
   0.15065105  0.67945608  0.17431286
   0.06699456  0.77075748  0.24848530
   0.00061092  0.83479593  0.33931026
   0.90932319  0.92124159  0.42454777
   0.84440331  0.99345948  0.51185921
   0.74370603  0.08730946  0.59541942
   0.65963380  0.15646594  0.67643566
   0.67392914  0.17096636  0.83114820
   0.57208567  0.24365947  0.90475955
   0.50997908  0.32514699  0.99960046
   0.43173105  0.41484943  0.07991440
   0.33775079  0.48783031  0.15848821
   0.26074070  0.58839290  0.23202315
   0.16468988  0.66710087  0.32407138
   0.09247682  0.72867181  0.41830056
   0.00927130  0.83458769  0.48923799
   0.90574083  0.90432603  0.56968454
   0.84178793  0.99591384  0.68158998
   0.74909341  0.08085256  0.74408134
   0.76732756  0.09644539  0.90314582
   0.67189934  0.16438396  0.99621932
   0.57884936  0.24893034  0.07830930
   0.49485669  0.32350904  0.17372137
   0.41477961  0.42186820  0.25814998
   0.33397552  0.50894930  0.33004648
   0.25107803  0.58858162  0.39335040
   0.18058225  0.65622552  0.49816399
   0.09700424  0.74032126  0.56238944
   0.99156480  0.81057380  0.67392049
   0.91616114  0.91616115  0.74435561
   0.82877051  0.98478082  0.80737527
   0.83610430  0.00926897  0.99294046
   0.75817850  0.09359266  0.07518013
   0.65964883  0.16313765  0.16482631
   0.58138095  0.24601673  0.24086858
   0.49320897  0.35209996  0.32825732
   0.41322463  0.41517931  0.42725672
   0.32098113  0.51164265  0.49596810
   0.24245157  0.59738041  0.59883257
   0.16577972  0.65921999  0.67463767
   0.07850164  0.74217228  0.74865483
   0.98868045  0.83102916  0.82736697
   0.91203062  0.90845348  0.91723345
