       N       E                     dE             d eps       ncg     rms          rms(c)
DAV:   1    -0.285949440591E+03   -0.28595E+03   -0.12310E+05  4040   0.658E+02
DAV:   2    -0.895752861422E+03   -0.60980E+03   -0.55822E+03  4636   0.680E+01
DAV:   3    -0.938765832668E+03   -0.43013E+02   -0.39185E+02  5128   0.143E+01
DAV:   4    -0.940242066525E+03   -0.14762E+01   -0.14511E+01  4680   0.287E+00
DAV:   5    -0.940275936197E+03   -0.33870E-01   -0.33792E-01  4856   0.463E-01    0.950E+00
DAV:   6    -0.932758743389E+03    0.75172E+01   -0.12231E+01  4528   0.425E+00    0.657E+00
DAV:   7    -0.931439281425E+03    0.13195E+01   -0.88464E+00  4616   0.425E+00    0.567E+00
DAV:   8    -0.927200285434E+03    0.42390E+01   -0.45059E+00  4584   0.278E+00    0.298E+00
DAV:   9    -0.926671985051E+03    0.52830E+00   -0.24457E+00  4592   0.157E+00    0.200E+00
DAV:  10    -0.926372273800E+03    0.29971E+00   -0.12228E+00  4560   0.111E+00    0.127E+00
DAV:  11    -0.926263393561E+03    0.10888E+00   -0.41342E-01  4424   0.553E-01    0.689E-01
DAV:  12    -0.926263524420E+03   -0.13086E-03   -0.86531E-02  4536   0.294E-01    0.496E-01
DAV:  13    -0.926247893844E+03    0.15631E-01   -0.41046E-02  4584   0.240E-01    0.323E-01
DAV:  14    -0.926242026024E+03    0.58678E-02   -0.12334E-02  4536   0.136E-01    0.179E-01
DAV:  15    -0.926241904623E+03    0.12140E-03   -0.64220E-03  4592   0.999E-02    0.142E-01
DAV:  16    -0.926239536033E+03    0.23686E-02   -0.31916E-03  4544   0.666E-02    0.579E-02
DAV:  17    -0.926239407773E+03    0.12826E-03   -0.10998E-03  4320   0.286E-02    0.290E-02
DAV:  18    -0.926239385364E+03    0.22408E-04   -0.21618E-04  4632   0.167E-02    0.226E-02
DAV:  19    -0.926239336074E+03    0.49291E-04   -0.82523E-05  4536   0.117E-02    0.139E-02
DAV:  20    -0.926239306026E+03    0.30047E-04   -0.38355E-05  4472   0.658E-03    0.529E-03
DAV:  21    -0.926239302063E+03    0.39631E-05   -0.14775E-05  2320   0.338E-03
   1 F= -.92623930E+03 E0= -.92617533E+03  d E =-.127954E+00
