 432 432   0   0
  0.2035379E+02  0.2064000E-08  0.2064000E-08  0.2064000E-08  0.5000000E-15
  1.000000000000000E-004
  CAR 
 Li                                      
      3.68220697     -3.45336118  301      0.40710321      1.00000000
     -3.453  0.0000E+00  0.0000E+00
     -3.430  0.0000E+00  0.0000E+00
     -3.406  0.0000E+00  0.0000E+00
     -3.382  0.0000E+00  0.0000E+00
     -3.358  0.0000E+00  0.0000E+00
     -3.334  0.0000E+00  0.0000E+00
     -3.311  0.0000E+00  0.0000E+00
     -3.287  0.4017E-11  0.9553E-13
     -3.263  0.1060E-07  0.2521E-09
     -3.239  0.8170E-05  0.1946E-06
     -3.216  0.1859E-02  0.4442E-04
     -3.192  0.1266E+00  0.3057E-02
     -3.168  0.2632E+01  0.6566E-01
     -3.144  0.1708E+02  0.4718E+00
     -3.120  0.3533E+02  0.1312E+01
     -3.097  0.2355E+02  0.1872E+01
     -3.073  0.5138E+01  0.1994E+01
     -3.049  0.3141E+01  0.2069E+01
     -3.025  0.2466E+02  0.2656E+01
     -3.001  0.7913E+02  0.4538E+01
     -2.978  0.9538E+02  0.6806E+01
     -2.954  0.4288E+02  0.7826E+01
     -2.930  0.7386E+01  0.8002E+01
     -2.906  0.8166E+01  0.8196E+01
     -2.883  0.4567E+02  0.9283E+01
     -2.859  0.9748E+02  0.1160E+02
     -2.835  0.7668E+02  0.1343E+02
     -2.811  0.2203E+02  0.1395E+02
     -2.787  0.5431E+01  0.1408E+02
     -2.764  0.2884E+02  0.1476E+02
     -2.740  0.9661E+02  0.1706E+02
     -2.716  0.1274E+03  0.2009E+02
     -2.692  0.6619E+02  0.2167E+02
     -2.668  0.1416E+02  0.2200E+02
     -2.645  0.1674E+02  0.2240E+02
     -2.621  0.8338E+02  0.2439E+02
     -2.597  0.1757E+03  0.2856E+02
     -2.573  0.1580E+03  0.3232E+02
     -2.550  0.6071E+02  0.3377E+02
     -2.526  0.1053E+02  0.3402E+02
     -2.502  0.1626E+02  0.3440E+02
     -2.478  0.6880E+02  0.3604E+02
     -2.454  0.1033E+03  0.3850E+02
     -2.431  0.5338E+02  0.3977E+02
     -2.407  0.1044E+02  0.4001E+02
     -2.383  0.1538E+02  0.4038E+02
     -2.359  0.7623E+02  0.4219E+02
     -2.335  0.1647E+03  0.4611E+02
     -2.312  0.1616E+03  0.4995E+02
     -2.288  0.7231E+02  0.5167E+02
     -2.264  0.2208E+02  0.5220E+02
     -2.240  0.6035E+02  0.5363E+02
     -2.217  0.1720E+03  0.5773E+02
     -2.193  0.2468E+03  0.6360E+02
     -2.169  0.1880E+03  0.6807E+02
     -2.145  0.6990E+02  0.6973E+02
     -2.121  0.1421E+02  0.7007E+02
     -2.098  0.2732E+02  0.7072E+02
     -2.074  0.7972E+02  0.7262E+02
     -2.050  0.9296E+02  0.7483E+02
     -2.026  0.4215E+02  0.7583E+02
     -2.002  0.1248E+02  0.7613E+02
     -1.979  0.4477E+02  0.7719E+02
     -1.955  0.1426E+03  0.8058E+02
     -1.931  0.2028E+03  0.8540E+02
     -1.907  0.1393E+03  0.8872E+02
     -1.884  0.4789E+02  0.8986E+02
     -1.860  0.2360E+02  0.9042E+02
     -1.836  0.8871E+02  0.9253E+02
     -1.812  0.2088E+03  0.9749E+02
     -1.788  0.2446E+03  0.1033E+03
     -1.765  0.1488E+03  0.1069E+03
     -1.741  0.4407E+02  0.1079E+03
     -1.717  0.1983E+02  0.1084E+03
     -1.693  0.7834E+02  0.1102E+03
     -1.669  0.1688E+03  0.1142E+03
     -1.646  0.1596E+03  0.1180E+03
     -1.622  0.6985E+02  0.1197E+03
     -1.598  0.3159E+02  0.1205E+03
     -1.574  0.9472E+02  0.1227E+03
     -1.551  0.2127E+03  0.1278E+03
     -1.527  0.2476E+03  0.1337E+03
     -1.503  0.1435E+03  0.1371E+03
     -1.479  0.4036E+02  0.1380E+03
     -1.455  0.4551E+02  0.1391E+03
     -1.432  0.1556E+03  0.1428E+03
     -1.408  0.2568E+03  0.1489E+03
     -1.384  0.2057E+03  0.1538E+03
     -1.360  0.7871E+02  0.1557E+03
     -1.336  0.1965E+02  0.1562E+03
     -1.313  0.4833E+02  0.1573E+03
     -1.289  0.1372E+03  0.1606E+03
     -1.265  0.1761E+03  0.1648E+03
     -1.241  0.1048E+03  0.1672E+03
     -1.218  0.2927E+02  0.1679E+03
     -1.194  0.1786E+02  0.1684E+03
     -1.170  0.7337E+02  0.1701E+03
     -1.146  0.1499E+03  0.1737E+03
     -1.122  0.1571E+03  0.1774E+03
     -1.099  0.9405E+02  0.1797E+03
     -1.075  0.7847E+02  0.1815E+03
     -1.051  0.1839E+03  0.1859E+03
     -1.027  0.2871E+03  0.1927E+03
     -1.003  0.3127E+03  0.2002E+03
     -0.980  0.2543E+03  0.2062E+03
     -0.956  0.1337E+03  0.2094E+03
     -0.932  0.8631E+02  0.2114E+03
     -0.908  0.1650E+03  0.2154E+03
     -0.885  0.2257E+03  0.2207E+03
     -0.861  0.1831E+03  0.2251E+03
     -0.837  0.9522E+02  0.2274E+03
     -0.813  0.3329E+02  0.2281E+03
     -0.789  0.5638E+02  0.2295E+03
     -0.766  0.1515E+03  0.2331E+03
     -0.742  0.2016E+03  0.2379E+03
     -0.718  0.1303E+03  0.2410E+03
     -0.694  0.4969E+02  0.2422E+03
     -0.670  0.7971E+02  0.2441E+03
     -0.647  0.2096E+03  0.2491E+03
     -0.623  0.3047E+03  0.2563E+03
     -0.599  0.2636E+03  0.2626E+03
     -0.575  0.1406E+03  0.2659E+03
     -0.552  0.9696E+02  0.2682E+03
     -0.528  0.9947E+02  0.2706E+03
     -0.504  0.4979E+02  0.2718E+03
     -0.480  0.1209E+02  0.2721E+03
     -0.456  0.3081E+02  0.2728E+03
     -0.433  0.1274E+03  0.2758E+03
     -0.409  0.2471E+03  0.2817E+03
     -0.385  0.2715E+03  0.2882E+03
     -0.361  0.2151E+03  0.2933E+03
     -0.337  0.1469E+03  0.2968E+03
     -0.314  0.1409E+03  0.3001E+03
     -0.290  0.1738E+03  0.3042E+03
     -0.266  0.2134E+03  0.3093E+03
     -0.242  0.2379E+03  0.3150E+03
     -0.219  0.2464E+03  0.3208E+03
     -0.195  0.2402E+03  0.3266E+03
     -0.171  0.1771E+03  0.3308E+03
     -0.147  0.1137E+03  0.3335E+03
     -0.123  0.1066E+03  0.3360E+03
     -0.100  0.1084E+03  0.3386E+03
     -0.076  0.1223E+03  0.3415E+03
     -0.052  0.1206E+03  0.3444E+03
     -0.028  0.1603E+03  0.3482E+03
     -0.005  0.2594E+03  0.3543E+03
      0.019  0.3301E+03  0.3622E+03
      0.043  0.3386E+03  0.3703E+03
      0.067  0.2586E+03  0.3764E+03
      0.091  0.1290E+03  0.3795E+03
      0.114  0.7962E+02  0.3814E+03
      0.138  0.1597E+03  0.3852E+03
      0.162  0.2506E+03  0.3911E+03
      0.186  0.2600E+03  0.3973E+03
      0.210  0.1879E+03  0.4018E+03
      0.233  0.8997E+02  0.4039E+03
      0.257  0.7356E+02  0.4057E+03
      0.281  0.1204E+03  0.4085E+03
      0.305  0.1545E+03  0.4122E+03
      0.328  0.2071E+03  0.4171E+03
      0.352  0.2192E+03  0.4223E+03
      0.376  0.1773E+03  0.4266E+03
      0.400  0.1696E+03  0.4306E+03
      0.424  0.2122E+03  0.4356E+03
      0.447  0.2548E+03  0.4417E+03
      0.471  0.2691E+03  0.4481E+03
      0.495  0.2504E+03  0.4541E+03
      0.519  0.2103E+03  0.4591E+03
      0.543  0.1512E+03  0.4627E+03
      0.566  0.1128E+03  0.4653E+03
      0.590  0.1441E+03  0.4688E+03
      0.614  0.2029E+03  0.4736E+03
      0.638  0.2276E+03  0.4790E+03
      0.661  0.2144E+03  0.4841E+03
      0.685  0.2205E+03  0.4893E+03
      0.709  0.2582E+03  0.4955E+03
      0.733  0.2897E+03  0.5024E+03
      0.757  0.3020E+03  0.5096E+03
      0.780  0.2952E+03  0.5166E+03
      0.804  0.2749E+03  0.5231E+03
      0.828  0.2413E+03  0.5289E+03
      0.852  0.2240E+03  0.5342E+03
      0.876  0.2432E+03  0.5400E+03
      0.899  0.2636E+03  0.5462E+03
      0.923  0.2634E+03  0.5525E+03
      0.947  0.2480E+03  0.5584E+03
      0.971  0.2377E+03  0.5641E+03
      0.994  0.2214E+03  0.5693E+03
      1.018  0.1917E+03  0.5739E+03
      1.042  0.2004E+03  0.5787E+03
      1.066  0.2412E+03  0.5844E+03
      1.090  0.2623E+03  0.5906E+03
      1.113  0.2625E+03  0.5969E+03
      1.137  0.2569E+03  0.6030E+03
      1.161  0.2523E+03  0.6090E+03
      1.185  0.2351E+03  0.6146E+03
      1.209  0.1949E+03  0.6192E+03
      1.232  0.1622E+03  0.6231E+03
      1.256  0.1734E+03  0.6272E+03
      1.280  0.2062E+03  0.6321E+03
      1.304  0.2251E+03  0.6375E+03
      1.327  0.2204E+03  0.6427E+03
      1.351  0.1943E+03  0.6473E+03
      1.375  0.1354E+03  0.6505E+03
      1.399  0.5915E+02  0.6519E+03
      1.423  0.4999E+02  0.6531E+03
      1.446  0.1166E+03  0.6559E+03
      1.470  0.1655E+03  0.6598E+03
      1.494  0.1345E+03  0.6630E+03
      1.518  0.1018E+03  0.6655E+03
      1.542  0.1333E+03  0.6686E+03
      1.565  0.1699E+03  0.6727E+03
      1.589  0.1918E+03  0.6772E+03
      1.613  0.2082E+03  0.6822E+03
      1.637  0.2058E+03  0.6871E+03
      1.660  0.1683E+03  0.6911E+03
      1.684  0.1059E+03  0.6936E+03
      1.708  0.8855E+02  0.6957E+03
      1.732  0.1350E+03  0.6989E+03
      1.756  0.1681E+03  0.7029E+03
      1.779  0.1776E+03  0.7071E+03
      1.803  0.1890E+03  0.7116E+03
      1.827  0.2011E+03  0.7164E+03
      1.851  0.1956E+03  0.7211E+03
      1.875  0.1739E+03  0.7252E+03
      1.898  0.1818E+03  0.7295E+03
      1.922  0.2131E+03  0.7346E+03
      1.946  0.2319E+03  0.7401E+03
      1.970  0.2193E+03  0.7453E+03
      1.993  0.1843E+03  0.7497E+03
      2.017  0.1453E+03  0.7532E+03
      2.041  0.1414E+03  0.7565E+03
      2.065  0.1658E+03  0.7605E+03
      2.089  0.1778E+03  0.7647E+03
      2.112  0.1689E+03  0.7687E+03
      2.136  0.1510E+03  0.7723E+03
      2.160  0.1450E+03  0.7758E+03
      2.184  0.1345E+03  0.7790E+03
      2.208  0.1101E+03  0.7816E+03
      2.231  0.7701E+02  0.7834E+03
      2.255  0.6108E+02  0.7849E+03
      2.279  0.9105E+02  0.7870E+03
      2.303  0.1114E+03  0.7897E+03
      2.326  0.9777E+02  0.7920E+03
      2.350  0.8824E+02  0.7941E+03
      2.374  0.5932E+02  0.7955E+03
      2.398  0.1814E+02  0.7960E+03
      2.422  0.5165E+01  0.7961E+03
      2.445  0.2743E+02  0.7967E+03
      2.469  0.8339E+02  0.7987E+03
      2.493  0.9285E+02  0.8009E+03
      2.517  0.3893E+02  0.8018E+03
      2.541  0.6130E+01  0.8020E+03
      2.564  0.3484E+00  0.8020E+03
      2.588  0.1073E-01  0.8020E+03
      2.612  0.1968E+00  0.8020E+03
      2.636  0.3208E+01  0.8021E+03
      2.659  0.1903E+02  0.8025E+03
      2.683  0.5144E+02  0.8038E+03
      2.707  0.8946E+02  0.8059E+03
      2.731  0.1145E+03  0.8086E+03
      2.755  0.1140E+03  0.8113E+03
      2.778  0.1060E+03  0.8138E+03
      2.802  0.9199E+02  0.8160E+03
      2.826  0.6584E+02  0.8176E+03
      2.850  0.6024E+02  0.8190E+03
      2.874  0.1008E+03  0.8214E+03
      2.897  0.1304E+03  0.8245E+03
      2.921  0.1437E+03  0.8279E+03
      2.945  0.1563E+03  0.8317E+03
      2.969  0.1529E+03  0.8353E+03
      2.992  0.1434E+03  0.8387E+03
      3.016  0.1138E+03  0.8414E+03
      3.040  0.8489E+02  0.8434E+03
      3.064  0.8522E+02  0.8455E+03
      3.088  0.7056E+02  0.8471E+03
      3.111  0.3209E+02  0.8479E+03
      3.135  0.1643E+02  0.8483E+03
      3.159  0.3507E+02  0.8491E+03
      3.183  0.6329E+02  0.8506E+03
      3.207  0.7684E+02  0.8525E+03
      3.230  0.9327E+02  0.8547E+03
      3.254  0.1116E+03  0.8573E+03
      3.278  0.1031E+03  0.8598E+03
      3.302  0.7907E+02  0.8617E+03
      3.325  0.6249E+02  0.8632E+03
      3.349  0.6336E+02  0.8647E+03
      3.373  0.4262E+02  0.8657E+03
      3.397  0.1218E+02  0.8660E+03
      3.421  0.1317E+01  0.8660E+03
      3.444  0.5044E-01  0.8660E+03
      3.468  0.6424E-03  0.8660E+03
      3.492  0.2585E-05  0.8660E+03
      3.516  0.3172E-08  0.8660E+03
      3.539  0.1160E-11  0.8660E+03
      3.563  0.0000E+00  0.8660E+03
      3.587  0.0000E+00  0.8660E+03
      3.611  0.0000E+00  0.8660E+03
      3.635  0.0000E+00  0.8660E+03
      3.658  0.0000E+00  0.8660E+03
      3.682  0.0000E+00  0.8660E+03
