 running on   64 total cores
 distrk:  each k-point on   32 cores,    2 groups
 distr:  one band on   32 cores,    1 groups
 vasp.6.2.1 16May21 (build Nov 23 2021 15:40:41) complex                        
  
 POSCAR found type information on POSCAR Li
 POSCAR found :  1 types and     432 ions
 scaLAPACK will be used
 -----------------------------------------------------------------------------
|                                                                             |
|           W    W    AA    RRRRR   N    N  II  N    N   GGGG   !!!           |
|           W    W   A  A   R    R  NN   N  II  NN   N  G    G  !!!           |
|           W    W  A    A  R    R  N N  N  II  N N  N  G       !!!           |
|           W WW W  AAAAAA  RRRRR   N  N N  II  N  N N  G  GGG   !            |
|           WW  WW  A    A  R   R   N   NN  II  N   NN  G    G                |
|           W    W  A    A  R    R  N    N  II  N    N   GGGG   !!!           |
|                                                                             |
|     For optimal performance we recommend to set                             |
|       NCORE = 2 up to number-of-cores-per-socket                            |
|     NCORE specifies how many cores store one orbital (NPAR=cpu/NCORE).      |
|     This setting can greatly improve the performance of VASP for DFT.       |
|     The default, NCORE=1 might be grossly inefficient on modern             |
|     multi-core architectures or massively parallel machines. Do your        |
|     own testing! More info at https://www.vasp.at/wiki/index.php/NCORE      |
|     Unfortunately you need to use the default for GW and RPA                |
|     calculations (for HF NCORE is supported but not extensively tested      |
|     yet).                                                                   |
|                                                                             |
 -----------------------------------------------------------------------------

 -----------------------------------------------------------------------------
|                                                                             |
|               ----> ADVICE to this user running VASP <----                  |
|                                                                             |
|     You have a (more or less) 'large supercell' and for larger cells it     |
|     might be more efficient to use real-space projection operators.         |
|     Therefore, try LREAL= Auto in the INCAR file.                           |
|     Mind: If you want to do very accurate calculations, keep the            |
|     reciprocal projection scheme (i.e. LREAL=.FALSE.).                      |
|                                                                             |
 -----------------------------------------------------------------------------

 LDA part: xc-table for Pade appr. of Perdew
 POSCAR found type information on POSCAR Li
 POSCAR found :  1 types and     432 ions
 POSCAR, INCAR and KPOINTS ok, starting setup
 FFT: planning ...
 WAVECAR not read
 entering main loop
       N       E                     dE             d eps       ncg     rms          rms(c)
DAV:   1    -0.262604814797E+03   -0.26260E+03   -0.10472E+05  3464   0.655E+02
DAV:   2    -0.772920153620E+03   -0.51032E+03   -0.46661E+03  3996   0.669E+01
DAV:   3    -0.808294626296E+03   -0.35374E+02   -0.32250E+02  4312   0.140E+01
DAV:   4    -0.809449086367E+03   -0.11545E+01   -0.11386E+01  3904   0.278E+00
DAV:   5    -0.809474322275E+03   -0.25236E-01   -0.25212E-01  4072   0.442E-01    0.674E+00
DAV:   6    -0.807746022023E+03    0.17283E+01   -0.53145E+00  3880   0.359E+00    0.550E+00
DAV:   7    -0.804060997878E+03    0.36850E+01   -0.49205E+00  3928   0.324E+00    0.327E+00
DAV:   8    -0.802976193084E+03    0.10848E+01   -0.21490E+00  3896   0.158E+00    0.180E+00
DAV:   9    -0.802781465614E+03    0.19473E+00   -0.12303E+00  3752   0.897E-01    0.973E-01
DAV:  10    -0.802778668834E+03    0.27968E-02   -0.23025E-01  3880   0.488E-01    0.694E-01
DAV:  11    -0.802745275914E+03    0.33393E-01   -0.71635E-02  3824   0.341E-01    0.448E-01
DAV:  12    -0.802733817525E+03    0.11458E-01   -0.20020E-02  3792   0.152E-01    0.181E-01
DAV:  13    -0.802733832539E+03   -0.15014E-04   -0.80102E-03  3840   0.913E-02    0.105E-01
DAV:  14    -0.802733545817E+03    0.28672E-03   -0.22993E-03  3904   0.633E-02    0.727E-02
DAV:  15    -0.802732953376E+03    0.59244E-03   -0.74745E-04  3856   0.366E-02    0.349E-02
DAV:  16    -0.802732852731E+03    0.10064E-03   -0.37976E-04  3696   0.168E-02    0.130E-02
DAV:  17    -0.802732851139E+03    0.15919E-05   -0.55628E-05  4104   0.960E-03
   1 F= -.80273285E+03 E0= -.80268741E+03  d E =-.908880E-01
