Li                                      
           1
    20.640000    0.000000    0.000000
     0.000000   20.640000    0.000000
     0.000000    0.000000   20.640000
   Li
   432
Direct configuration=     1
   0.00902898  0.99812821  0.00141146
   0.92193875  0.08344496  0.09249620
   0.83430715  0.16379471  0.15516431
   0.74874671  0.24570408  0.25168129
   0.66366686  0.33708896  0.33265614
   0.58428777  0.41003522  0.41897147
   0.50877836  0.50915531  0.50344195
   0.42188352  0.57853550  0.58646750
   0.34619409  0.67794211  0.65637823
   0.23547196  0.72969945  0.74636439
   0.16902898  0.83823015  0.82783068
   0.08711756  0.92109828  0.92332587
   0.08988156  0.92442946  0.08929215
   0.00568327  0.98989219  0.17053354
   0.93005753  0.08686838  0.22805257
   0.84054864  0.17158765  0.32935468
   0.75134609  0.24619098  0.41636098
   0.67215582  0.33164858  0.49992595
   0.58293302  0.40769378  0.58497345
   0.50261735  0.50346450  0.66908056
   0.44224853  0.59660030  0.75343927
   0.33298009  0.68207585  0.83537285
   0.23774531  0.75333519  0.90914335
   0.16466748  0.83987032  0.01259389
   0.16596915  0.84299664  0.17014624
   0.08554148  0.93513925  0.25602018
   0.98477789  0.01004413  0.32067229
   0.90842300  0.08546664  0.40978993
   0.83409799  0.15836620  0.49305311
   0.74636066  0.23500193  0.57909357
   0.66332599  0.33697670  0.65197842
   0.59128481  0.41050002  0.75962015
   0.49774747  0.50678908  0.83297113
   0.41199507  0.59172868  0.92379374
   0.33200393  0.67297268  0.98875451
   0.25855927  0.75410844  0.07894248
   0.24170149  0.75157807  0.25857037
   0.16593483  0.83091949  0.34365364
   0.05906780  0.91421853  0.43045386
   0.98030304  0.99151914  0.50830119
   0.90176338  0.09507392  0.57239441
   0.81971228  0.17237575  0.67006087
   0.74831589  0.26824091  0.74437554
   0.67934637  0.34022480  0.84093850
   0.57847397  0.43750505  0.92140226
   0.48957528  0.50360548  0.00392244
   0.41315117  0.59032257  0.09197433
   0.31804160  0.65948895  0.16591381
   0.32835230  0.65501214  0.32788874
   0.25516370  0.74930475  0.42490675
   0.14841239  0.82895817  0.49854063
   0.08032874  0.91425471  0.58738590
   0.99999750  0.01378325  0.67003762
   0.91398983  0.08356950  0.74436943
   0.81955939  0.15936677  0.83344120
   0.75454128  0.25719772  0.91703689
   0.67184384  0.33980661  0.98413774
   0.56611056  0.43418224  0.07691882
   0.46846767  0.49807232  0.18435513
   0.40724918  0.57225345  0.24075336
   0.41160858  0.58759163  0.41380042
   0.34122503  0.66712450  0.50068339
   0.23467899  0.73903127  0.58442631
   0.15983895  0.82905415  0.67379957
   0.07932895  0.91147397  0.75352875
   0.00410265  0.99765178  0.83878372
   0.91220172  0.08633795  0.92895974
   0.83651311  0.16895435  0.00108411
   0.75014384  0.24551707  0.07658387
   0.66014321  0.32343564  0.16063162
   0.57677057  0.41066133  0.23701493
   0.50329274  0.49842101  0.33559421
   0.07490070  0.09366179  0.92176965
   0.00389980  0.17036407  0.99312506
   0.92640276  0.24509897  0.08926873
   0.83239647  0.32672810  0.17464365
   0.74466140  0.41989996  0.25737798
   0.66539726  0.49388163  0.32688485
   0.58350881  0.58422348  0.41356025
   0.48450038  0.67760010  0.49747002
   0.42160729  0.75499904  0.56922216
   0.32189724  0.81872736  0.67138399
   0.26762202  0.91936634  0.75522140
   0.15456954  0.00498798  0.83817288
   0.15251381  0.00629587  0.00624722
   0.08031735  0.08895465  0.08739227
   0.01385756  0.16631130  0.16808315
   0.94421223  0.25963314  0.23775125
   0.82698030  0.31043552  0.32690140
   0.73618330  0.41359306  0.42259566
   0.65334066  0.48646526  0.48438057
   0.59258017  0.59165746  0.58431564
   0.50506467  0.67472006  0.65930748
   0.41623085  0.75523644  0.75538630
   0.34220262  0.82857001  0.83169240
   0.25587528  0.91518311  0.91203464
   0.25473918  0.93673320  0.08853611
   0.19659051  0.02378712  0.16530854
   0.09134667  0.07757189  0.24597635
   0.00716614  0.16853217  0.34877711
   0.93027724  0.25796398  0.42190509
   0.81628351  0.32839808  0.49162363
   0.74153468  0.41395185  0.56523451
   0.67900394  0.49659595  0.65093849
   0.58600342  0.58787270  0.74759086
   0.49594305  0.67807149  0.84158130
   0.42209937  0.75279899  0.92468491
   0.33360145  0.82760000  0.99669877
   0.33463224  0.83544654  0.16789136
   0.24944933  0.92664206  0.24958470
   0.15754393  0.99995056  0.34685358
   0.08943473  0.06465312  0.41760730
   0.00688616  0.16444635  0.50368076
   0.90520963  0.24463019  0.57581459
   0.82752438  0.32802635  0.66028320
   0.74709185  0.41939246  0.75237755
   0.67155720  0.51415545  0.83124303
   0.58666775  0.60335291  0.90431456
   0.51561915  0.66973559  0.00716678
   0.40758834  0.75225942  0.08376816
   0.41683716  0.74809816  0.26667944
   0.34611928  0.84287348  0.34025651
   0.24503028  0.91502208  0.41706581
   0.15815305  0.97584567  0.50332065
   0.08853654  0.08183407  0.57714016
   0.99865556  0.16166349  0.65424894
   0.90368985  0.22955330  0.75284709
   0.83654745  0.33005281  0.82997709
   0.76057023  0.42407026  0.92955220
   0.67356680  0.50282238  0.99601754
   0.57356190  0.57000258  0.08891271
   0.49397815  0.66393720  0.16887342
   0.51314232  0.66133425  0.32210455
   0.40733802  0.75161410  0.40024388
   0.32648235  0.83271499  0.49167348
   0.25593647  0.90261951  0.58112501
   0.17738301  0.98550350  0.67986035
   0.07356600  0.08986148  0.75243337
   0.98571336  0.16936847  0.82871838
   0.89884864  0.23072537  0.91238003
   0.84984694  0.32973770  0.01430537
   0.73853673  0.40946237  0.08683825
   0.67682065  0.49795515  0.16028751
   0.58624211  0.57518923  0.23994699
   0.15926949  0.15991206  0.83074866
   0.07760637  0.24476210  0.91244393
   0.99930330  0.31564361  0.00365310
   0.92423043  0.40305592  0.08030424
   0.81834357  0.50679289  0.16503352
   0.75020705  0.58478832  0.24546726
   0.66509437  0.66353709  0.32114375
   0.59387342  0.75323487  0.40356972
   0.49863066  0.82853378  0.48156764
   0.40827559  0.91050698  0.57333419
   0.34266170  0.00366797  0.67120411
   0.24999587  0.08134448  0.75703325
   0.24593992  0.08920573  0.93469001
   0.17644287  0.16807320  0.99332798
   0.10581088  0.25227536  0.08486731
   0.02257260  0.33135715  0.17757921
   0.89281076  0.41351042  0.25675998
   0.81427393  0.50928478  0.32255599
   0.72657416  0.57468513  0.41438707
   0.65026281  0.67247816  0.49726340
   0.58492319  0.75471495  0.58488264
   0.50760158  0.81770415  0.65223681
   0.41416373  0.89433916  0.74098603
   0.33338184  0.00073467  0.83770511
   0.33247694  0.00030163  0.99866136
   0.25449156  0.07624520  0.06552010
   0.19740616  0.16296833  0.17070807
   0.10304886  0.24002529  0.25880885
   0.00835467  0.34416223  0.33215494
   0.90359536  0.40764393  0.41432201
   0.83766214  0.50329066  0.49326914
   0.74037334  0.58755846  0.56219612
   0.68501861  0.65432745  0.66339384
   0.58979688  0.73668918  0.74022545
   0.51312514  0.82298153  0.82525476
   0.43113618  0.91825742  0.90831209
   0.41900791  0.92134041  0.08204966
   0.33020158  0.02362290  0.16872044
   0.26783729  0.09313020  0.25569316
   0.17177145  0.17480582  0.34248761
   0.08400877  0.24174536  0.40332632
   0.01986034  0.33551088  0.50879953
   0.90313353  0.41285621  0.57517165
   0.83485358  0.50488227  0.65465004
   0.77257681  0.57155007  0.75817808
   0.67220597  0.67718120  0.82325108
   0.60092200  0.75890967  0.91631431
   0.50461794  0.84641163  0.99685680
   0.48336603  0.83882176  0.16614531
   0.41347673  0.92160438  0.23626821
   0.32351195  0.99788460  0.33476761
   0.24525954  0.06312255  0.41839114
   0.17689776  0.16577735  0.49717246
   0.08974626  0.25036803  0.58489644
   0.97766688  0.32423853  0.65648405
   0.91077880  0.40926458  0.75255327
   0.83838527  0.49389111  0.84593030
   0.75749580  0.59706527  0.91384335
   0.66150850  0.67272666  0.00331748
   0.57759436  0.75393857  0.08671380
   0.57578706  0.76091638  0.24609749
   0.49170552  0.83864161  0.33923224
   0.42451821  0.93896714  0.42390520
   0.33750274  0.99725377  0.49495579
   0.24851166  0.05873054  0.59696868
   0.15996220  0.15649317  0.66309836
   0.09710181  0.25311932  0.73860729
   0.00539909  0.31219446  0.83133427
   0.93380598  0.41968280  0.92117444
   0.84726365  0.51016455  0.01081451
   0.74521785  0.58272190  0.08365594
   0.67198100  0.66844424  0.16055319
   0.25755043  0.24956677  0.74135835
   0.16221614  0.34985005  0.81411964
   0.08603145  0.40357872  0.92237360
   0.99564362  0.49365187  0.00705775
   0.93030134  0.57345390  0.09642033
   0.82749509  0.65220905  0.17631936
   0.75516556  0.75102549  0.23833751
   0.66838983  0.82754761  0.33354962
   0.59216281  0.92684188  0.41222827
   0.49507506  0.00618576  0.52154307
   0.41641630  0.08195389  0.57699114
   0.34232176  0.14407926  0.67101021
   0.34287265  0.17920380  0.83688784
   0.23871784  0.24640697  0.91362332
   0.16039405  0.31957999  0.00525396
   0.10185230  0.40368391  0.07700597
   0.00159624  0.49396392  0.16725961
   0.91457687  0.57826968  0.24447356
   0.82307075  0.66506872  0.33498082
   0.72841328  0.73286956  0.41297044
   0.66672375  0.83104668  0.50430911
   0.57695488  0.91067361  0.57282228
   0.50291493  0.99669134  0.67111006
   0.41660472  0.07042770  0.76270833
   0.42470127  0.07813565  0.92587084
   0.34196292  0.18217080  0.99128660
   0.25101596  0.24532107  0.07167311
   0.19155977  0.32667977  0.16543137
   0.09029533  0.40521687  0.24524507
   0.98516489  0.49226995  0.33703572
   0.91297922  0.57771748  0.39958890
   0.82713315  0.65899913  0.49322520
   0.74203305  0.74617891  0.56094459
   0.67912148  0.83293813  0.66154345
   0.59924439  0.90419888  0.74454699
   0.50204825  0.99909994  0.83674063
   0.51044200  0.00031981  0.01759627
   0.41676260  0.09498406  0.08423276
   0.33982915  0.18056131  0.16183407
   0.28030519  0.25842945  0.26188164
   0.18260225  0.32910571  0.34147503
   0.08779756  0.41307399  0.41314708
   0.99480351  0.49441794  0.49290284
   0.92546830  0.57172607  0.57938942
   0.83768209  0.66371600  0.66087849
   0.76014403  0.75157713  0.74801243
   0.68080273  0.84376403  0.83934524
   0.58038574  0.92066143  0.93156119
   0.60233878  0.91593804  0.10025720
   0.50365301  0.01315116  0.16096688
   0.39775504  0.07380200  0.25153451
   0.34724484  0.15847056  0.34996831
   0.25003166  0.25958156  0.43257634
   0.17488394  0.33350383  0.48552456
   0.05963545  0.40704470  0.58889627
   0.98847351  0.49517549  0.66474141
   0.92101617  0.58533877  0.75197718
   0.84694357  0.66631492  0.83701690
   0.76538604  0.75547508  0.93025577
   0.66848883  0.84642490  0.00276486
   0.67649931  0.83195944  0.17432266
   0.58704339  0.92027130  0.24894783
   0.49256919  0.99974485  0.33262241
   0.41347827  0.07232397  0.42225260
   0.32740562  0.14957016  0.50823352
   0.26199416  0.23463187  0.59180597
   0.16680364  0.32044126  0.66941310
   0.06994644  0.40901633  0.73527986
   0.01736267  0.48778172  0.84858126
   0.92236886  0.57973534  0.92157101
   0.84381125  0.67224667  0.01501243
   0.76208535  0.76061511  0.07338479
   0.34131047  0.34732462  0.66742527
   0.25348559  0.41669274  0.75185977
   0.16943537  0.49614184  0.83095012
   0.07191396  0.57426418  0.93204648
   0.01793099  0.66702980  0.00612714
   0.91925470  0.74573814  0.10263098
   0.82579155  0.83552372  0.16269404
   0.75706548  0.91626783  0.26032733
   0.67193926  0.01088477  0.32175397
   0.57331018  0.08477355  0.43014935
   0.48987275  0.16319291  0.48830263
   0.40436410  0.23155366  0.58480405
   0.42568471  0.25306616  0.74945322
   0.32908318  0.34063100  0.82333184
   0.24286492  0.43015674  0.90709969
   0.16956318  0.50343159  0.00350318
   0.08820883  0.58545069  0.08787181
   0.00443106  0.67311551  0.16388390
   0.89288066  0.75999810  0.24945162
   0.81139644  0.81858417  0.35189467
   0.75440905  0.92053354  0.41718023
   0.66853579  0.01022756  0.50939685
   0.58641091  0.08376922  0.57809866
   0.49071766  0.14721791  0.66097651
   0.50284459  0.15944804  0.82115345
   0.42413254  0.25550075  0.91902984
   0.34033291  0.33589321  0.98781477
   0.25523713  0.41042995  0.06765667
   0.17000022  0.49504179  0.16780696
   0.08866387  0.58865178  0.25112503
   0.98843338  0.66828310  0.33228137
   0.90407798  0.73224874  0.42532516
   0.82186916  0.81906869  0.49146819
   0.77049239  0.91181510  0.56689740
   0.68177513  0.99128446  0.66022995
   0.58938237  0.08356816  0.72873193
   0.57520167  0.08408354  0.92097552
   0.50304876  0.17363616  0.01008121
   0.41064614  0.26285786  0.08370147
   0.34054163  0.34542767  0.16273675
   0.24787091  0.41897657  0.25710761
   0.15782992  0.49595764  0.34271202
   0.06708435  0.58469911  0.41920838
   0.00767789  0.67335527  0.49077249
   0.91176138  0.74069467  0.58523091
   0.82210596  0.82015699  0.66180098
   0.75407943  0.92944337  0.74598464
   0.65413640  0.00038870  0.83673826
   0.66516603  0.00927060  0.01947946
   0.59304620  0.08707781  0.09330182
   0.48760951  0.16701933  0.17128635
   0.41428455  0.24646730  0.24987515
   0.33150454  0.33414794  0.32918898
   0.25967683  0.42076304  0.41695616
   0.16053051  0.48568962  0.50840684
   0.05950325  0.57009643  0.58294028
   0.98357508  0.66788749  0.68502147
   0.92784877  0.75733914  0.75379917
   0.82935669  0.83761579  0.83439153
   0.75630501  0.93419219  0.91874232
   0.75229346  0.92722632  0.09110430
   0.68465034  0.02167221  0.18836316
   0.56343870  0.08410760  0.25201455
   0.49730825  0.15988704  0.33743954
   0.41512812  0.25044745  0.41228359
   0.32806546  0.33232844  0.51219537
   0.23858865  0.41856052  0.58810317
   0.15944921  0.50243231  0.68134855
   0.06787766  0.57474353  0.74492506
   0.99871968  0.67486942  0.84040907
   0.92455254  0.76010491  0.91928743
   0.84485679  0.85330259  0.99825369
   0.41724263  0.42563231  0.57427450
   0.33932271  0.49537153  0.66270358
   0.25529989  0.58418873  0.75597338
   0.13453891  0.66094313  0.83688990
   0.08665117  0.77400081  0.92117021
   0.99349256  0.85325758  0.02709519
   0.91267056  0.91975302  0.09847713
   0.83634279  0.99536306  0.17961487
   0.76044665  0.09922071  0.24318809
   0.67558040  0.15407615  0.32600013
   0.59396027  0.24352529  0.40540606
   0.49389254  0.33457819  0.50205637
   0.49044953  0.33591766  0.65120780
   0.43185443  0.41654670  0.75187728
   0.34398222  0.50709456  0.81685153
   0.25679793  0.58392186  0.91177598
   0.16531698  0.67152067  0.98841391
   0.08885694  0.75591250  0.09412230
   0.00030687  0.82840917  0.17779172
   0.90580484  0.89561688  0.25868660
   0.84123508  0.98898638  0.33099009
   0.74715392  0.08420876  0.40123924
   0.66429278  0.16804948  0.51149079
   0.58103025  0.24537343  0.59288134
   0.57825937  0.24895654  0.72893422
   0.50030417  0.33683501  0.82306880
   0.42056908  0.42265176  0.91737904
   0.33781911  0.51331914  0.99739623
   0.25495342  0.59147414  0.08050524
   0.17460562  0.67116098  0.17169877
   0.08210856  0.76420055  0.26035120
   0.99853180  0.82831063  0.33165652
   0.91003260  0.90068235  0.41131343
   0.84294709  0.99006308  0.49609764
   0.76946966  0.08517451  0.57825195
   0.67106966  0.16182293  0.65861188
   0.66867326  0.18019992  0.83393626
   0.58049843  0.26869805  0.91720075
   0.50632373  0.32978977  0.99603034
   0.42095502  0.42173517  0.05858503
   0.32605786  0.48844787  0.15827538
   0.24002785  0.57621348  0.25991396
   0.15918819  0.67866809  0.31488190
   0.07812750  0.75908513  0.41990432
   0.98812222  0.82841496  0.51047852
   0.90438053  0.90227858  0.57916887
   0.83469353  0.99986213  0.65729950
   0.75271769  0.08718581  0.75686541
   0.75014003  0.09183007  0.91748195
   0.65530286  0.17482443  0.00810734
   0.57874057  0.26133819  0.10361824
   0.48838401  0.33213121  0.17503857
   0.41894442  0.40612587  0.25565297
   0.33086123  0.48867779  0.32893815
   0.23374930  0.57449181  0.41780989
   0.16090894  0.67757460  0.49070366
   0.07519387  0.73675385  0.60198337
   0.99630612  0.83989518  0.66669626
   0.91470872  0.91676235  0.72879050
   0.82596909  0.00549724  0.83527069
   0.83383615  0.01267296  0.00379041
   0.75479121  0.09033251  0.08135065
   0.66589787  0.18125128  0.17580017
   0.57810326  0.25361766  0.25355148
   0.50102308  0.33541075  0.33269879
   0.40942966  0.41007336  0.41623746
   0.31565964  0.50253886  0.49021805
   0.24471344  0.59479770  0.58207019
   0.14442215  0.65488089  0.66617083
   0.07276073  0.75804818  0.75364602
   0.99237935  0.84437580  0.83725122
   0.91697653  0.92772294  0.91206582
