 504 504   0   0
  0.2235424E+02  0.2214114E-08  0.2191405E-08  0.2322030E-08  0.5000000E-15
  1.000000000000000E-004
  CAR 
 Li                                      
      2.99390065     -3.53961048  301      0.15273690      1.00000000
     -3.540  0.0000E+00  0.0000E+00
     -3.518  0.0000E+00  0.0000E+00
     -3.496  0.0000E+00  0.0000E+00
     -3.474  0.0000E+00  0.0000E+00
     -3.452  0.0000E+00  0.0000E+00
     -3.431  0.0000E+00  0.0000E+00
     -3.409  0.6245E-13  0.1360E-14
     -3.387  0.1537E-09  0.3349E-11
     -3.365  0.1343E-06  0.2927E-08
     -3.344  0.4190E-04  0.9154E-06
     -3.322  0.4708E-02  0.1034E-03
     -3.300  0.1924E+00  0.4294E-02
     -3.278  0.2897E+01  0.6738E-01
     -3.256  0.1630E+02  0.4223E+00
     -3.235  0.3467E+02  0.1177E+01
     -3.213  0.2811E+02  0.1790E+01
     -3.191  0.9481E+01  0.1996E+01
     -3.169  0.1002E+02  0.2214E+01
     -3.148  0.4139E+02  0.3116E+01
     -3.126  0.8694E+02  0.5009E+01
     -3.104  0.8727E+02  0.6910E+01
     -3.082  0.4131E+02  0.7809E+01
     -3.060  0.1403E+02  0.8115E+01
     -3.039  0.3236E+02  0.8820E+01
     -3.017  0.7853E+02  0.1053E+02
     -2.995  0.9154E+02  0.1252E+02
     -2.973  0.5310E+02  0.1368E+02
     -2.952  0.2390E+02  0.1420E+02
     -2.930  0.4073E+02  0.1509E+02
     -2.908  0.7986E+02  0.1683E+02
     -2.886  0.1031E+03  0.1907E+02
     -2.864  0.8743E+02  0.2098E+02
     -2.843  0.4971E+02  0.2206E+02
     -2.821  0.5466E+02  0.2325E+02
     -2.799  0.1002E+03  0.2543E+02
     -2.777  0.1336E+03  0.2834E+02
     -2.756  0.1355E+03  0.3129E+02
     -2.734  0.9040E+02  0.3326E+02
     -2.712  0.4302E+02  0.3420E+02
     -2.690  0.4616E+02  0.3520E+02
     -2.668  0.7475E+02  0.3683E+02
     -2.647  0.8454E+02  0.3867E+02
     -2.625  0.6189E+02  0.4002E+02
     -2.603  0.5390E+02  0.4119E+02
     -2.581  0.7343E+02  0.4279E+02
     -2.560  0.9998E+02  0.4497E+02
     -2.538  0.1228E+03  0.4765E+02
     -2.516  0.1255E+03  0.5038E+02
     -2.494  0.1106E+03  0.5279E+02
     -2.472  0.1132E+03  0.5525E+02
     -2.451  0.1332E+03  0.5815E+02
     -2.429  0.1622E+03  0.6169E+02
     -2.407  0.1718E+03  0.6543E+02
     -2.385  0.1392E+03  0.6846E+02
     -2.364  0.8918E+02  0.7040E+02
     -2.342  0.5686E+02  0.7164E+02
     -2.320  0.5234E+02  0.7278E+02
     -2.298  0.6951E+02  0.7430E+02
     -2.276  0.7051E+02  0.7583E+02
     -2.255  0.7716E+02  0.7751E+02
     -2.233  0.1103E+03  0.7991E+02
     -2.211  0.1393E+03  0.8295E+02
     -2.189  0.1512E+03  0.8624E+02
     -2.168  0.1377E+03  0.8924E+02
     -2.146  0.1162E+03  0.9177E+02
     -2.124  0.1171E+03  0.9432E+02
     -2.102  0.1337E+03  0.9723E+02
     -2.080  0.1543E+03  0.1006E+03
     -2.059  0.1781E+03  0.1045E+03
     -2.037  0.1737E+03  0.1083E+03
     -2.015  0.1186E+03  0.1108E+03
     -1.993  0.5883E+02  0.1121E+03
     -1.972  0.6474E+02  0.1135E+03
     -1.950  0.1189E+03  0.1161E+03
     -1.928  0.1483E+03  0.1193E+03
     -1.906  0.1404E+03  0.1224E+03
     -1.884  0.1428E+03  0.1255E+03
     -1.863  0.1561E+03  0.1289E+03
     -1.841  0.1641E+03  0.1325E+03
     -1.819  0.1741E+03  0.1363E+03
     -1.797  0.1649E+03  0.1399E+03
     -1.776  0.1359E+03  0.1428E+03
     -1.754  0.1287E+03  0.1456E+03
     -1.732  0.1399E+03  0.1487E+03
     -1.710  0.1552E+03  0.1521E+03
     -1.688  0.1680E+03  0.1557E+03
     -1.667  0.1507E+03  0.1590E+03
     -1.645  0.1161E+03  0.1615E+03
     -1.623  0.1001E+03  0.1637E+03
     -1.601  0.1047E+03  0.1660E+03
     -1.580  0.1110E+03  0.1684E+03
     -1.558  0.1099E+03  0.1708E+03
     -1.536  0.1305E+03  0.1736E+03
     -1.514  0.1509E+03  0.1769E+03
     -1.492  0.1476E+03  0.1801E+03
     -1.471  0.1499E+03  0.1834E+03
     -1.449  0.1698E+03  0.1871E+03
     -1.427  0.1823E+03  0.1911E+03
     -1.405  0.1845E+03  0.1951E+03
     -1.384  0.1916E+03  0.1993E+03
     -1.362  0.2093E+03  0.2038E+03
     -1.340  0.2196E+03  0.2086E+03
     -1.318  0.2151E+03  0.2133E+03
     -1.296  0.2020E+03  0.2177E+03
     -1.275  0.1853E+03  0.2217E+03
     -1.253  0.1667E+03  0.2254E+03
     -1.231  0.1497E+03  0.2286E+03
     -1.209  0.1192E+03  0.2312E+03
     -1.188  0.1035E+03  0.2335E+03
     -1.166  0.1421E+03  0.2366E+03
     -1.144  0.1655E+03  0.2402E+03
     -1.122  0.1525E+03  0.2435E+03
     -1.100  0.1529E+03  0.2468E+03
     -1.079  0.1728E+03  0.2506E+03
     -1.057  0.1918E+03  0.2548E+03
     -1.035  0.2035E+03  0.2592E+03
     -1.013  0.1979E+03  0.2635E+03
     -0.992  0.1697E+03  0.2672E+03
     -0.970  0.1391E+03  0.2702E+03
     -0.948  0.1294E+03  0.2730E+03
     -0.926  0.1517E+03  0.2763E+03
     -0.904  0.1763E+03  0.2802E+03
     -0.883  0.1720E+03  0.2839E+03
     -0.861  0.1654E+03  0.2875E+03
     -0.839  0.1690E+03  0.2912E+03
     -0.817  0.1946E+03  0.2954E+03
     -0.796  0.2303E+03  0.3005E+03
     -0.774  0.2367E+03  0.3056E+03
     -0.752  0.2156E+03  0.3103E+03
     -0.730  0.2023E+03  0.3147E+03
     -0.708  0.2198E+03  0.3195E+03
     -0.687  0.2440E+03  0.3248E+03
     -0.665  0.2380E+03  0.3300E+03
     -0.643  0.2096E+03  0.3346E+03
     -0.621  0.1864E+03  0.3386E+03
     -0.600  0.1675E+03  0.3423E+03
     -0.578  0.1662E+03  0.3459E+03
     -0.556  0.1831E+03  0.3499E+03
     -0.534  0.1858E+03  0.3539E+03
     -0.512  0.1753E+03  0.3577E+03
     -0.491  0.1783E+03  0.3616E+03
     -0.469  0.1908E+03  0.3658E+03
     -0.447  0.1982E+03  0.3701E+03
     -0.425  0.2047E+03  0.3746E+03
     -0.404  0.1993E+03  0.3789E+03
     -0.382  0.1930E+03  0.3831E+03
     -0.360  0.2039E+03  0.3875E+03
     -0.338  0.2264E+03  0.3925E+03
     -0.316  0.2489E+03  0.3979E+03
     -0.295  0.2660E+03  0.4037E+03
     -0.273  0.2687E+03  0.4095E+03
     -0.251  0.2536E+03  0.4151E+03
     -0.229  0.2225E+03  0.4199E+03
     -0.208  0.2032E+03  0.4243E+03
     -0.186  0.2082E+03  0.4289E+03
     -0.164  0.2159E+03  0.4336E+03
     -0.142  0.2185E+03  0.4383E+03
     -0.120  0.2138E+03  0.4430E+03
     -0.099  0.2105E+03  0.4476E+03
     -0.077  0.2087E+03  0.4521E+03
     -0.055  0.1980E+03  0.4564E+03
     -0.033  0.1894E+03  0.4606E+03
     -0.012  0.1884E+03  0.4647E+03
      0.010  0.1969E+03  0.4689E+03
      0.032  0.2067E+03  0.4734E+03
      0.054  0.2143E+03  0.4781E+03
      0.076  0.2295E+03  0.4831E+03
      0.097  0.2500E+03  0.4886E+03
      0.119  0.2684E+03  0.4944E+03
      0.141  0.2837E+03  0.5006E+03
      0.163  0.2901E+03  0.5069E+03
      0.184  0.2927E+03  0.5133E+03
      0.206  0.2996E+03  0.5198E+03
      0.228  0.2977E+03  0.5263E+03
      0.250  0.2944E+03  0.5327E+03
      0.272  0.2951E+03  0.5391E+03
      0.293  0.2923E+03  0.5455E+03
      0.315  0.2839E+03  0.5517E+03
      0.337  0.2675E+03  0.5575E+03
      0.359  0.2579E+03  0.5631E+03
      0.380  0.2578E+03  0.5687E+03
      0.402  0.2540E+03  0.5743E+03
      0.424  0.2491E+03  0.5797E+03
      0.446  0.2420E+03  0.5849E+03
      0.468  0.2260E+03  0.5899E+03
      0.489  0.2111E+03  0.5945E+03
      0.511  0.2109E+03  0.5991E+03
      0.533  0.2186E+03  0.6038E+03
      0.555  0.2203E+03  0.6086E+03
      0.577  0.2147E+03  0.6133E+03
      0.598  0.2110E+03  0.6179E+03
      0.620  0.2170E+03  0.6226E+03
      0.642  0.2185E+03  0.6274E+03
      0.664  0.2166E+03  0.6321E+03
      0.685  0.2260E+03  0.6370E+03
      0.707  0.2327E+03  0.6421E+03
      0.729  0.2323E+03  0.6471E+03
      0.751  0.2421E+03  0.6524E+03
      0.773  0.2509E+03  0.6579E+03
      0.794  0.2507E+03  0.6633E+03
      0.816  0.2583E+03  0.6690E+03
      0.838  0.2620E+03  0.6747E+03
      0.860  0.2509E+03  0.6801E+03
      0.881  0.2393E+03  0.6853E+03
      0.903  0.2310E+03  0.6904E+03
      0.925  0.2271E+03  0.6953E+03
      0.947  0.2283E+03  0.7003E+03
      0.969  0.2366E+03  0.7055E+03
      0.990  0.2357E+03  0.7106E+03
      1.012  0.2230E+03  0.7154E+03
      1.034  0.2212E+03  0.7203E+03
      1.056  0.2282E+03  0.7252E+03
      1.077  0.2284E+03  0.7302E+03
      1.099  0.2146E+03  0.7349E+03
      1.121  0.2017E+03  0.7393E+03
      1.143  0.2066E+03  0.7438E+03
      1.165  0.2192E+03  0.7485E+03
      1.186  0.2264E+03  0.7535E+03
      1.208  0.2325E+03  0.7585E+03
      1.230  0.2410E+03  0.7638E+03
      1.252  0.2378E+03  0.7690E+03
      1.273  0.2281E+03  0.7739E+03
      1.295  0.2259E+03  0.7789E+03
      1.317  0.2280E+03  0.7838E+03
      1.339  0.2267E+03  0.7888E+03
      1.361  0.2298E+03  0.7938E+03
      1.382  0.2350E+03  0.7989E+03
      1.404  0.2302E+03  0.8039E+03
      1.426  0.2241E+03  0.8088E+03
      1.448  0.2207E+03  0.8136E+03
      1.469  0.2226E+03  0.8184E+03
      1.491  0.2268E+03  0.8234E+03
      1.513  0.2345E+03  0.8285E+03
      1.535  0.2324E+03  0.8335E+03
      1.557  0.2155E+03  0.8382E+03
      1.578  0.2070E+03  0.8427E+03
      1.600  0.2095E+03  0.8473E+03
      1.622  0.2094E+03  0.8519E+03
      1.644  0.2031E+03  0.8563E+03
      1.665  0.2020E+03  0.8607E+03
      1.687  0.2020E+03  0.8651E+03
      1.709  0.1952E+03  0.8693E+03
      1.731  0.1946E+03  0.8736E+03
      1.753  0.2015E+03  0.8780E+03
      1.774  0.1941E+03  0.8822E+03
      1.796  0.1868E+03  0.8863E+03
      1.818  0.1946E+03  0.8905E+03
      1.840  0.1918E+03  0.8947E+03
      1.861  0.1743E+03  0.8985E+03
      1.883  0.1642E+03  0.9020E+03
      1.905  0.1650E+03  0.9056E+03
      1.927  0.1630E+03  0.9092E+03
      1.949  0.1620E+03  0.9127E+03
      1.970  0.1677E+03  0.9164E+03
      1.992  0.1690E+03  0.9200E+03
      2.014  0.1680E+03  0.9237E+03
      2.036  0.1657E+03  0.9273E+03
      2.057  0.1581E+03  0.9308E+03
      2.079  0.1458E+03  0.9339E+03
      2.101  0.1393E+03  0.9370E+03
      2.123  0.1492E+03  0.9402E+03
      2.145  0.1570E+03  0.9436E+03
      2.166  0.1468E+03  0.9468E+03
      2.188  0.1357E+03  0.9498E+03
      2.210  0.1431E+03  0.9529E+03
      2.232  0.1597E+03  0.9564E+03
      2.253  0.1708E+03  0.9601E+03
      2.275  0.1703E+03  0.9638E+03
      2.297  0.1613E+03  0.9673E+03
      2.319  0.1560E+03  0.9707E+03
      2.341  0.1495E+03  0.9740E+03
      2.362  0.1385E+03  0.9770E+03
      2.384  0.1340E+03  0.9799E+03
      2.406  0.1323E+03  0.9828E+03
      2.428  0.1205E+03  0.9854E+03
      2.449  0.1110E+03  0.9878E+03
      2.471  0.1148E+03  0.9903E+03
      2.493  0.1140E+03  0.9928E+03
      2.515  0.1107E+03  0.9952E+03
      2.537  0.1130E+03  0.9977E+03
      2.558  0.1085E+03  0.1000E+04
      2.580  0.9747E+02  0.1002E+04
      2.602  0.8366E+02  0.1004E+04
      2.624  0.7410E+02  0.1006E+04
      2.645  0.6605E+02  0.1007E+04
      2.667  0.5025E+02  0.1008E+04
      2.689  0.4118E+02  0.1009E+04
      2.711  0.3055E+02  0.1010E+04
      2.733  0.1161E+02  0.1010E+04
      2.754  0.1826E+01  0.1010E+04
      2.776  0.1116E+00  0.1010E+04
      2.798  0.2569E-02  0.1010E+04
      2.820  0.2183E-04  0.1010E+04
      2.841  0.6745E-07  0.1010E+04
      2.863  0.7498E-10  0.1010E+04
      2.885  0.2804E-13  0.1010E+04
      2.907  0.0000E+00  0.1010E+04
      2.929  0.0000E+00  0.1010E+04
      2.950  0.0000E+00  0.1010E+04
      2.972  0.0000E+00  0.1010E+04
      2.994  0.0000E+00  0.1010E+04
