       N       E                     dE             d eps       ncg     rms          rms(c)
DAV:   1    -0.314105797974E+03   -0.31411E+03   -0.11895E+05  4040   0.647E+02
DAV:   2    -0.884823376669E+03   -0.57072E+03   -0.52259E+03  4652   0.645E+01
DAV:   3    -0.926128906865E+03   -0.41306E+02   -0.37823E+02  5208   0.137E+01
DAV:   4    -0.927580063204E+03   -0.14512E+01   -0.14278E+01  4736   0.280E+00
DAV:   5    -0.927614220149E+03   -0.34157E-01   -0.34092E-01  4896   0.455E-01    0.870E+00
DAV:   6    -0.922339607628E+03    0.52746E+01   -0.97083E+00  4656   0.385E+00    0.645E+00
DAV:   7    -0.919329122070E+03    0.30105E+01   -0.82199E+00  4800   0.382E+00    0.498E+00
DAV:   8    -0.916246642224E+03    0.30825E+01   -0.46825E+00  4624   0.231E+00    0.255E+00
DAV:   9    -0.915764247303E+03    0.48239E+00   -0.27567E+00  4520   0.129E+00    0.131E+00
DAV:  10    -0.915895585823E+03   -0.13134E+00   -0.72528E-01  4680   0.844E-01    0.129E+00
DAV:  11    -0.915704167549E+03    0.19142E+00   -0.31578E-01  4608   0.617E-01    0.636E-01
DAV:  12    -0.915700951427E+03    0.32161E-02   -0.75147E-02  4584   0.289E-01    0.456E-01
DAV:  13    -0.915687275899E+03    0.13676E-01   -0.40355E-02  4624   0.227E-01    0.296E-01
DAV:  14    -0.915682666817E+03    0.46091E-02   -0.14009E-02  4536   0.124E-01    0.151E-01
DAV:  15    -0.915681952233E+03    0.71458E-03   -0.51291E-03  4560   0.753E-02    0.920E-02
DAV:  16    -0.915681513752E+03    0.43848E-03   -0.18578E-03  4672   0.515E-02    0.675E-02
DAV:  17    -0.915681250646E+03    0.26311E-03   -0.76290E-04  4608   0.312E-02    0.391E-02
DAV:  18    -0.915681109674E+03    0.14097E-03   -0.35807E-04  4624   0.221E-02    0.235E-02
DAV:  19    -0.915681065232E+03    0.44442E-04   -0.13884E-04  4536   0.124E-02    0.132E-02
DAV:  20    -0.915681048753E+03    0.16479E-04   -0.54674E-05  4368   0.679E-03    0.598E-03
DAV:  21    -0.915681045767E+03    0.29860E-05   -0.11659E-05  2216   0.324E-03
   1 F= -.91568105E+03 E0= -.91561573E+03  d E =-.130634E+00
