Li                                      
           1
   -11.070570   19.174790    0.000000
   -18.978120  -10.957023    0.000000
     0.000000    0.000000   23.220300
   Li
   504
Direct configuration=     1
   0.02065761  0.98651200  0.01037413
   0.94690336  0.03461263  0.66972524
   0.84258404  0.07676767  0.31583392
   0.77492644  0.11981992  0.00464761
   0.70621303  0.18795673  0.65337499
   0.63873465  0.21260866  0.34004882
   0.57055651  0.24658073  0.98402905
   0.50051963  0.29278746  0.67104765
   0.40603581  0.33093895  0.30896152
   0.36518584  0.37432124  0.01362822
   0.29913592  0.41798825  0.65205179
   0.20381380  0.46373376  0.32713488
   0.08154399  0.06133257  0.66923881
   0.97429941  0.07948992  0.34272889
   0.92192591  0.11457752  0.99506822
   0.86454024  0.16105154  0.67741096
   0.76129396  0.21967184  0.32939593
   0.70032158  0.24474439  0.00382706
   0.64214422  0.31825179  0.66619774
   0.56000254  0.33440499  0.34163338
   0.49233760  0.36818341  0.00051425
   0.47084776  0.42627491  0.67233743
   0.34256876  0.46145783  0.32091646
   0.28418435  0.50290976  0.00256301
   0.13906851  0.07358192  0.34354812
   0.08110142  0.14611776  0.99925623
   0.00383022  0.18406587  0.68122439
   0.91045111  0.21460734  0.33163093
   0.83434175  0.24187524  0.99567294
   0.79249508  0.27825649  0.66308518
   0.71552158  0.32690128  0.32961373
   0.63714958  0.38772632  0.99022760
   0.59778237  0.42897496  0.65470605
   0.49924736  0.45892381  0.31018293
   0.43922057  0.50795913  0.99942745
   0.38038654  0.54366707  0.67440057
   0.21633695  0.11713711  0.02643894
   0.15906831  0.17578737  0.67579255
   0.03105666  0.20878556  0.34890675
   0.99703789  0.23687671  0.01181622
   0.93770063  0.30361093  0.67496120
   0.85092371  0.33070511  0.34391689
   0.77609065  0.37257213  0.99056074
   0.71542140  0.43046728  0.66476686
   0.63827693  0.46811595  0.34141495
   0.55747296  0.51386544  0.00438992
   0.50389515  0.54945557  0.66933187
   0.42329129  0.57255327  0.31245312
   0.29798259  0.16930147  0.68859143
   0.18977574  0.20957180  0.34240805
   0.14315414  0.23451522  0.00038538
   0.09252097  0.28048720  0.66347159
   0.01067571  0.35957175  0.32819085
   0.92397168  0.35370829  0.97999828
   0.84612529  0.41055909  0.69317186
   0.79069699  0.45133330  0.36398203
   0.70518823  0.51426130  0.01704417
   0.63948427  0.54862375  0.66656956
   0.57668144  0.57832472  0.33959601
   0.51176768  0.63935176  0.99148652
   0.30252913  0.22559288  0.32557576
   0.27813451  0.24730240  0.01155138
   0.21922440  0.28710242  0.69264001
   0.15531799  0.31690902  0.34811754
   0.07593823  0.35467088  0.01338703
   0.00227066  0.41167224  0.67994087
   0.94226266  0.46797445  0.33116525
   0.83514908  0.48696647  0.99173504
   0.80210079  0.55290286  0.68842951
   0.72412922  0.59750897  0.34491358
   0.64360504  0.64438337  0.98893923
   0.58581576  0.64663836  0.67417141
   0.43589457  0.24692861  0.01795604
   0.35376473  0.29858765  0.67330942
   0.25810630  0.34156602  0.33979299
   0.20718251  0.37481686  0.98534871
   0.14593995  0.42195846  0.67136075
   0.06766106  0.46372902  0.32874846
   0.00497168  0.50855552  0.00894518
   0.95974222  0.55206177  0.68253150
   0.85663577  0.59075184  0.32573294
   0.79980259  0.62834576  0.00898554
   0.72928482  0.65856684  0.68489046
   0.63519494  0.70779566  0.33913707
   0.13945286  0.50962767  0.00105186
   0.09590261  0.54436734  0.65450605
   0.99599208  0.57363457  0.32320916
   0.93269097  0.62208323  0.98074024
   0.86795597  0.66708240  0.66576050
   0.77515160  0.71855028  0.34678484
   0.71500918  0.75653658  0.99478728
   0.23129807  0.55630828  0.67612393
   0.14789827  0.58421173  0.32667954
   0.07623445  0.64806582  0.99501445
   0.01891251  0.68922108  0.68237526
   0.92871828  0.70548625  0.31829196
   0.86487173  0.75992412  0.98388867
   0.80110726  0.79352856  0.64318959
   0.28551539  0.57722773  0.31740008
   0.21401583  0.62154005  0.00502272
   0.14873619  0.68635147  0.66208128
   0.07089985  0.69996860  0.33370125
   0.98453412  0.76527106  0.00005240
   0.96926101  0.79079452  0.64535310
   0.86719695  0.83917252  0.33240992
   0.36524939  0.61939890  0.01007993
   0.28998913  0.66617742  0.66261237
   0.19058047  0.71076566  0.32852680
   0.14750088  0.75943385  0.98932650
   0.09634590  0.80677470  0.64848546
   0.99778656  0.82463624  0.32959256
   0.92075153  0.87839258  0.97685954
   0.43643699  0.64694011  0.67315563
   0.35711519  0.69725469  0.34141752
   0.28759673  0.76410997  0.00325889
   0.23168792  0.81884953  0.65858508
   0.14050680  0.83918189  0.31648024
   0.08517037  0.88832902  0.97187016
   0.00472345  0.92218412  0.65562030
   0.90993573  0.93986071  0.34890174
   0.88687905  0.99333297  0.99501059
   0.79595386  0.05058680  0.66589884
   0.70720953  0.08879287  0.33807098
   0.63687139  0.13125339  0.99119903
   0.58403488  0.18484550  0.67876639
   0.46788850  0.21888218  0.32310921
   0.04988380  0.95754748  0.34807448
   0.14491296  0.03573593  0.00603264
   0.22233287  0.05699954  0.65424541
   0.24734830  0.08402300  0.34185193
   0.36471791  0.11828595  0.00542513
   0.42639688  0.17494152  0.68310811
   0.87212084  0.90316481  0.64684246
   0.77465593  0.96990040  0.33210577
   0.73325696  0.99379059  0.00177708
   0.63653598  0.05128085  0.65128188
   0.53518728  0.09473448  0.31876055
   0.48717191  0.11031955  0.99858465
   0.15649680  0.92610821  0.66511996
   0.20393788  0.93261816  0.34319137
   0.28051524  0.00145361  0.01577139
   0.37372456  0.05153628  0.66575039
   0.37167929  0.08678379  0.32806694
   0.81324708  0.87793370  0.99278183
   0.70800631  0.92625417  0.65270515
   0.62987095  0.96890781  0.33249331
   0.58170221  0.99300774  0.99594505
   0.50246295  0.04609017  0.66197798
   0.22470761  0.89647053  0.97999105
   0.29998786  0.93789129  0.65691340
   0.33533590  0.93931483  0.34443629
   0.41292744  0.98442558  0.01938710
   0.69264114  0.85164132  0.34507640
   0.66118987  0.88475427  0.00300773
   0.59810758  0.92138364  0.65610114
   0.48663096  0.95582035  0.32948764
   0.28131218  0.82631878  0.33955829
   0.35711882  0.87394592  0.98607652
   0.43823916  0.91130706  0.66040190
   0.66191330  0.78770232  0.66192358
   0.57810304  0.82793029  0.32698397
   0.50721446  0.89364736  0.01113568
   0.37891747  0.77857004  0.66981743
   0.42767372  0.82075506  0.31148248
   0.57307787  0.77575835  0.98463162
   0.51124655  0.80029201  0.64454780
   0.42912014  0.76323375  0.98828085
   0.50475223  0.70534004  0.35067338
   0.99677949  0.02014509  0.78647129
   0.91698370  0.04546275  0.44074562
   0.85536563  0.07633525  0.10903934
   0.77963342  0.13658473  0.77855532
   0.71727774  0.16376331  0.42771554
   0.64620611  0.18684075  0.12296942
   0.56693170  0.25148307  0.78368830
   0.49950412  0.29253616  0.44851129
   0.42480303  0.32127397  0.13604334
   0.36891676  0.40162954  0.77199094
   0.28795077  0.41501781  0.43350570
   0.18831051  0.43283737  0.09877578
   0.07416919  0.03120855  0.45104487
   0.01838116  0.06292887  0.09776912
   0.91495219  0.13469523  0.79574609
   0.86950521  0.15527818  0.43643533
   0.77660772  0.20386438  0.12267119
   0.70134265  0.23538658  0.76963992
   0.66621986  0.30575249  0.44927357
   0.56357194  0.33898819  0.11339748
   0.50716375  0.38244694  0.77327788
   0.44880744  0.39441979  0.42883003
   0.34445767  0.46054376  0.10132575
   0.28272111  0.49122307  0.76594287
   0.12910551  0.08581834  0.13565444
   0.06524652  0.14827161  0.77443562
   0.00308668  0.15955632  0.44503520
   0.92322092  0.18768229  0.10321688
   0.87620492  0.24837145  0.79983743
   0.79241272  0.28397299  0.44881409
   0.69730738  0.34112970  0.10087113
   0.65066708  0.37372048  0.78686087
   0.57468785  0.43037523  0.45094375
   0.48319252  0.47600650  0.11785867
   0.43804184  0.51474419  0.77775896
   0.35002546  0.51364910  0.43577839
   0.20655828  0.14592705  0.75990222
   0.14865523  0.16439931  0.46014633
   0.06166945  0.20016651  0.11233091
   0.00188316  0.25672162  0.79410832
   0.95424112  0.29525802  0.44456475
   0.83968948  0.33069202  0.11111146
   0.79129642  0.34705205  0.77614619
   0.72016238  0.39662496  0.47215015
   0.63433243  0.45983703  0.12701971
   0.58002130  0.49238130  0.76674851
   0.49953268  0.53358393  0.43699737
   0.42318264  0.57950685  0.10028131
   0.25795116  0.15963114  0.45855437
   0.21554096  0.19320301  0.12121943
   0.14523722  0.24648543  0.79336567
   0.08248511  0.30932104  0.44275499
   0.98372721  0.32152949  0.09823679
   0.92235127  0.39063015  0.78261216
   0.86120614  0.42304783  0.44350517
   0.78685808  0.44275948  0.10682424
   0.71967402  0.49185104  0.76296448
   0.63618261  0.52351688  0.45377691
   0.54978956  0.60599066  0.09743709
   0.52038953  0.63121058  0.77932922
   0.34558097  0.21709469  0.10668605
   0.29080263  0.25279413  0.80521173
   0.20565834  0.30264012  0.46176241
   0.11922428  0.31735924  0.09707605
   0.08689369  0.35271255  0.78777006
   0.99794966  0.41293572  0.44506638
   0.91341811  0.44948648  0.11083099
   0.87259425  0.50864874  0.78493696
   0.76650547  0.55637496  0.45029960
   0.71226702  0.60266131  0.13073744
   0.67175744  0.62525508  0.78591078
   0.55433421  0.66880509  0.45932746
   0.42748516  0.24750005  0.80074572
   0.36409353  0.28925022  0.45926289
   0.27548029  0.32909539  0.11280075
   0.21267849  0.38429138  0.77884045
   0.14244056  0.42426892  0.43717775
   0.05124120  0.44916553  0.10574299
   0.01887277  0.49485976  0.78920930
   0.91062156  0.54282806  0.43448136
   0.85680112  0.58072719  0.10733232
   0.80771672  0.62346210  0.79336901
   0.69617090  0.67106715  0.45160160
   0.64604066  0.71395078  0.10579499
   0.15738739  0.47515700  0.77070874
   0.05386797  0.53913082  0.43565892
   0.00479824  0.56267932  0.10784223
   0.93910239  0.65128038  0.78508063
   0.84359221  0.67279787  0.44167149
   0.80798236  0.70716650  0.11473199
   0.72700458  0.73958636  0.78178293
   0.19614805  0.54752448  0.42859806
   0.14618651  0.58275142  0.11992258
   0.08263504  0.61043796  0.75354362
   0.98933608  0.67242157  0.41287925
   0.94743413  0.69992639  0.11473551
   0.87818052  0.76544385  0.76122227
   0.76457530  0.80473656  0.44044889
   0.26616588  0.55805096  0.11982574
   0.22823950  0.61566049  0.78168392
   0.13678535  0.65800317  0.45241095
   0.06702164  0.70765302  0.11215854
   0.02018882  0.74727299  0.76876648
   0.92431569  0.77779782  0.43964143
   0.86159615  0.82672256  0.10113718
   0.35632128  0.61290908  0.79709157
   0.27890567  0.64378258  0.44665992
   0.21652738  0.69319382  0.12692977
   0.14803476  0.75794040  0.79470176
   0.06717035  0.79540634  0.44101617
   0.00800920  0.82316933  0.10286374
   0.93282600  0.88312095  0.77608297
   0.43078394  0.64795321  0.43887406
   0.36058282  0.70738023  0.11144737
   0.28570379  0.75273756  0.78248316
   0.20802695  0.78872555  0.43734285
   0.16915531  0.82805303  0.12721381
   0.06387148  0.90001056  0.76823182
   0.98942339  0.91772373  0.44715273
   0.92770346  0.96346005  0.11905752
   0.86216981  0.99457510  0.75671837
   0.77312594  0.04151380  0.44366768
   0.70731798  0.07984346  0.11207576
   0.64268142  0.09112867  0.77437318
   0.57207641  0.19075462  0.44327778
   0.50783253  0.20694969  0.11466766
   0.07550140  0.94669574  0.10749813
   0.13825314  0.02634537  0.77263963
   0.19994923  0.03537531  0.46064199
   0.30156975  0.08137315  0.12028590
   0.36735528  0.13181454  0.78785622
   0.42248696  0.16502694  0.45217348
   0.83242894  0.92298796  0.45264537
   0.79127209  0.95241516  0.10035973
   0.71330254  0.00654929  0.77470322
   0.61733977  0.04836401  0.42864677
   0.58099464  0.09077137  0.10670183
   0.51318369  0.11531727  0.77424439
   0.13359728  0.91760662  0.43084845
   0.20796459  0.96522064  0.11634813
   0.27933301  0.00116892  0.77748043
   0.35672634  0.03962153  0.46104912
   0.44149436  0.09403264  0.10781632
   0.77873896  0.87368520  0.75798407
   0.69054942  0.93598164  0.43532267
   0.64126447  0.94937187  0.12805674
   0.56955467  0.99106029  0.76852789
   0.49201748  0.03682878  0.43931261
   0.20743573  0.86604205  0.77919100
   0.27703594  0.91389782  0.44999968
   0.35405368  0.96162269  0.12149125
   0.43146027  0.98087886  0.76394956
   0.72429057  0.83124485  0.10207023
   0.65213228  0.87683962  0.79059265
   0.55984558  0.90153815  0.43661599
   0.49588636  0.97580513  0.12819943
   0.27570167  0.86630961  0.09482668
   0.34291631  0.85744667  0.76569698
   0.42035576  0.90297414  0.43825732
   0.62088180  0.78897584  0.43636397
   0.58043206  0.83505282  0.12224142
   0.49998324  0.89015001  0.76275135
   0.34638680  0.77517851  0.43650614
   0.42011213  0.84376657  0.09254928
   0.57640026  0.75784608  0.76065030
   0.47766042  0.78945089  0.42136487
   0.43345466  0.76131036  0.78607527
   0.52214142  0.72877273  0.11288169
   0.01803155  0.99679397  0.22986440
   0.91176783  0.02671090  0.89784390
   0.86832525  0.06547710  0.56416815
   0.77690840  0.13970295  0.22070658
   0.73161576  0.15812687  0.88852354
   0.65142931  0.21902446  0.54810091
   0.57114323  0.23541870  0.22320333
   0.49062923  0.29467605  0.90514143
   0.44546822  0.32696754  0.56149754
   0.34097734  0.35815252  0.22371820
   0.29574755  0.41575837  0.89699343
   0.22237050  0.46056723  0.56315329
   0.07006578  0.03756524  0.88854357
   0.00399128  0.07839042  0.55534517
   0.92782713  0.13643630  0.22041960
   0.85428873  0.15126422  0.89746256
   0.78541508  0.19414553  0.53875108
   0.70960490  0.25309883  0.21125703
   0.64486043  0.28628987  0.88626891
   0.58064021  0.33213886  0.55818458
   0.49411511  0.36717933  0.22211269
   0.43109442  0.41545038  0.88804685
   0.34904730  0.43211236  0.56258664
   0.27151338  0.45893042  0.20901739
   0.13584505  0.08801464  0.56100981
   0.07312832  0.12155754  0.24124545
   0.00390785  0.17452773  0.90152376
   0.93931501  0.20162021  0.56127643
   0.85965354  0.22447327  0.23071283
   0.76683296  0.27621157  0.87782709
   0.70948368  0.34512292  0.56608449
   0.62977345  0.38627860  0.22346423
   0.59498547  0.39631775  0.89650333
   0.51391239  0.47277538  0.55454457
   0.39941368  0.48606973  0.20769603
   0.36294131  0.54882700  0.89553099
   0.19442569  0.11774447  0.24016770
   0.14192574  0.17143207  0.88432691
   0.07380752  0.22380751  0.54845440
   0.98718862  0.23528114  0.22442762
   0.92081948  0.28176765  0.89591390
   0.86031042  0.33752340  0.56854216
   0.78730939  0.36399040  0.22241721
   0.72549266  0.42994275  0.88752962
   0.63377669  0.45517846  0.55595708
   0.54920577  0.50173327  0.21051558
   0.51041961  0.52459372  0.88778884
   0.43265021  0.57102010  0.53974120
   0.26332237  0.17273886  0.89954474
   0.22152530  0.21445700  0.56558900
   0.11566620  0.23961956  0.23367702
   0.05925890  0.29238616  0.91329520
   0.01392876  0.34801850  0.54849361
   0.94353171  0.36307270  0.19923613
   0.84964632  0.41546041  0.87673796
   0.79108709  0.48845824  0.56042050
   0.71633574  0.49273839  0.22932098
   0.63846114  0.55347442  0.89151765
   0.57140604  0.59162780  0.56435280
   0.50006069  0.61277715  0.21390323
   0.36354118  0.20632904  0.57408142
   0.25288630  0.24460610  0.21301279
   0.18455427  0.28803571  0.90749265
   0.14917545  0.33557426  0.56976865
   0.07214121  0.37872336  0.20804185
   0.99876157  0.43143052  0.89623182
   0.92538393  0.47770290  0.56690415
   0.85480114  0.49432900  0.21265550
   0.76899075  0.54762846  0.88818218
   0.69460845  0.58980132  0.56901319
   0.63994658  0.60538960  0.22830927
   0.57153583  0.66166667  0.87396219
   0.41873703  0.23607317  0.22935797
   0.33471886  0.31145492  0.90213628
   0.29438532  0.32277513  0.56923065
   0.18416223  0.36914853  0.21683668
   0.13805910  0.42265972  0.89412730
   0.07645859  0.46812917  0.56102336
   0.99252840  0.49054117  0.21367592
   0.92475691  0.53109696  0.88535708
   0.87465907  0.57202926  0.55945415
   0.76807484  0.64901179  0.21920077
   0.72484336  0.64983018  0.88932739
   0.65075290  0.72709136  0.58528260
   0.13633585  0.49590153  0.21010566
   0.07454583  0.51279190  0.87478825
   0.02268024  0.58536141  0.55833925
   0.93552295  0.62452982  0.19780057
   0.86853101  0.66451379  0.89560917
   0.80412230  0.70589659  0.55147575
   0.70119451  0.75200890  0.24663612
   0.20600124  0.54018927  0.87360126
   0.17221336  0.57620566  0.54941274
   0.06603550  0.60896317  0.21721433
   0.01547763  0.66403191  0.88794251
   0.94069783  0.70801586  0.55550917
   0.85261110  0.73285532  0.22342833
   0.80734948  0.78124726  0.88295193
   0.30309788  0.57623323  0.55823687
   0.21807696  0.61433287  0.21557724
   0.14470768  0.65742595  0.87938329
   0.07166527  0.70043533  0.55070654
   0.00782765  0.74319756  0.22482530
   0.95062937  0.79269654  0.88118708
   0.86292366  0.83136657  0.54393423
   0.34568332  0.61839472  0.22787138
   0.29181041  0.66547755  0.89525383
   0.21389797  0.69384705  0.54932427
   0.15941887  0.75104796  0.23362767
   0.08956879  0.79751863  0.89610770
   0.00804463  0.83751647  0.55534364
   0.91979574  0.86956098  0.22038510
   0.43196951  0.68176383  0.90583546
   0.37114145  0.70481223  0.56390102
   0.28869935  0.74455407  0.21509383
   0.20776167  0.80406127  0.89118381
   0.15909577  0.83266261  0.54909725
   0.07762544  0.86731699  0.21058573
   0.01474721  0.91939847  0.88778663
   0.92726772  0.97564419  0.55239968
   0.86809559  0.00235707  0.22488162
   0.79881540  0.00787973  0.88414296
   0.72605657  0.06219908  0.54409833
   0.63395763  0.10893538  0.23273384
   0.57166335  0.16364778  0.87778104
   0.51714495  0.20271619  0.57754955
   0.08069837  0.97459087  0.55396248
   0.13485707  0.98182751  0.22814679
   0.21220625  0.06322474  0.88990425
   0.28206734  0.08689290  0.55865579
   0.35074332  0.13870790  0.23018141
   0.42539226  0.17964023  0.90234055
   0.85575384  0.90326365  0.86890302
   0.78553669  0.96178614  0.56680328
   0.72364882  0.01086336  0.22390167
   0.65583744  0.03741741  0.88366136
   0.56945385  0.10412631  0.55249591
   0.50536424  0.11666275  0.20080716
   0.15119953  0.92929447  0.87433691
   0.22545671  0.95774804  0.55334493
   0.28390279  0.99924837  0.23428092
   0.34030521  0.05713645  0.90066695
   0.43760989  0.07792583  0.57098777
   0.76772448  0.87191766  0.22454351
   0.73000556  0.92267975  0.88214336
   0.62516188  0.97340691  0.53920681
   0.57330697  0.01520763  0.22864254
   0.47721542  0.03571287  0.90053527
   0.22892483  0.86267147  0.22492604
   0.28970217  0.92531287  0.87392774
   0.35354628  0.96759335  0.53852409
   0.41569363  0.99687358  0.25224435
   0.72102336  0.83415724  0.54354255
   0.63661287  0.88711074  0.21072219
   0.58212013  0.90687591  0.89123553
   0.50149324  0.97315590  0.55303494
   0.27101741  0.81852921  0.54864079
   0.36434355  0.86881129  0.23005938
   0.43606769  0.93074587  0.88729700
   0.66485481  0.78667125  0.87257619
   0.57603953  0.82006374  0.52499179
   0.49781041  0.87977331  0.20378813
   0.34231152  0.81225335  0.88133206
   0.42193853  0.80433342  0.53135410
   0.56658269  0.74708866  0.22474311
   0.50141565  0.79752249  0.87526854
   0.44008289  0.73669228  0.22898345
   0.50603841  0.70581200  0.54386840
