 504 504   0   0
  0.2235424E+02  0.2214114E-08  0.2191405E-08  0.2322030E-08  0.5000000E-15
  1.000000000000000E-004
  CAR 
 Li                                      
      2.97577673     -3.53998068  301      0.15297343      1.00000000
     -3.540  0.0000E+00  0.0000E+00
     -3.518  0.0000E+00  0.0000E+00
     -3.497  0.0000E+00  0.0000E+00
     -3.475  0.0000E+00  0.0000E+00
     -3.453  0.0000E+00  0.0000E+00
     -3.431  0.0000E+00  0.0000E+00
     -3.410  0.5367E-13  0.1166E-14
     -3.388  0.1315E-09  0.2856E-11
     -3.366  0.1154E-06  0.2510E-08
     -3.345  0.3641E-04  0.7934E-06
     -3.323  0.4157E-02  0.9109E-04
     -3.301  0.1735E+00  0.3860E-02
     -3.279  0.2682E+01  0.6211E-01
     -3.258  0.1555E+02  0.3999E+00
     -3.236  0.3428E+02  0.1144E+01
     -3.214  0.2893E+02  0.1773E+01
     -3.192  0.1005E+02  0.1991E+01
     -3.171  0.9198E+01  0.2191E+01
     -3.149  0.3790E+02  0.3014E+01
     -3.127  0.8278E+02  0.4812E+01
     -3.106  0.8855E+02  0.6735E+01
     -3.084  0.4632E+02  0.7741E+01
     -3.062  0.1577E+02  0.8084E+01
     -3.040  0.2999E+02  0.8735E+01
     -3.019  0.7522E+02  0.1037E+02
     -2.997  0.9129E+02  0.1235E+02
     -2.975  0.5688E+02  0.1359E+02
     -2.954  0.2667E+02  0.1417E+02
     -2.932  0.3967E+02  0.1503E+02
     -2.910  0.7573E+02  0.1667E+02
     -2.888  0.1000E+03  0.1885E+02
     -2.867  0.9062E+02  0.2081E+02
     -2.845  0.5286E+02  0.2196E+02
     -2.823  0.5011E+02  0.2305E+02
     -2.802  0.9700E+02  0.2516E+02
     -2.780  0.1386E+03  0.2817E+02
     -2.758  0.1370E+03  0.3114E+02
     -2.736  0.9015E+02  0.3310E+02
     -2.715  0.4032E+02  0.3397E+02
     -2.693  0.3758E+02  0.3479E+02
     -2.671  0.7446E+02  0.3641E+02
     -2.649  0.9111E+02  0.3839E+02
     -2.628  0.6912E+02  0.3989E+02
     -2.606  0.5699E+02  0.4113E+02
     -2.584  0.7314E+02  0.4271E+02
     -2.563  0.9890E+02  0.4486E+02
     -2.541  0.1181E+03  0.4743E+02
     -2.519  0.1232E+03  0.5010E+02
     -2.497  0.1091E+03  0.5247E+02
     -2.476  0.1055E+03  0.5476E+02
     -2.454  0.1253E+03  0.5748E+02
     -2.432  0.1546E+03  0.6084E+02
     -2.411  0.1744E+03  0.6463E+02
     -2.389  0.1538E+03  0.6797E+02
     -2.367  0.1006E+03  0.7016E+02
     -2.345  0.6022E+02  0.7146E+02
     -2.324  0.4917E+02  0.7253E+02
     -2.302  0.6759E+02  0.7400E+02
     -2.280  0.7270E+02  0.7558E+02
     -2.259  0.7286E+02  0.7716E+02
     -2.237  0.1087E+03  0.7952E+02
     -2.215  0.1416E+03  0.8260E+02
     -2.193  0.1477E+03  0.8581E+02
     -2.172  0.1369E+03  0.8878E+02
     -2.150  0.1155E+03  0.9129E+02
     -2.128  0.1053E+03  0.9358E+02
     -2.107  0.1240E+03  0.9627E+02
     -2.085  0.1587E+03  0.9972E+02
     -2.063  0.1880E+03  0.1038E+03
     -2.041  0.1814E+03  0.1077E+03
     -2.020  0.1287E+03  0.1105E+03
     -1.998  0.6269E+02  0.1119E+03
     -1.976  0.5366E+02  0.1131E+03
     -1.954  0.1085E+03  0.1154E+03
     -1.933  0.1535E+03  0.1188E+03
     -1.911  0.1495E+03  0.1220E+03
     -1.889  0.1379E+03  0.1250E+03
     -1.868  0.1473E+03  0.1282E+03
     -1.846  0.1643E+03  0.1318E+03
     -1.824  0.1715E+03  0.1355E+03
     -1.802  0.1599E+03  0.1390E+03
     -1.781  0.1376E+03  0.1419E+03
     -1.759  0.1310E+03  0.1448E+03
     -1.737  0.1398E+03  0.1478E+03
     -1.716  0.1557E+03  0.1512E+03
     -1.694  0.1686E+03  0.1549E+03
     -1.672  0.1580E+03  0.1583E+03
     -1.650  0.1233E+03  0.1610E+03
     -1.629  0.9438E+02  0.1630E+03
     -1.607  0.9702E+02  0.1651E+03
     -1.585  0.1141E+03  0.1676E+03
     -1.564  0.1177E+03  0.1702E+03
     -1.542  0.1294E+03  0.1730E+03
     -1.520  0.1515E+03  0.1763E+03
     -1.498  0.1522E+03  0.1796E+03
     -1.477  0.1506E+03  0.1828E+03
     -1.455  0.1628E+03  0.1864E+03
     -1.433  0.1693E+03  0.1901E+03
     -1.411  0.1727E+03  0.1938E+03
     -1.390  0.1917E+03  0.1980E+03
     -1.368  0.2144E+03  0.2026E+03
     -1.346  0.2232E+03  0.2075E+03
     -1.325  0.2159E+03  0.2122E+03
     -1.303  0.2002E+03  0.2165E+03
     -1.281  0.1844E+03  0.2205E+03
     -1.259  0.1637E+03  0.2241E+03
     -1.238  0.1459E+03  0.2272E+03
     -1.216  0.1333E+03  0.2301E+03
     -1.194  0.1162E+03  0.2327E+03
     -1.173  0.1267E+03  0.2354E+03
     -1.151  0.1596E+03  0.2389E+03
     -1.129  0.1711E+03  0.2426E+03
     -1.107  0.1608E+03  0.2461E+03
     -1.086  0.1559E+03  0.2495E+03
     -1.064  0.1717E+03  0.2532E+03
     -1.042  0.1937E+03  0.2574E+03
     -1.021  0.2004E+03  0.2618E+03
     -0.999  0.1875E+03  0.2658E+03
     -0.977  0.1616E+03  0.2694E+03
     -0.955  0.1437E+03  0.2725E+03
     -0.934  0.1583E+03  0.2759E+03
     -0.912  0.1750E+03  0.2797E+03
     -0.890  0.1586E+03  0.2832E+03
     -0.869  0.1491E+03  0.2864E+03
     -0.847  0.1616E+03  0.2899E+03
     -0.825  0.1861E+03  0.2939E+03
     -0.803  0.2202E+03  0.2987E+03
     -0.782  0.2355E+03  0.3038E+03
     -0.760  0.2177E+03  0.3086E+03
     -0.738  0.2074E+03  0.3131E+03
     -0.716  0.2148E+03  0.3177E+03
     -0.695  0.2236E+03  0.3226E+03
     -0.673  0.2341E+03  0.3277E+03
     -0.651  0.2319E+03  0.3327E+03
     -0.630  0.2092E+03  0.3373E+03
     -0.608  0.1759E+03  0.3411E+03
     -0.586  0.1577E+03  0.3445E+03
     -0.564  0.1725E+03  0.3483E+03
     -0.543  0.1865E+03  0.3523E+03
     -0.521  0.1731E+03  0.3561E+03
     -0.499  0.1644E+03  0.3596E+03
     -0.478  0.1888E+03  0.3637E+03
     -0.456  0.2159E+03  0.3684E+03
     -0.434  0.2112E+03  0.3730E+03
     -0.412  0.1898E+03  0.3771E+03
     -0.391  0.1857E+03  0.3812E+03
     -0.369  0.2011E+03  0.3855E+03
     -0.347  0.2285E+03  0.3905E+03
     -0.326  0.2531E+03  0.3960E+03
     -0.304  0.2675E+03  0.4018E+03
     -0.282  0.2694E+03  0.4077E+03
     -0.260  0.2481E+03  0.4130E+03
     -0.239  0.2185E+03  0.4178E+03
     -0.217  0.1989E+03  0.4221E+03
     -0.195  0.2069E+03  0.4266E+03
     -0.174  0.2207E+03  0.4314E+03
     -0.152  0.2138E+03  0.4360E+03
     -0.130  0.2082E+03  0.4406E+03
     -0.108  0.2194E+03  0.4453E+03
     -0.087  0.2170E+03  0.4500E+03
     -0.065  0.1992E+03  0.4544E+03
     -0.043  0.1856E+03  0.4584E+03
     -0.021  0.1862E+03  0.4624E+03
      0.000  0.2033E+03  0.4669E+03
      0.022  0.2257E+03  0.4718E+03
      0.044  0.2271E+03  0.4767E+03
      0.065  0.2257E+03  0.4816E+03
      0.087  0.2365E+03  0.4867E+03
      0.109  0.2476E+03  0.4921E+03
      0.131  0.2608E+03  0.4978E+03
      0.152  0.2773E+03  0.5038E+03
      0.174  0.2955E+03  0.5102E+03
      0.196  0.3037E+03  0.5168E+03
      0.217  0.2942E+03  0.5232E+03
      0.239  0.2888E+03  0.5295E+03
      0.261  0.2959E+03  0.5359E+03
      0.283  0.2956E+03  0.5423E+03
      0.304  0.2839E+03  0.5485E+03
      0.326  0.2755E+03  0.5545E+03
      0.348  0.2697E+03  0.5603E+03
      0.369  0.2625E+03  0.5660E+03
      0.391  0.2591E+03  0.5717E+03
      0.413  0.2517E+03  0.5771E+03
      0.435  0.2418E+03  0.5824E+03
      0.456  0.2314E+03  0.5874E+03
      0.478  0.2209E+03  0.5922E+03
      0.500  0.2195E+03  0.5970E+03
      0.522  0.2242E+03  0.6018E+03
      0.543  0.2249E+03  0.6067E+03
      0.565  0.2206E+03  0.6115E+03
      0.587  0.2154E+03  0.6162E+03
      0.608  0.2161E+03  0.6209E+03
      0.630  0.2237E+03  0.6257E+03
      0.652  0.2221E+03  0.6306E+03
      0.674  0.2147E+03  0.6352E+03
      0.695  0.2186E+03  0.6400E+03
      0.717  0.2343E+03  0.6451E+03
      0.739  0.2459E+03  0.6504E+03
      0.760  0.2420E+03  0.6557E+03
      0.782  0.2367E+03  0.6608E+03
      0.804  0.2407E+03  0.6660E+03
      0.826  0.2469E+03  0.6714E+03
      0.847  0.2499E+03  0.6768E+03
      0.869  0.2531E+03  0.6823E+03
      0.891  0.2512E+03  0.6878E+03
      0.912  0.2403E+03  0.6930E+03
      0.934  0.2337E+03  0.6981E+03
      0.956  0.2292E+03  0.7031E+03
      0.978  0.2214E+03  0.7079E+03
      0.999  0.2200E+03  0.7126E+03
      1.021  0.2199E+03  0.7174E+03
      1.043  0.2132E+03  0.7221E+03
      1.064  0.2143E+03  0.7267E+03
      1.086  0.2215E+03  0.7315E+03
      1.108  0.2178E+03  0.7362E+03
      1.130  0.2115E+03  0.7408E+03
      1.151  0.2106E+03  0.7454E+03
      1.173  0.2159E+03  0.7501E+03
      1.195  0.2298E+03  0.7551E+03
      1.217  0.2376E+03  0.7603E+03
      1.238  0.2341E+03  0.7653E+03
      1.260  0.2292E+03  0.7703E+03
      1.282  0.2279E+03  0.7753E+03
      1.303  0.2255E+03  0.7802E+03
      1.325  0.2234E+03  0.7850E+03
      1.347  0.2247E+03  0.7899E+03
      1.369  0.2274E+03  0.7948E+03
      1.390  0.2275E+03  0.7998E+03
      1.412  0.2235E+03  0.8046E+03
      1.434  0.2251E+03  0.8095E+03
      1.455  0.2321E+03  0.8146E+03
      1.477  0.2284E+03  0.8195E+03
      1.499  0.2178E+03  0.8242E+03
      1.521  0.2205E+03  0.8290E+03
      1.542  0.2346E+03  0.8341E+03
      1.564  0.2338E+03  0.8392E+03
      1.586  0.2196E+03  0.8440E+03
      1.607  0.2074E+03  0.8485E+03
      1.629  0.2003E+03  0.8528E+03
      1.651  0.1992E+03  0.8572E+03
      1.673  0.2041E+03  0.8616E+03
      1.694  0.2039E+03  0.8660E+03
      1.716  0.1977E+03  0.8703E+03
      1.738  0.1899E+03  0.8744E+03
      1.760  0.1837E+03  0.8784E+03
      1.781  0.1797E+03  0.8823E+03
      1.803  0.1793E+03  0.8862E+03
      1.825  0.1791E+03  0.8901E+03
      1.846  0.1842E+03  0.8941E+03
      1.868  0.1930E+03  0.8983E+03
      1.890  0.1838E+03  0.9023E+03
      1.912  0.1697E+03  0.9060E+03
      1.933  0.1666E+03  0.9096E+03
      1.955  0.1672E+03  0.9132E+03
      1.977  0.1674E+03  0.9169E+03
      1.998  0.1686E+03  0.9205E+03
      2.020  0.1656E+03  0.9241E+03
      2.042  0.1590E+03  0.9276E+03
      2.064  0.1544E+03  0.9309E+03
      2.085  0.1514E+03  0.9342E+03
      2.107  0.1497E+03  0.9375E+03
      2.129  0.1487E+03  0.9407E+03
      2.150  0.1490E+03  0.9440E+03
      2.172  0.1477E+03  0.9472E+03
      2.194  0.1455E+03  0.9503E+03
      2.216  0.1493E+03  0.9536E+03
      2.237  0.1558E+03  0.9569E+03
      2.259  0.1604E+03  0.9604E+03
      2.281  0.1573E+03  0.9638E+03
      2.302  0.1493E+03  0.9671E+03
      2.324  0.1485E+03  0.9703E+03
      2.346  0.1498E+03  0.9736E+03
      2.368  0.1497E+03  0.9768E+03
      2.389  0.1368E+03  0.9798E+03
      2.411  0.1134E+03  0.9822E+03
      2.433  0.1150E+03  0.9847E+03
      2.455  0.1266E+03  0.9875E+03
      2.476  0.1269E+03  0.9903E+03
      2.498  0.1242E+03  0.9930E+03
      2.520  0.1202E+03  0.9956E+03
      2.541  0.1166E+03  0.9981E+03
      2.563  0.1078E+03  0.1000E+04
      2.585  0.9427E+02  0.1002E+04
      2.607  0.7955E+02  0.1004E+04
      2.628  0.7751E+02  0.1006E+04
      2.650  0.8159E+02  0.1008E+04
      2.672  0.6633E+02  0.1009E+04
      2.693  0.3205E+02  0.1010E+04
      2.715  0.8059E+01  0.1010E+04
      2.737  0.9804E+00  0.1010E+04
      2.759  0.5302E-01  0.1010E+04
      2.780  0.1170E-02  0.1010E+04
      2.802  0.9916E-05  0.1010E+04
      2.824  0.3111E-07  0.1010E+04
      2.845  0.3544E-10  0.1010E+04
      2.867  0.1534E-13  0.1010E+04
      2.889  0.0000E+00  0.1010E+04
      2.911  0.0000E+00  0.1010E+04
      2.932  0.0000E+00  0.1010E+04
      2.954  0.0000E+00  0.1010E+04
      2.976  0.0000E+00  0.1010E+04
