       N       E                     dE             d eps       ncg     rms          rms(c)
DAV:   1    -0.311392680551E+03   -0.31139E+03   -0.11898E+05  4040   0.647E+02
DAV:   2    -0.883441144479E+03   -0.57205E+03   -0.52361E+03  4636   0.645E+01
DAV:   3    -0.925049015644E+03   -0.41608E+02   -0.38114E+02  5200   0.138E+01
DAV:   4    -0.926515244991E+03   -0.14662E+01   -0.14432E+01  4728   0.281E+00
DAV:   5    -0.926550088681E+03   -0.34844E-01   -0.34773E-01  4872   0.457E-01    0.892E+00
DAV:   6    -0.928448145511E+03   -0.18981E+01   -0.10129E+01  4832   0.496E+00    0.876E+00
DAV:   7    -0.916477806564E+03    0.11970E+02   -0.10196E+01  4968   0.458E+00    0.454E+00
DAV:   8    -0.915077760168E+03    0.14000E+01   -0.53349E+00  4712   0.234E+00    0.306E+00
DAV:   9    -0.914654791431E+03    0.42297E+00   -0.29172E+00  4736   0.183E+00    0.231E+00
DAV:  10    -0.914010651624E+03    0.64414E+00   -0.13688E+00  4648   0.116E+00    0.110E+00
DAV:  11    -0.913990355196E+03    0.20296E-01   -0.47912E-01  4400   0.532E-01    0.660E-01
DAV:  12    -0.913989846682E+03    0.50851E-03   -0.10973E-01  4952   0.367E-01    0.550E-01
DAV:  13    -0.913964013485E+03    0.25833E-01   -0.37638E-02  4728   0.232E-01    0.299E-01
DAV:  14    -0.913966373353E+03   -0.23599E-02   -0.14923E-02  4768   0.156E-01    0.252E-01
DAV:  15    -0.913959586770E+03    0.67866E-02   -0.10591E-02  4744   0.122E-01    0.121E-01
DAV:  16    -0.913958756316E+03    0.83045E-03   -0.38436E-03  4472   0.588E-02    0.596E-02
DAV:  17    -0.913958975744E+03   -0.21943E-03   -0.10602E-03  4672   0.373E-02    0.545E-02
DAV:  18    -0.913958592193E+03    0.38355E-03   -0.56627E-04  4640   0.275E-02    0.239E-02
DAV:  19    -0.913958560648E+03    0.31545E-04   -0.17192E-04  4512   0.128E-02    0.139E-02
DAV:  20    -0.913958551058E+03    0.95898E-05   -0.67210E-05  4536   0.799E-03
   1 F= -.91395855E+03 E0= -.91389392E+03  d E =-.129272E+00
