Li                                      
           1
   -11.070570   19.174790    0.000000
   -18.978120  -10.957023    0.000000
     0.000000    0.000000   23.220300
   Li
   504
Direct configuration=     1
   0.00814825  0.98117808  0.00257497
   0.93304446  0.04573185  0.66354420
   0.87506572  0.10260464  0.32660400
   0.78291770  0.12392889  0.98650772
   0.71368183  0.14989917  0.66368116
   0.64760363  0.20373074  0.33164081
   0.56108564  0.20778912  0.98216810
   0.50852517  0.30140712  0.64856764
   0.41712979  0.33406997  0.31130407
   0.35178028  0.39112729  0.99810028
   0.28803054  0.42073072  0.66579277
   0.20620446  0.48122601  0.33456080
   0.04173975  0.03948212  0.64775306
   0.02863489  0.10145722  0.33962838
   0.91685263  0.11366203  0.00497944
   0.83708999  0.15907824  0.68409494
   0.80260419  0.22062198  0.34051846
   0.71144371  0.23589063  0.99956402
   0.65505108  0.27473154  0.65003838
   0.57806661  0.30524114  0.33238430
   0.50086049  0.34568371  0.99503772
   0.43219287  0.41494342  0.67849944
   0.34197639  0.48581305  0.34086582
   0.27941162  0.48646498  0.02409011
   0.17621079  0.10033997  0.33920262
   0.08140279  0.13690597  0.02223421
   0.97629146  0.16636575  0.65454303
   0.93379496  0.23110962  0.32199293
   0.84647141  0.23061167  0.00573036
   0.76686800  0.27657753  0.66240171
   0.70096767  0.34005561  0.33045270
   0.63466732  0.32254433  0.99373095
   0.56922717  0.43490646  0.65811256
   0.49402997  0.46234200  0.31587976
   0.44606555  0.49525673  0.01217377
   0.35247158  0.54949731  0.66305188
   0.22722158  0.12812606  0.00543688
   0.11652717  0.14430802  0.66781622
   0.06650494  0.21718762  0.33800952
   0.99785649  0.24269619  0.99975076
   0.90200996  0.27306197  0.65947722
   0.86088445  0.35990608  0.33303527
   0.78926608  0.35262515  0.00332845
   0.71376700  0.41033139  0.64924364
   0.65898852  0.45478304  0.32155627
   0.57791879  0.46847319  0.99949347
   0.49084087  0.55011603  0.68025821
   0.42705439  0.58619493  0.34890605
   0.28600786  0.17150033  0.66467915
   0.21283901  0.24399816  0.31163540
   0.13623419  0.25620209  0.02660929
   0.05788351  0.26607668  0.67564861
   0.99413196  0.32947730  0.33341157
   0.91301104  0.37030760  0.00474647
   0.85015235  0.41332737  0.66432018
   0.77986298  0.47581511  0.31792558
   0.70168250  0.46373404  0.00508442
   0.64810101  0.52585070  0.64689482
   0.57709676  0.56532809  0.33870682
   0.50397938  0.62322945  0.99470518
   0.37170555  0.21434967  0.32074297
   0.29866215  0.24659319  0.99617540
   0.19654056  0.27909406  0.65428202
   0.12960535  0.35933295  0.34307262
   0.06953727  0.36545974  0.99001519
   0.99366114  0.39234498  0.69263272
   0.92705146  0.46730069  0.33573373
   0.84936759  0.49072072  0.99814874
   0.79486260  0.55873477  0.66495698
   0.71764399  0.58717044  0.32334061
   0.64766374  0.60271280  0.99065225
   0.56568203  0.66054294  0.68285138
   0.41928074  0.23754014  0.97635099
   0.35214312  0.29751720  0.66800231
   0.29180920  0.33797981  0.35339349
   0.21774306  0.36994176  0.01376298
   0.12892016  0.40101665  0.66462700
   0.06107749  0.47020168  0.34287683
   0.98826541  0.48630858  0.00470531
   0.92594649  0.54869808  0.67166111
   0.85095171  0.59557982  0.32980573
   0.78805925  0.59969297  0.98840357
   0.71110265  0.68211295  0.67531083
   0.62047451  0.71208040  0.32276744
   0.15248233  0.48645473  0.99046762
   0.03697252  0.52716768  0.66380215
   0.98800691  0.59714241  0.35206297
   0.91545677  0.62696013  0.00505956
   0.84105663  0.66514653  0.66117026
   0.78183694  0.71662517  0.32064290
   0.70394360  0.73069489  0.99610063
   0.20562202  0.52469452  0.66957494
   0.12801102  0.59381107  0.33042229
   0.09063213  0.61793171  0.02546366
   0.00452960  0.66525120  0.67026016
   0.94423902  0.73312298  0.32964170
   0.85619125  0.72157374  0.00630383
   0.79317834  0.80389419  0.68704220
   0.28989664  0.62134151  0.34538028
   0.22405382  0.61127287  0.98769478
   0.13439575  0.66189244  0.69181775
   0.06079060  0.73643451  0.31965721
   0.01226249  0.74303346  0.99920808
   0.93383209  0.77883862  0.64772785
   0.87221658  0.85370713  0.33180631
   0.37696779  0.61141864  0.00502744
   0.30112600  0.66471659  0.67195299
   0.21765244  0.71055304  0.34107330
   0.15585828  0.74241870  0.00695139
   0.06221025  0.80602370  0.66526757
   0.01288138  0.84147217  0.34814831
   0.92835843  0.84956764  0.00460679
   0.43152897  0.66203252  0.65417656
   0.35853734  0.72765068  0.33183052
   0.28829229  0.74727612  0.00218744
   0.19461153  0.77538541  0.66378360
   0.15492500  0.85533082  0.35015687
   0.08519188  0.87287189  0.99879317
   0.98776556  0.90317549  0.65775322
   0.95445601  0.98518334  0.34857190
   0.87062926  0.98472405  0.98917289
   0.79217120  0.05561884  0.67619488
   0.71448588  0.10657774  0.33022130
   0.65047983  0.10775332  0.98818457
   0.56562624  0.16281785  0.65744053
   0.51339390  0.20830767  0.32600868
   0.08049594  0.98263372  0.34209959
   0.15627100  0.02543736  0.01988808
   0.21651058  0.04265769  0.67387295
   0.30772677  0.11653303  0.33373998
   0.35935290  0.12089737  0.98140377
   0.43824087  0.17601720  0.67124270
   0.86426941  0.91657315  0.66359700
   0.82023970  0.97948459  0.34320849
   0.73584210  0.98107259  0.00655684
   0.61962447  0.04090932  0.66547928
   0.58279665  0.07674906  0.32733544
   0.51713489  0.11877727  0.96958125
   0.13380527  0.93434233  0.65783703
   0.21162941  0.97813573  0.32981936
   0.29237838  0.98580126  0.99253185
   0.35813833  0.04766411  0.66814952
   0.43541658  0.10166659  0.33815675
   0.81391385  0.85172306  0.99588150
   0.68601620  0.93361475  0.67176898
   0.66506873  0.97441596  0.34758717
   0.57813866  0.98227859  0.00054638
   0.48915105  0.02186416  0.64918015
   0.22866575  0.88253892  0.00518385
   0.26350062  0.92294834  0.65809684
   0.37908272  0.97444382  0.30874640
   0.43038406  0.01237533  0.99693751
   0.71106219  0.82346870  0.34154788
   0.65720329  0.85268854  0.00107722
   0.56730034  0.92509981  0.68520117
   0.52702913  0.98172616  0.34595209
   0.30283409  0.85798200  0.33764757
   0.36904673  0.88644934  0.99415468
   0.41546810  0.90250410  0.66524474
   0.63557347  0.79038311  0.66472938
   0.56908208  0.86327383  0.32527718
   0.51891123  0.88481027  0.00262093
   0.34920934  0.78666475  0.67322734
   0.44935283  0.83608447  0.35166170
   0.55128458  0.73662131  0.00259398
   0.47967224  0.77969333  0.65732333
   0.41386335  0.75803387  0.01843469
   0.49442404  0.71527607  0.34342317
   0.02273759  0.98406064  0.76059782
   0.93045969  0.04417012  0.44484961
   0.85420757  0.08123200  0.11665387
   0.77528190  0.08906935  0.78653788
   0.73091059  0.17393353  0.44175470
   0.63039538  0.21486931  0.08994481
   0.58800400  0.25089846  0.76074508
   0.51648071  0.29374708  0.43776143
   0.41680123  0.33704851  0.09249288
   0.35953900  0.37368734  0.78738530
   0.26898472  0.40526899  0.44284258
   0.21113561  0.45534682  0.11563414
   0.08067255  0.03556604  0.44955683
   0.99802272  0.05590438  0.11407582
   0.91161213  0.10394833  0.76439736
   0.85623096  0.16988358  0.44125780
   0.76902063  0.19315469  0.10757989
   0.71331116  0.23488195  0.77153485
   0.65804339  0.29724869  0.42997290
   0.57597601  0.33571283  0.10002747
   0.52724149  0.35169892  0.77634725
   0.41278026  0.41640790  0.42885248
   0.36302184  0.46310995  0.12683921
   0.28167426  0.49466170  0.77217427
   0.15755265  0.08250706  0.12464287
   0.07932315  0.14170711  0.78655042
   0.00880324  0.18217326  0.44434148
   0.93855194  0.20834714  0.11883265
   0.84450555  0.24546804  0.77284375
   0.76755548  0.30286560  0.41851354
   0.68025991  0.32299070  0.11229457
   0.66305711  0.37152943  0.75424943
   0.59821156  0.41307777  0.42688007
   0.49470948  0.45316626  0.11049036
   0.43100008  0.46357036  0.77932557
   0.35486266  0.53904949  0.44699264
   0.23200975  0.14650582  0.77597807
   0.14129267  0.17148764  0.44585122
   0.07188512  0.19826017  0.14804838
   0.97798804  0.22140234  0.78113265
   0.89992483  0.27837832  0.44195347
   0.84918322  0.31643081  0.11589717
   0.79345156  0.37139413  0.78357764
   0.74679221  0.42848278  0.45422412
   0.62441780  0.44904816  0.11740043
   0.57030744  0.49749881  0.77933893
   0.49489561  0.52980629  0.45847033
   0.41359080  0.56662035  0.13432987
   0.29520790  0.16688255  0.43683281
   0.22799081  0.20289630  0.11748902
   0.16276801  0.26562402  0.76620762
   0.06017051  0.29804919  0.45075369
   0.99261966  0.32519226  0.10546013
   0.92659249  0.34649568  0.76192686
   0.85136638  0.43081903  0.44048313
   0.76687640  0.45302520  0.09980175
   0.72088038  0.49692083  0.76691888
   0.63167464  0.55246648  0.45298770
   0.55741812  0.58856992  0.10246906
   0.49072677  0.62206776  0.79217693
   0.37153599  0.21394573  0.11903549
   0.29325629  0.26624739  0.79291699
   0.20530173  0.29817672  0.44213197
   0.13435099  0.33391163  0.13825181
   0.06257229  0.35057892  0.77937521
   0.99216198  0.40820226  0.43991006
   0.91952518  0.44283354  0.09711925
   0.85995098  0.50722311  0.76783974
   0.77195630  0.55089563  0.42811428
   0.71345998  0.57400045  0.10547985
   0.63805815  0.60621726  0.76524993
   0.54751314  0.67675525  0.44146708
   0.44348221  0.25785114  0.75112647
   0.36026192  0.29822437  0.43258132
   0.29072072  0.34041688  0.11436558
   0.21778967  0.38630872  0.75631595
   0.14151791  0.42918561  0.43929449
   0.08788170  0.44615553  0.11096650
   0.00639306  0.48074257  0.78815590
   0.91494295  0.54968493  0.44108784
   0.87585226  0.57273266  0.09331165
   0.78761534  0.61791442  0.77122771
   0.72201318  0.66425076  0.44095909
   0.63783040  0.70305315  0.11032939
   0.14588326  0.48762410  0.78789454
   0.06818909  0.54295318  0.45072769
   0.98976919  0.57681885  0.09996893
   0.92501881  0.63790977  0.77559152
   0.86963048  0.66491443  0.43936254
   0.78660258  0.68920747  0.11014262
   0.69419327  0.74301119  0.79248863
   0.20606067  0.54994724  0.43219125
   0.15854655  0.57807341  0.11660398
   0.07183597  0.60240645  0.78649636
   0.99005719  0.66495348  0.44304175
   0.93123162  0.69816880  0.12196531
   0.85023619  0.76509712  0.78178637
   0.79519341  0.79578778  0.45437439
   0.28217462  0.58564177  0.11232219
   0.21924926  0.63425370  0.77817024
   0.12949199  0.67072508  0.43882322
   0.05959556  0.68927075  0.12488861
   0.00569288  0.73978783  0.77880490
   0.92569340  0.79375770  0.43801553
   0.88425377  0.82808233  0.14034691
   0.35151457  0.61927659  0.77802651
   0.30041032  0.67718266  0.46191852
   0.21197529  0.70518093  0.11635732
   0.16199319  0.73717576  0.79061840
   0.06058033  0.79381799  0.44599109
   0.01854105  0.83247654  0.14411411
   0.94827531  0.85731764  0.77801241
   0.44516040  0.67463501  0.44186473
   0.35209884  0.70025321  0.11927244
   0.28901871  0.75269338  0.80410944
   0.21923715  0.79916315  0.44806679
   0.16886277  0.84487005  0.11228516
   0.09086517  0.85920749  0.78983196
   0.01303817  0.92050720  0.44383855
   0.93306744  0.95914104  0.11208869
   0.86314693  0.99859755  0.77888533
   0.76566752  0.04975468  0.44630660
   0.71850825  0.09889845  0.12275022
   0.64690541  0.11681216  0.76495240
   0.56687423  0.17144967  0.42453933
   0.51353699  0.21649511  0.08343390
   0.10126575  0.96916492  0.12902911
   0.14235370  0.00692937  0.78280116
   0.23056704  0.04953069  0.45586206
   0.29110397  0.08344544  0.11579807
   0.37826925  0.11636923  0.74845843
   0.42557051  0.17319103  0.43430163
   0.87069552  0.91179290  0.46638304
   0.79833206  0.94495369  0.10709666
   0.70185665  0.99273964  0.76101362
   0.63346890  0.04843001  0.44630172
   0.55899607  0.07780387  0.10354139
   0.49845993  0.13013238  0.74803569
   0.15199592  0.90324693  0.45023166
   0.23063057  0.96138478  0.11573038
   0.29483756  0.98743230  0.78349715
   0.34880223  0.03756127  0.45925029
   0.42317732  0.08067931  0.09296287
   0.78927100  0.88584233  0.79330152
   0.74834611  0.91004895  0.44601184
   0.64203997  0.97296101  0.09234455
   0.55030752  0.98823178  0.77667673
   0.50545257  0.06341545  0.43131143
   0.20644421  0.85881491  0.78302870
   0.29596284  0.92141309  0.42646928
   0.36548755  0.96676774  0.09949633
   0.43196730  0.99387337  0.77664091
   0.70884114  0.82208771  0.12400129
   0.62784851  0.87326763  0.79540776
   0.59158708  0.91965159  0.44468320
   0.51839158  0.95239659  0.11536399
   0.29333369  0.83254141  0.10720588
   0.35729851  0.86969336  0.76501981
   0.44320917  0.94791957  0.44092566
   0.63755473  0.78163557  0.45116344
   0.58797974  0.83808863  0.12313698
   0.47221169  0.87393984  0.77621423
   0.38397887  0.79860447  0.45588063
   0.44072834  0.81963960  0.10463983
   0.57143992  0.73255011  0.78729144
   0.52658893  0.80578325  0.45844482
   0.43556899  0.73951155  0.76729761
   0.50681087  0.71603143  0.12268912
   0.02594271  0.01084089  0.23372229
   0.95095502  0.02902985  0.87618515
   0.84433721  0.10036356  0.57154992
   0.78424460  0.13163620  0.25131086
   0.72458726  0.14692151  0.88565587
   0.64889565  0.20735828  0.54457111
   0.59938195  0.24874663  0.19839674
   0.48999703  0.26889768  0.86813583
   0.42840711  0.33583681  0.55281929
   0.34991985  0.36966729  0.24260894
   0.28119499  0.42941455  0.89683070
   0.20316581  0.47170954  0.56182132
   0.09701860  0.06040633  0.90024926
   0.00570735  0.11326493  0.52331341
   0.91606609  0.11768874  0.21736816
   0.85562462  0.16863921  0.87117309
   0.78074400  0.23944139  0.54800223
   0.72023517  0.23632053  0.22360823
   0.63946054  0.27586199  0.86205826
   0.56241623  0.33582736  0.55576228
   0.48796459  0.34826444  0.20772315
   0.43004965  0.40499180  0.88596842
   0.37665132  0.45593953  0.55780524
   0.27635301  0.48762172  0.21829885
   0.13196224  0.09990577  0.55666486
   0.09006566  0.13307604  0.22995945
   0.98750308  0.15495798  0.88280616
   0.90350285  0.21611919  0.54966900
   0.86263149  0.24370891  0.22509364
   0.77538803  0.27195699  0.89373913
   0.71173881  0.36037799  0.54981131
   0.63074366  0.36938136  0.23377643
   0.58649244  0.39783299  0.88745765
   0.48115354  0.47184760  0.56007636
   0.43151719  0.48915921  0.22209226
   0.36399352  0.52150861  0.90528509
   0.23537324  0.12420711  0.22811185
   0.14053815  0.19217209  0.89943412
   0.05584744  0.22067393  0.54654752
   0.00383520  0.26099771  0.22767060
   0.91053779  0.30563879  0.90552090
   0.84602836  0.36594754  0.55053540
   0.76651298  0.38398569  0.21042032
   0.70822110  0.40955581  0.89619081
   0.63498686  0.45017914  0.54117114
   0.54746239  0.49014357  0.21127587
   0.49192980  0.53761521  0.89158894
   0.40208535  0.58687561  0.54902530
   0.28804407  0.16134985  0.87938073
   0.22476944  0.22085333  0.55041560
   0.15378514  0.24704737  0.21214678
   0.05474266  0.27018440  0.88818190
   0.98534965  0.32612858  0.55982110
   0.93468949  0.40441026  0.21755923
   0.84748660  0.42289199  0.88093413
   0.78158625  0.49295333  0.54416843
   0.68429381  0.49797407  0.21222638
   0.63195436  0.52198903  0.88610331
   0.53009921  0.58044546  0.56127278
   0.51843949  0.60924484  0.25385060
   0.35775189  0.22126847  0.57037668
   0.30253580  0.25571130  0.21432628
   0.22234560  0.29968628  0.90019863
   0.13317682  0.35359178  0.55477459
   0.06038249  0.37449165  0.23897315
   0.99720610  0.40298395  0.89495355
   0.92173481  0.47135258  0.55855086
   0.86159844  0.51909591  0.19584886
   0.76872083  0.55298661  0.88201802
   0.67614178  0.59384683  0.54487565
   0.63443052  0.62045805  0.22241196
   0.57824866  0.64600529  0.88388086
   0.45288701  0.24742258  0.20681000
   0.35298786  0.30421151  0.88701078
   0.28959810  0.32786849  0.55741931
   0.20833218  0.36954271  0.23727550
   0.13111800  0.42605432  0.88357167
   0.05391208  0.44388797  0.55060059
   0.00903359  0.50264845  0.22685797
   0.91161499  0.53980641  0.88909943
   0.85429733  0.60057655  0.54744589
   0.75964490  0.60948178  0.21599046
   0.69542042  0.65978199  0.88040909
   0.60849667  0.71800880  0.56116489
   0.14046851  0.49187301  0.23325723
   0.07047571  0.53222095  0.91611779
   0.98955036  0.58466075  0.56162479
   0.92706638  0.64206640  0.21693501
   0.84824474  0.67481504  0.89016094
   0.76215777  0.69238266  0.55363609
   0.68327723  0.74735760  0.20791685
   0.22990166  0.53064372  0.88755025
   0.14135832  0.57599448  0.54775424
   0.08049186  0.60641114  0.23737339
   0.00910096  0.67193765  0.89720729
   0.90739720  0.72398800  0.53840446
   0.83127841  0.76954285  0.20790966
   0.77693188  0.79647792  0.89619042
   0.27470526  0.57749149  0.55025860
   0.22401060  0.61919174  0.22640495
   0.13878603  0.65783782  0.89471850
   0.05291459  0.72551296  0.56085705
   0.98741893  0.76674920  0.22519733
   0.94538897  0.76611106  0.87833952
   0.85631389  0.82618630  0.57395785
   0.36431179  0.62131292  0.22765042
   0.29365776  0.65883776  0.90555973
   0.17829147  0.70541036  0.56856584
   0.13961596  0.75388483  0.21591104
   0.07834145  0.80147878  0.89340893
   0.98682513  0.83838129  0.53227766
   0.94006418  0.90214481  0.22732682
   0.43662205  0.68213434  0.89486808
   0.35289441  0.71765193  0.55841230
   0.28719871  0.77618340  0.21374379
   0.21805663  0.80115190  0.90360137
   0.11630790  0.84029565  0.55139819
   0.09736197  0.89080146  0.24626616
   0.01236851  0.91891578  0.87733714
   0.93579711  0.96571551  0.56740703
   0.87300535  0.00125680  0.23957257
   0.79878991  0.01211453  0.89307460
   0.68943812  0.07538069  0.55766887
   0.62919850  0.12117784  0.21928212
   0.57839855  0.14848823  0.88114821
   0.50414991  0.21404082  0.51783588
   0.05781941  0.95920412  0.55457695
   0.15053124  0.00860725  0.22425881
   0.21434099  0.03992435  0.87598114
   0.28856026  0.10123046  0.57740748
   0.35861212  0.12926766  0.22646147
   0.40624325  0.14571309  0.84432767
   0.88438745  0.91169080  0.89134248
   0.80343410  0.97162585  0.58355380
   0.73221898  0.99716979  0.22660193
   0.64718228  0.04051819  0.88287370
   0.55613157  0.09158622  0.55025640
   0.47816756  0.14867126  0.20587794
   0.13088216  0.92200496  0.91275752
   0.20465820  0.95184026  0.56950176
   0.30579431  0.00680902  0.23130149
   0.35869683  0.03629921  0.88405775
   0.42800474  0.08519485  0.55723808
   0.79264012  0.86534871  0.25306533
   0.73247237  0.91158130  0.88267449
   0.63829496  0.96851266  0.56108309
   0.59792774  0.99383776  0.21810741
   0.49963610  0.03494554  0.87881840
   0.24702251  0.89602509  0.22981634
   0.28198902  0.91972477  0.88526784
   0.33131485  0.96010636  0.55784313
   0.45993037  0.02578177  0.22003195
   0.71743780  0.82225149  0.53986246
   0.67167961  0.89470746  0.22206909
   0.58916024  0.91031920  0.89342317
   0.50070185  0.97258720  0.55502147
   0.27425361  0.83673397  0.54845434
   0.37012059  0.88336320  0.22536626
   0.42656012  0.91166110  0.90544029
   0.63206398  0.78044387  0.90508304
   0.57831658  0.84019207  0.56804793
   0.48676681  0.87401429  0.23176123
   0.34810304  0.80558345  0.88850981
   0.43696088  0.84345630  0.54699828
   0.54743501  0.76238268  0.23267424
   0.50098148  0.80577790  0.88009922
   0.42205815  0.77034252  0.23768214
   0.48545946  0.71452426  0.54793963
