 432 432   0   0
  0.2159961E+02  0.2105280E-08  0.2105280E-08  0.2105280E-08  0.5000000E-15
  1.000000000000000E-004
  CAR 
 Li                                      
      3.38643946     -3.51549394  301      0.25382916      1.00000000
     -3.515  0.0000E+00  0.0000E+00
     -3.492  0.0000E+00  0.0000E+00
     -3.469  0.0000E+00  0.0000E+00
     -3.446  0.0000E+00  0.0000E+00
     -3.423  0.0000E+00  0.0000E+00
     -3.400  0.0000E+00  0.0000E+00
     -3.377  0.4826E-14  0.1110E-15
     -3.354  0.2589E-10  0.5957E-12
     -3.331  0.4144E-07  0.9540E-09
     -3.308  0.2101E-04  0.4844E-06
     -3.285  0.3406E-02  0.7885E-04
     -3.262  0.1788E+00  0.4192E-02
     -3.239  0.3090E+01  0.7527E-01
     -3.216  0.1792E+02  0.4875E+00
     -3.193  0.3547E+02  0.1304E+01
     -3.170  0.2417E+02  0.1860E+01
     -3.147  0.5748E+01  0.1992E+01
     -3.124  0.3034E+01  0.2062E+01
     -3.101  0.2283E+02  0.2587E+01
     -3.078  0.7604E+02  0.4336E+01
     -3.055  0.9851E+02  0.6603E+01
     -3.032  0.5010E+02  0.7755E+01
     -3.009  0.1024E+02  0.7991E+01
     -2.986  0.6967E+01  0.8151E+01
     -2.963  0.3952E+02  0.9060E+01
     -2.940  0.9405E+02  0.1122E+02
     -2.917  0.8603E+02  0.1320E+02
     -2.894  0.3044E+02  0.1390E+02
     -2.871  0.6235E+01  0.1405E+02
     -2.848  0.2201E+02  0.1455E+02
     -2.825  0.8430E+02  0.1649E+02
     -2.802  0.1310E+03  0.1951E+02
     -2.779  0.8402E+02  0.2144E+02
     -2.756  0.2278E+02  0.2196E+02
     -2.733  0.1336E+02  0.2227E+02
     -2.710  0.6462E+02  0.2376E+02
     -2.687  0.1584E+03  0.2740E+02
     -2.664  0.1747E+03  0.3142E+02
     -2.641  0.8947E+02  0.3348E+02
     -2.618  0.2126E+02  0.3397E+02
     -2.595  0.1132E+02  0.3423E+02
     -2.572  0.4845E+02  0.3534E+02
     -2.549  0.9769E+02  0.3759E+02
     -2.526  0.7776E+02  0.3938E+02
     -2.503  0.2450E+02  0.3995E+02
     -2.480  0.1111E+02  0.4020E+02
     -2.457  0.5293E+02  0.4142E+02
     -2.434  0.1412E+03  0.4467E+02
     -2.411  0.1767E+03  0.4873E+02
     -2.388  0.1079E+03  0.5122E+02
     -2.365  0.3377E+02  0.5199E+02
     -2.342  0.3482E+02  0.5279E+02
     -2.319  0.1225E+03  0.5561E+02
     -2.296  0.2292E+03  0.6088E+02
     -2.273  0.2311E+03  0.6620E+02
     -2.250  0.1270E+03  0.6912E+02
     -2.227  0.3514E+02  0.6993E+02
     -2.204  0.1647E+02  0.7031E+02
     -2.181  0.5654E+02  0.7161E+02
     -2.158  0.9868E+02  0.7388E+02
     -2.135  0.6982E+02  0.7549E+02
     -2.112  0.2175E+02  0.7599E+02
     -2.089  0.2138E+02  0.7648E+02
     -2.066  0.8695E+02  0.7848E+02
     -2.043  0.1826E+03  0.8268E+02
     -2.020  0.1911E+03  0.8708E+02
     -1.997  0.1002E+03  0.8938E+02
     -1.974  0.3001E+02  0.9007E+02
     -1.951  0.4492E+02  0.9111E+02
     -1.928  0.1413E+03  0.9436E+02
     -1.905  0.2377E+03  0.9983E+02
     -1.882  0.2209E+03  0.1049E+03
     -1.859  0.1080E+03  0.1074E+03
     -1.836  0.2818E+02  0.1080E+03
     -1.813  0.3531E+02  0.1089E+03
     -1.790  0.1167E+03  0.1115E+03
     -1.767  0.1844E+03  0.1158E+03
     -1.744  0.1341E+03  0.1189E+03
     -1.721  0.4969E+02  0.1200E+03
     -1.698  0.4981E+02  0.1212E+03
     -1.675  0.1387E+03  0.1243E+03
     -1.652  0.2295E+03  0.1296E+03
     -1.629  0.2197E+03  0.1347E+03
     -1.606  0.1147E+03  0.1373E+03
     -1.583  0.3853E+02  0.1382E+03
     -1.560  0.6968E+02  0.1398E+03
     -1.537  0.1837E+03  0.1440E+03
     -1.514  0.2528E+03  0.1499E+03
     -1.491  0.1853E+03  0.1541E+03
     -1.468  0.7013E+02  0.1557E+03
     -1.445  0.2336E+02  0.1563E+03
     -1.422  0.6369E+02  0.1577E+03
     -1.399  0.1524E+03  0.1612E+03
     -1.376  0.1738E+03  0.1652E+03
     -1.353  0.9417E+02  0.1674E+03
     -1.330  0.2588E+02  0.1680E+03
     -1.307  0.2581E+02  0.1686E+03
     -1.284  0.8970E+02  0.1707E+03
     -1.261  0.1615E+03  0.1744E+03
     -1.238  0.1537E+03  0.1779E+03
     -1.215  0.8824E+02  0.1799E+03
     -1.192  0.9458E+02  0.1821E+03
     -1.169  0.2010E+03  0.1867E+03
     -1.146  0.2946E+03  0.1935E+03
     -1.123  0.3214E+03  0.2009E+03
     -1.100  0.2540E+03  0.2068E+03
     -1.077  0.1231E+03  0.2096E+03
     -1.054  0.7893E+02  0.2114E+03
     -1.031  0.1589E+03  0.2151E+03
     -1.008  0.2301E+03  0.2204E+03
     -0.985  0.1970E+03  0.2249E+03
     -0.962  0.1037E+03  0.2273E+03
     -0.939  0.3776E+02  0.2281E+03
     -0.916  0.6012E+02  0.2295E+03
     -0.893  0.1579E+03  0.2332E+03
     -0.870  0.2103E+03  0.2380E+03
     -0.847  0.1338E+03  0.2411E+03
     -0.824  0.5081E+02  0.2422E+03
     -0.801  0.8046E+02  0.2441E+03
     -0.778  0.1987E+03  0.2487E+03
     -0.755  0.2898E+03  0.2553E+03
     -0.732  0.2659E+03  0.2615E+03
     -0.709  0.1645E+03  0.2652E+03
     -0.686  0.1089E+03  0.2677E+03
     -0.663  0.1063E+03  0.2702E+03
     -0.640  0.6266E+02  0.2716E+03
     -0.617  0.1760E+02  0.2720E+03
     -0.594  0.2601E+02  0.2726E+03
     -0.571  0.1037E+03  0.2750E+03
     -0.548  0.2213E+03  0.2801E+03
     -0.525  0.2757E+03  0.2864E+03
     -0.502  0.2431E+03  0.2920E+03
     -0.479  0.1897E+03  0.2964E+03
     -0.456  0.1595E+03  0.3001E+03
     -0.433  0.1571E+03  0.3037E+03
     -0.410  0.1919E+03  0.3081E+03
     -0.387  0.2351E+03  0.3135E+03
     -0.364  0.2692E+03  0.3197E+03
     -0.341  0.2701E+03  0.3259E+03
     -0.318  0.1914E+03  0.3303E+03
     -0.295  0.1074E+03  0.3328E+03
     -0.272  0.1030E+03  0.3352E+03
     -0.249  0.1238E+03  0.3380E+03
     -0.226  0.1340E+03  0.3411E+03
     -0.203  0.1191E+03  0.3438E+03
     -0.180  0.1331E+03  0.3469E+03
     -0.157  0.2209E+03  0.3520E+03
     -0.134  0.3099E+03  0.3591E+03
     -0.111  0.3467E+03  0.3671E+03
     -0.088  0.3033E+03  0.3741E+03
     -0.065  0.1877E+03  0.3784E+03
     -0.042  0.9012E+02  0.3805E+03
     -0.019  0.1133E+03  0.3831E+03
      0.004  0.2053E+03  0.3878E+03
      0.027  0.2583E+03  0.3937E+03
      0.051  0.2403E+03  0.3993E+03
      0.074  0.1555E+03  0.4028E+03
      0.097  0.8841E+02  0.4049E+03
      0.120  0.1034E+03  0.4072E+03
      0.143  0.1325E+03  0.4103E+03
      0.166  0.1770E+03  0.4144E+03
      0.189  0.2225E+03  0.4195E+03
      0.212  0.2024E+03  0.4241E+03
      0.235  0.1775E+03  0.4282E+03
      0.258  0.1994E+03  0.4328E+03
      0.281  0.2350E+03  0.4382E+03
      0.304  0.2536E+03  0.4440E+03
      0.327  0.2639E+03  0.4501E+03
      0.350  0.2570E+03  0.4560E+03
      0.373  0.2020E+03  0.4607E+03
      0.396  0.1219E+03  0.4635E+03
      0.419  0.1093E+03  0.4660E+03
      0.442  0.1689E+03  0.4699E+03
      0.465  0.2171E+03  0.4749E+03
      0.488  0.2283E+03  0.4801E+03
      0.511  0.2312E+03  0.4854E+03
      0.534  0.2511E+03  0.4912E+03
      0.557  0.2812E+03  0.4977E+03
      0.580  0.2962E+03  0.5045E+03
      0.603  0.2936E+03  0.5113E+03
      0.626  0.2894E+03  0.5179E+03
      0.649  0.2707E+03  0.5242E+03
      0.672  0.2460E+03  0.5298E+03
      0.695  0.2372E+03  0.5353E+03
      0.718  0.2523E+03  0.5411E+03
      0.741  0.2649E+03  0.5472E+03
      0.764  0.2688E+03  0.5534E+03
      0.787  0.2661E+03  0.5595E+03
      0.810  0.2546E+03  0.5653E+03
      0.833  0.2249E+03  0.5705E+03
      0.856  0.1942E+03  0.5750E+03
      0.879  0.2147E+03  0.5799E+03
      0.902  0.2517E+03  0.5857E+03
      0.925  0.2598E+03  0.5917E+03
      0.948  0.2613E+03  0.5977E+03
      0.971  0.2709E+03  0.6039E+03
      0.994  0.2734E+03  0.6102E+03
      1.017  0.2519E+03  0.6160E+03
      1.040  0.1922E+03  0.6204E+03
      1.063  0.1363E+03  0.6236E+03
      1.086  0.1501E+03  0.6270E+03
      1.109  0.1996E+03  0.6316E+03
      1.132  0.2352E+03  0.6370E+03
      1.155  0.2410E+03  0.6426E+03
      1.178  0.2069E+03  0.6473E+03
      1.201  0.1347E+03  0.6504E+03
      1.224  0.7025E+02  0.6520E+03
      1.247  0.7855E+02  0.6539E+03
      1.270  0.1416E+03  0.6571E+03
      1.293  0.1648E+03  0.6609E+03
      1.316  0.1187E+03  0.6636E+03
      1.339  0.9717E+02  0.6659E+03
      1.362  0.1397E+03  0.6691E+03
      1.385  0.1767E+03  0.6731E+03
      1.408  0.1955E+03  0.6776E+03
      1.431  0.2062E+03  0.6824E+03
      1.454  0.1971E+03  0.6869E+03
      1.477  0.1692E+03  0.6908E+03
      1.500  0.1376E+03  0.6940E+03
      1.523  0.1254E+03  0.6969E+03
      1.546  0.1372E+03  0.7000E+03
      1.569  0.1580E+03  0.7037E+03
      1.592  0.1844E+03  0.7079E+03
      1.615  0.2042E+03  0.7126E+03
      1.638  0.2090E+03  0.7174E+03
      1.661  0.1936E+03  0.7219E+03
      1.684  0.1817E+03  0.7260E+03
      1.707  0.2020E+03  0.7307E+03
      1.730  0.2231E+03  0.7358E+03
      1.753  0.2124E+03  0.7407E+03
      1.776  0.1963E+03  0.7452E+03
      1.799  0.1865E+03  0.7495E+03
      1.822  0.1645E+03  0.7533E+03
      1.845  0.1536E+03  0.7568E+03
      1.868  0.1747E+03  0.7609E+03
      1.891  0.1832E+03  0.7651E+03
      1.914  0.1699E+03  0.7690E+03
      1.937  0.1536E+03  0.7725E+03
      1.960  0.1401E+03  0.7757E+03
      1.983  0.1315E+03  0.7788E+03
      2.006  0.1188E+03  0.7815E+03
      2.029  0.8255E+02  0.7834E+03
      2.052  0.5684E+02  0.7847E+03
      2.075  0.8727E+02  0.7867E+03
      2.098  0.1283E+03  0.7897E+03
      2.121  0.1375E+03  0.7928E+03
      2.144  0.9714E+02  0.7951E+03
      2.167  0.3524E+02  0.7959E+03
      2.190  0.5577E+01  0.7960E+03
      2.213  0.4098E+01  0.7961E+03
      2.236  0.2752E+02  0.7967E+03
      2.259  0.7791E+02  0.7985E+03
      2.282  0.9198E+02  0.8006E+03
      2.305  0.4760E+02  0.8017E+03
      2.328  0.1077E+02  0.8020E+03
      2.351  0.1002E+01  0.8020E+03
      2.374  0.1024E+00  0.8020E+03
      2.397  0.1248E+01  0.8020E+03
      2.420  0.9399E+01  0.8022E+03
      2.443  0.3466E+02  0.8030E+03
      2.466  0.7481E+02  0.8048E+03
      2.489  0.1075E+03  0.8072E+03
      2.512  0.1209E+03  0.8100E+03
      2.535  0.1145E+03  0.8127E+03
      2.558  0.9513E+02  0.8148E+03
      2.581  0.7967E+02  0.8167E+03
      2.604  0.7556E+02  0.8184E+03
      2.627  0.1033E+03  0.8208E+03
      2.650  0.1376E+03  0.8240E+03
      2.673  0.1546E+03  0.8275E+03
      2.696  0.1634E+03  0.8313E+03
      2.719  0.1575E+03  0.8349E+03
      2.742  0.1421E+03  0.8382E+03
      2.765  0.1195E+03  0.8409E+03
      2.788  0.9749E+02  0.8432E+03
      2.811  0.7976E+02  0.8450E+03
      2.834  0.6407E+02  0.8465E+03
      2.857  0.4817E+02  0.8476E+03
      2.880  0.4069E+02  0.8485E+03
      2.903  0.5374E+02  0.8497E+03
      2.926  0.6520E+02  0.8512E+03
      2.949  0.8160E+02  0.8531E+03
      2.972  0.1126E+03  0.8557E+03
      2.995  0.1180E+03  0.8584E+03
      3.018  0.1007E+03  0.8607E+03
      3.041  0.9083E+02  0.8628E+03
      3.064  0.7838E+02  0.8646E+03
      3.087  0.4487E+02  0.8657E+03
      3.110  0.1262E+02  0.8660E+03
      3.133  0.1493E+01  0.8660E+03
      3.156  0.6787E-01  0.8660E+03
      3.179  0.1112E-02  0.8660E+03
      3.202  0.6262E-05  0.8660E+03
      3.225  0.1169E-07  0.8660E+03
      3.248  0.7079E-11  0.8660E+03
      3.271  0.0000E+00  0.8660E+03
      3.294  0.0000E+00  0.8660E+03
      3.317  0.0000E+00  0.8660E+03
      3.340  0.0000E+00  0.8660E+03
      3.363  0.0000E+00  0.8660E+03
      3.386  0.0000E+00  0.8660E+03
