       N       E                     dE             d eps       ncg     rms          rms(c)
DAV:   1    -0.280658866239E+03   -0.28066E+03   -0.10280E+05  3464   0.649E+02
DAV:   2    -0.772299894658E+03   -0.49164E+03   -0.44986E+03  4012   0.650E+01
DAV:   3    -0.806717958021E+03   -0.34418E+02   -0.31453E+02  4360   0.137E+01
DAV:   4    -0.807865185889E+03   -0.11472E+01   -0.11319E+01  3888   0.275E+00
DAV:   5    -0.807890558303E+03   -0.25372E-01   -0.25347E-01  4088   0.438E-01    0.671E+00
DAV:   6    -0.807732491876E+03    0.15807E+00   -0.56835E+00  3992   0.389E+00    0.606E+00
DAV:   7    -0.802190787449E+03    0.55417E+01   -0.54684E+00  4000   0.341E+00    0.309E+00
DAV:   8    -0.801377707554E+03    0.81308E+00   -0.26146E+00  3856   0.153E+00    0.174E+00
DAV:   9    -0.801200630524E+03    0.17708E+00   -0.12542E+00  3776   0.922E-01    0.932E-01
DAV:  10    -0.801227707353E+03   -0.27077E-01   -0.20355E-01  4024   0.517E-01    0.766E-01
DAV:  11    -0.801166359556E+03    0.61348E-01   -0.87308E-02  3960   0.374E-01    0.395E-01
DAV:  12    -0.801161821349E+03    0.45382E-02   -0.29280E-02  3696   0.146E-01    0.161E-01
DAV:  13    -0.801162146364E+03   -0.32501E-03   -0.59764E-03  3896   0.839E-02    0.102E-01
DAV:  14    -0.801161409618E+03    0.73675E-03   -0.17575E-03  3856   0.572E-02    0.631E-02
DAV:  15    -0.801161060927E+03    0.34869E-03   -0.55732E-04  3832   0.303E-02    0.323E-02
DAV:  16    -0.801160983196E+03    0.77731E-04   -0.38531E-04  3688   0.167E-02    0.109E-02
DAV:  17    -0.801160987599E+03   -0.44031E-05   -0.49184E-05  4048   0.851E-03
   1 F= -.80116099E+03 E0= -.80111316E+03  d E =-.956564E-01
