Li                                      
           1
    21.052800    0.000000    0.000000
     0.000000   21.052800    0.000000
     0.000000    0.000000   21.052800
   Li
   432
Direct configuration=     1
   0.99458106  0.99217956  0.99426223
   0.90431528  0.07330952  0.08685885
   0.82784455  0.16143448  0.15619239
   0.75709706  0.25412872  0.23383314
   0.66580440  0.32023063  0.33609215
   0.58011731  0.40721088  0.39389061
   0.50889595  0.49261997  0.48539493
   0.41107059  0.58484104  0.57317546
   0.34288131  0.66810333  0.67332958
   0.24413287  0.76483828  0.75795765
   0.16284022  0.84029379  0.85054069
   0.10317925  0.92117658  0.91968705
   0.08684962  0.91769550  0.09447364
   0.00013723  0.99396476  0.17168705
   0.89788568  0.07932343  0.24453045
   0.82740817  0.15302578  0.31606424
   0.75454211  0.24282727  0.41510813
   0.67379895  0.32718285  0.49669383
   0.58126931  0.40746590  0.56880279
   0.49884701  0.48662759  0.65330503
   0.40817182  0.57581447  0.74527173
   0.32460410  0.66310310  0.83231627
   0.25161598  0.74978405  0.92126560
   0.19093342  0.83493817  0.01049944
   0.16660338  0.83845705  0.17214070
   0.06923667  0.92198319  0.25370699
   0.00181013  0.00081435  0.33422214
   0.90763446  0.08002141  0.40563874
   0.82609188  0.15710473  0.49608860
   0.75426880  0.23700902  0.59871834
   0.64543414  0.32826182  0.65791074
   0.57787765  0.40588540  0.74363495
   0.50526491  0.49731332  0.81324612
   0.41306018  0.58503083  0.90866935
   0.33690638  0.68401082  0.00697736
   0.25226920  0.75480365  0.10158280
   0.26089181  0.75484682  0.25165453
   0.16236254  0.85134387  0.33812861
   0.09043086  0.90418639  0.43418049
   0.00072939  0.00857516  0.50030269
   0.92130126  0.09552645  0.57758699
   0.82660274  0.14234389  0.67240744
   0.75498517  0.25579366  0.74096520
   0.68064495  0.33302131  0.82201555
   0.57952520  0.41540138  0.89765896
   0.50132370  0.49535305  0.98364923
   0.42108503  0.56982579  0.08697529
   0.35616313  0.65333027  0.16735281
   0.34472436  0.67870607  0.33840604
   0.25136416  0.74215242  0.42133691
   0.17456641  0.83776427  0.50576299
   0.07363894  0.91820093  0.58213722
   0.99771467  0.99030345  0.65667969
   0.90589711  0.06352424  0.75971019
   0.83909783  0.17658751  0.82911525
   0.74747522  0.24926757  0.92155406
   0.65157959  0.33409476  0.97871737
   0.57638474  0.42010659  0.07280945
   0.49280451  0.48796519  0.15877313
   0.41804453  0.58646991  0.24894929
   0.41685513  0.58070709  0.41033396
   0.35897006  0.68021391  0.49076945
   0.27253113  0.75078653  0.58646780
   0.17079781  0.83416624  0.67540435
   0.08451668  0.92431667  0.74605722
   0.99108661  0.99368670  0.85492230
   0.92178628  0.09846546  0.92808358
   0.82941347  0.16484029  0.01583349
   0.74214866  0.26594929  0.07886798
   0.65587355  0.32470124  0.15113298
   0.59149352  0.39374138  0.22571070
   0.50847504  0.49478534  0.32174962
   0.08254125  0.08070021  0.94232102
   0.00586193  0.17074283  0.00873185
   0.91942767  0.25498400  0.08075138
   0.83826466  0.33570827  0.16538612
   0.74871945  0.41955918  0.23754817
   0.66398274  0.49013617  0.33063027
   0.57563180  0.57718993  0.40899521
   0.50710672  0.66463554  0.50568351
   0.43795771  0.75093094  0.58677213
   0.33834715  0.82495030  0.68612139
   0.23715067  0.90851290  0.76153386
   0.15965694  0.02092820  0.83448697
   0.16580523  0.00028584  0.01851876
   0.08151877  0.08722194  0.08976874
   0.00920830  0.16930848  0.15686396
   0.92920772  0.23787443  0.24958629
   0.83977810  0.34066081  0.32343015
   0.76978810  0.40542543  0.40207394
   0.66334072  0.49285704  0.49115272
   0.58598324  0.58468423  0.57586736
   0.50614379  0.67847540  0.66191525
   0.42293679  0.75286253  0.76770680
   0.31714299  0.83933486  0.83587889
   0.24171890  0.93336472  0.92862401
   0.26716498  0.93881408  0.09824958
   0.17166224  0.99174089  0.19454553
   0.07369975  0.07974968  0.26119319
   0.99529774  0.16352873  0.33054057
   0.91903141  0.24736073  0.40611612
   0.83356696  0.32954034  0.48327513
   0.74064877  0.40612364  0.58208699
   0.66254301  0.49397145  0.65289573
   0.56728111  0.57701343  0.73889554
   0.49884214  0.66439238  0.83518025
   0.42190093  0.74473571  0.91853645
   0.33598783  0.82966897  0.01228880
   0.34973678  0.84113537  0.16645481
   0.25958633  0.91502181  0.25080061
   0.16051441  0.97720861  0.32849930
   0.09268431  0.08929234  0.41067213
   0.99603687  0.16667335  0.48961698
   0.90309281  0.24336030  0.58708001
   0.83843052  0.32406993  0.66619836
   0.75148160  0.43220404  0.74237527
   0.65025857  0.50993800  0.81546740
   0.57753771  0.57915902  0.91856780
   0.49819342  0.65693867  0.99376320
   0.43961443  0.75498310  0.08674841
   0.43690601  0.74839286  0.24284467
   0.34087404  0.83454319  0.34684946
   0.26747900  0.92945656  0.42450824
   0.16876049  0.00122067  0.50344629
   0.07623547  0.08083928  0.58452355
   0.00495780  0.16050752  0.68521867
   0.92174270  0.25289944  0.74827642
   0.84144404  0.34450628  0.83602520
   0.73864164  0.42992179  0.90787161
   0.66748607  0.50510249  0.98448839
   0.60425230  0.56550890  0.08061434
   0.50837366  0.65792636  0.14815931
   0.50903969  0.65813325  0.31581027
   0.43887778  0.74530667  0.41501692
   0.34622266  0.83470835  0.49451901
   0.24897903  0.92190465  0.58915597
   0.16722834  0.99082320  0.67397962
   0.07503862  0.07116703  0.76074155
   0.00403345  0.18497337  0.83724014
   0.92351780  0.24663438  0.91470468
   0.83994530  0.34121635  0.98661697
   0.75354323  0.42145091  0.06106585
   0.67001962  0.48455029  0.16894317
   0.60422852  0.56713934  0.23720740
   0.15531016  0.16609627  0.85418605
   0.09152989  0.25266716  0.94686633
   0.99818459  0.33654453  0.00078054
   0.91241124  0.42143358  0.08385693
   0.83762991  0.48929385  0.16803435
   0.75481031  0.56808776  0.23422078
   0.66080331  0.65774191  0.33016047
   0.58659700  0.74326983  0.41228786
   0.49726621  0.83338964  0.49708609
   0.39740845  0.91632724  0.59619295
   0.32775701  0.00270512  0.67882208
   0.25982391  0.07996935  0.76699033
   0.25808154  0.08001726  0.92955854
   0.16920794  0.15480398  0.00779258
   0.09436458  0.24834540  0.08187159
   0.98714440  0.33328702  0.16371122
   0.93055167  0.42661566  0.24434682
   0.82099448  0.50226156  0.33685627
   0.75701814  0.58224545  0.42408536
   0.66754963  0.65390662  0.50052412
   0.58073527  0.75209693  0.58716710
   0.50439892  0.84581983  0.67138993
   0.41693839  0.92112465  0.76215473
   0.33120036  0.99404350  0.83127337
   0.34061658  0.00148018  0.99646297
   0.25360671  0.07224130  0.09755034
   0.15892608  0.14725985  0.17746709
   0.09013016  0.24913450  0.25432790
   0.01780030  0.34926883  0.32836444
   0.92416486  0.41938804  0.41593171
   0.83314788  0.49476966  0.49835742
   0.75042411  0.58455145  0.58749247
   0.65432025  0.67470829  0.67283637
   0.58002530  0.74927568  0.76155932
   0.49594939  0.82237568  0.83598000
   0.42019826  0.92234715  0.91918465
   0.41792442  0.94301880  0.08646533
   0.34929795  0.00857313  0.18902028
   0.25168939  0.08357190  0.27065475
   0.16676784  0.16362080  0.33384841
   0.08676733  0.24660495  0.40279427
   0.01218976  0.32190705  0.49909497
   0.92252981  0.40886065  0.57115723
   0.83278269  0.49873240  0.64624933
   0.74915204  0.57174051  0.75339987
   0.65975801  0.67303735  0.82855905
   0.58630279  0.76532554  0.93129395
   0.48416712  0.84289045  0.00466576
   0.49604062  0.84575630  0.15116370
   0.41887535  0.89451703  0.25895406
   0.34968010  0.98733752  0.34905853
   0.26274178  0.07096808  0.41599532
   0.17323960  0.16992882  0.49930522
   0.06840516  0.25157785  0.58906898
   0.00182551  0.32623664  0.65820563
   0.92954731  0.42367213  0.72655525
   0.83380508  0.49476188  0.82403538
   0.74269250  0.59541651  0.91308355
   0.65079818  0.65722996  0.00139163
   0.57118456  0.75474925  0.07038824
   0.58447396  0.76065541  0.23789343
   0.52062919  0.85210822  0.33508991
   0.43057587  0.91510040  0.41823368
   0.35155642  0.98544350  0.49135667
   0.23522878  0.07964793  0.57704903
   0.15813861  0.17469732  0.68055913
   0.09552947  0.26945462  0.75186036
   0.00520990  0.34038302  0.83785561
   0.93666127  0.41882050  0.90847769
   0.85079892  0.51273287  0.98041580
   0.76543081  0.57583248  0.07102690
   0.67535065  0.66826241  0.16095990
   0.22317023  0.25934312  0.76300955
   0.15738287  0.32847189  0.84753984
   0.08363253  0.41557120  0.93550169
   0.97746565  0.52133362  0.98313725
   0.90292313  0.58320883  0.09224461
   0.82947998  0.66504033  0.17072953
   0.74455411  0.75511160  0.25230642
   0.65286061  0.83483829  0.32865249
   0.59974585  0.91799408  0.42745954
   0.48895227  0.00390238  0.49962347
   0.40643688  0.07759733  0.58030176
   0.31285129  0.17448411  0.67308435
   0.33009491  0.18049194  0.83170788
   0.24259221  0.26241920  0.92235059
   0.17918018  0.34628005  0.00879419
   0.07969068  0.41503810  0.08609489
   0.00330014  0.50727133  0.16409768
   0.91232624  0.58113511  0.25422173
   0.81499353  0.66857414  0.32653822
   0.73425776  0.74223138  0.41751858
   0.67959389  0.82261372  0.49538181
   0.58052275  0.91874642  0.58897186
   0.48332077  0.99703669  0.67063040
   0.41238661  0.09138747  0.75234844
   0.40270720  0.08594790  0.92138669
   0.32768552  0.17389538  0.01078785
   0.24598236  0.24006427  0.10366028
   0.16196469  0.34465844  0.15812613
   0.08276974  0.42499605  0.23893496
   0.01298089  0.51107004  0.33149892
   0.90250087  0.58721762  0.40460354
   0.83399715  0.66516462  0.50772688
   0.75923078  0.75653066  0.60156654
   0.67458560  0.81961099  0.67327194
   0.57775268  0.91464460  0.77049060
   0.49623942  0.00974734  0.84805478
   0.50617748  0.00637594  0.00488544
   0.41438209  0.07598678  0.07880919
   0.32605921  0.15978219  0.16929911
   0.24280631  0.25750047  0.25801085
   0.17202536  0.34164589  0.34049123
   0.09446494  0.42371655  0.41409169
   0.00208950  0.50640433  0.48481306
   0.90848157  0.56699439  0.57567389
   0.83133603  0.67138606  0.66692602
   0.73691987  0.74295853  0.75635912
   0.67683309  0.83302770  0.83770070
   0.58461877  0.92354840  0.92482349
   0.56635357  0.92891874  0.08101029
   0.49733989  0.01015663  0.17314723
   0.41426400  0.07435284  0.26063545
   0.34984649  0.17275466  0.33022964
   0.25016735  0.25599953  0.41271152
   0.17146178  0.33491798  0.50813721
   0.08109069  0.43508444  0.56338816
   0.00900547  0.50288701  0.65419915
   0.90548764  0.58365114  0.74767139
   0.81933761  0.65951391  0.81943032
   0.75114011  0.75728918  0.93161708
   0.67454071  0.85541347  0.01912075
   0.65335922  0.84792870  0.15318351
   0.58407701  0.93490854  0.23758411
   0.49541706  0.99972227  0.34874382
   0.41606468  0.08819361  0.41108865
   0.33916661  0.17977154  0.49736023
   0.25819230  0.26756061  0.58209378
   0.16829504  0.35114321  0.66092148
   0.09008317  0.42729505  0.75120698
   0.00421152  0.50514860  0.83061881
   0.89385077  0.59901956  0.89064209
   0.82946567  0.66467212  0.00224815
   0.74863750  0.75708702  0.07479024
   0.31734391  0.34563277  0.67803986
   0.24506497  0.41460102  0.75946384
   0.16422535  0.49417275  0.83831684
   0.08481717  0.59151193  0.92129179
   0.99073442  0.66239024  0.99736399
   0.89994348  0.73645740  0.07747446
   0.83315448  0.83582705  0.15495457
   0.73516811  0.90957184  0.25605945
   0.66299120  0.00831934  0.34253684
   0.59420892  0.08954148  0.42307411
   0.48915104  0.16413613  0.50384412
   0.41648001  0.26174073  0.58990833
   0.41655815  0.25502419  0.75000581
   0.32553807  0.34748202  0.83818716
   0.23055616  0.41993468  0.93564856
   0.16400226  0.52437432  0.01607108
   0.08112988  0.57927945  0.08564305
   0.98410472  0.67310380  0.16804029
   0.92388722  0.74423187  0.24962086
   0.83148859  0.82466833  0.32683450
   0.74952243  0.92635493  0.40940772
   0.66165639  0.00013822  0.50925374
   0.58215440  0.07188023  0.58499186
   0.49853102  0.16509216  0.67137700
   0.49877512  0.17609182  0.82953346
   0.42303925  0.24569544  0.91474898
   0.33293715  0.35533264  0.00484029
   0.26835058  0.41122193  0.10234439
   0.16488639  0.49909578  0.17521057
   0.07118187  0.59411299  0.25004070
   0.99783130  0.67228976  0.33986684
   0.91042692  0.75371038  0.40392437
   0.81560407  0.82470917  0.50100334
   0.73926385  0.89704664  0.58439210
   0.65523816  0.98283565  0.69714211
   0.56882536  0.07101984  0.76107116
   0.58012510  0.08226647  0.90312251
   0.49486364  0.15385813  0.00121853
   0.41351221  0.25525142  0.07847345
   0.32523697  0.33761335  0.18344788
   0.25077632  0.42525167  0.26485070
   0.16292369  0.50933464  0.31942721
   0.10190936  0.58775457  0.42218413
   0.00630042  0.65660982  0.49391728
   0.92334242  0.75433861  0.56753556
   0.83767678  0.82023784  0.68350604
   0.74915166  0.90662302  0.74292594
   0.65372702  0.97443892  0.84650917
   0.67319104  0.99527059  0.99268470
   0.59066570  0.06609143  0.08279610
   0.48468452  0.15272627  0.15129092
   0.42379816  0.24334659  0.22902080
   0.35139880  0.33112601  0.34253469
   0.25688635  0.44065014  0.41648561
   0.18187276  0.52736573  0.50202369
   0.09381359  0.57154652  0.57667476
   0.99602128  0.66570730  0.65252108
   0.92370684  0.75192930  0.76096486
   0.83655997  0.83795902  0.83585542
   0.76243235  0.90529956  0.90884189
   0.77650552  0.90484274  0.07988267
   0.67611706  0.99056178  0.14647892
   0.58829880  0.07207546  0.22733446
   0.51049611  0.15828089  0.32735981
   0.43120391  0.25104892  0.42235605
   0.32290179  0.33727442  0.49560355
   0.24867016  0.42188698  0.58208389
   0.17637181  0.50033536  0.66433911
   0.08004982  0.58023062  0.74474448
   0.99682247  0.66169959  0.83827789
   0.90101324  0.74665648  0.92751279
   0.84475049  0.82857340  0.99442617
   0.40015839  0.41184807  0.59100614
   0.33539293  0.49779012  0.67691067
   0.25282155  0.58528437  0.75985675
   0.16242479  0.66926817  0.83598652
   0.07764024  0.74827245  0.93210977
   0.01065027  0.83086492  0.00059741
   0.91538930  0.91632621  0.08706032
   0.83601330  0.99955099  0.16375609
   0.73803343  0.08514512  0.22818796
   0.66908162  0.15229101  0.32507988
   0.57765923  0.24146470  0.42347676
   0.48077989  0.34014051  0.49622925
   0.49321338  0.32004283  0.67432266
   0.41038976  0.40510668  0.75129997
   0.34626335  0.48662343  0.84630851
   0.26220267  0.58880668  0.92750688
   0.16781771  0.67447997  0.01095712
   0.08279230  0.74877072  0.09283009
   0.98832802  0.83471570  0.16674030
   0.90452026  0.91418093  0.23924538
   0.81875719  0.99090325  0.32239914
   0.74361620  0.07823160  0.42945110
   0.65908656  0.15208478  0.50769482
   0.56470575  0.23204652  0.56812867
   0.57606450  0.23851816  0.73750174
   0.48863819  0.32771137  0.81136613
   0.43008699  0.42081106  0.91944011
   0.33526629  0.50293459  0.00181298
   0.27093834  0.58816206  0.08815903
   0.16934051  0.68756107  0.16816967
   0.05790502  0.75613490  0.24157106
   0.99502263  0.85137135  0.34105613
   0.90569778  0.91316657  0.42992352
   0.83327284  0.99271727  0.50210854
   0.74745850  0.08254228  0.58307138
   0.66684607  0.14847489  0.66428227
   0.66584454  0.16916169  0.81655438
   0.58192274  0.23186685  0.91759415
   0.49401218  0.31724033  0.99570592
   0.40886642  0.41750982  0.07378925
   0.33284608  0.47994390  0.17025059
   0.25335569  0.58239131  0.26140609
   0.17422017  0.68296436  0.32333016
   0.08228634  0.75695961  0.42538121
   0.99526525  0.82323830  0.50033630
   0.91274655  0.91371781  0.58511626
   0.81468148  0.00947521  0.65718070
   0.73695574  0.08385360  0.75911808
   0.74192808  0.09546644  0.90541966
   0.66262641  0.16521586  0.00356174
   0.56914759  0.25422911  0.07550542
   0.48691630  0.33357673  0.17189051
   0.42364821  0.41832311  0.26375914
   0.33338026  0.49870738  0.33040662
   0.26752329  0.59449837  0.41106215
   0.18178207  0.66318231  0.49541663
   0.08851121  0.76565571  0.58392891
   0.99785930  0.82553400  0.67372741
   0.91323781  0.92650192  0.74328877
   0.82057038  0.99757774  0.83744121
   0.83265986  0.99324676  0.97985098
   0.75902705  0.08648934  0.06936267
   0.66441609  0.15782895  0.14252348
   0.58599999  0.22410809  0.22816389
   0.51628906  0.31476315  0.32993626
   0.41014143  0.43077048  0.40821254
   0.34134675  0.50453659  0.49814776
   0.28402899  0.60757746  0.58749818
   0.16256609  0.68364937  0.66540617
   0.09280813  0.75707980  0.75548294
   0.00162242  0.84151047  0.83153745
   0.91778581  0.90349535  0.91526607
