 500 500   0   0
  0.1852332E+02  0.2100050E-08  0.2100050E-08  0.2100050E-08  0.5000000E-15
  1.000000000000000E-004
  CAR 
 Li                                      
      4.01843550     -3.32910378  301      0.64421863      1.00000000
     -3.329  0.0000E+00  0.0000E+00
     -3.305  0.0000E+00  0.0000E+00
     -3.280  0.0000E+00  0.0000E+00
     -3.256  0.0000E+00  0.0000E+00
     -3.231  0.0000E+00  0.0000E+00
     -3.207  0.0000E+00  0.0000E+00
     -3.182  0.0000E+00  0.0000E+00
     -3.158  0.7389E-12  0.1810E-13
     -3.133  0.3087E-08  0.7563E-10
     -3.109  0.3500E-05  0.8580E-07
     -3.084  0.1087E-02  0.2670E-04
     -3.060  0.9379E-01  0.2324E-02
     -3.035  0.2300E+01  0.5865E-01
     -3.011  0.1645E+02  0.4616E+00
     -2.986  0.3522E+02  0.1324E+01
     -2.962  0.2287E+02  0.1884E+01
     -2.937  0.4796E+01  0.2002E+01
     -2.913  0.7417E+01  0.2183E+01
     -2.888  0.4796E+02  0.3358E+01
     -2.864  0.1022E+03  0.5862E+01
     -2.839  0.7051E+02  0.7589E+01
     -2.815  0.1597E+02  0.7980E+01
     -2.790  0.7889E+01  0.8173E+01
     -2.766  0.4644E+02  0.9311E+01
     -2.741  0.1015E+03  0.1180E+02
     -2.717  0.7214E+02  0.1356E+02
     -2.692  0.1702E+02  0.1398E+02
     -2.668  0.1005E+02  0.1423E+02
     -2.643  0.5839E+02  0.1566E+02
     -2.619  0.1303E+03  0.1885E+02
     -2.594  0.1002E+03  0.2130E+02
     -2.570  0.2700E+02  0.2196E+02
     -2.545  0.1627E+02  0.2236E+02
     -2.521  0.8476E+02  0.2444E+02
     -2.496  0.1850E+03  0.2897E+02
     -2.472  0.1526E+03  0.3270E+02
     -2.447  0.4767E+02  0.3387E+02
     -2.423  0.1090E+02  0.3414E+02
     -2.398  0.4037E+02  0.3513E+02
     -2.374  0.9577E+02  0.3747E+02
     -2.349  0.7869E+02  0.3940E+02
     -2.325  0.2292E+02  0.3996E+02
     -2.300  0.1405E+02  0.4031E+02
     -2.276  0.7522E+02  0.4215E+02
     -2.251  0.1730E+03  0.4639E+02
     -2.227  0.1595E+03  0.5029E+02
     -2.202  0.6173E+02  0.5180E+02
     -2.178  0.2784E+02  0.5248E+02
     -2.153  0.1071E+03  0.5511E+02
     -2.129  0.2392E+03  0.6096E+02
     -2.105  0.2379E+03  0.6679E+02
     -2.080  0.1085E+03  0.6945E+02
     -2.056  0.2409E+02  0.7004E+02
     -2.031  0.3015E+02  0.7078E+02
     -2.007  0.8811E+02  0.7293E+02
     -1.982  0.9054E+02  0.7515E+02
     -1.958  0.3168E+02  0.7593E+02
     -1.933  0.1527E+02  0.7630E+02
     -1.909  0.7575E+02  0.7816E+02
     -1.884  0.1869E+03  0.8274E+02
     -1.860  0.1937E+03  0.8748E+02
     -1.835  0.8698E+02  0.8961E+02
     -1.811  0.2936E+02  0.9033E+02
     -1.786  0.8879E+02  0.9250E+02
     -1.762  0.2202E+03  0.9790E+02
     -1.737  0.2479E+03  0.1040E+03
     -1.713  0.1312E+03  0.1072E+03
     -1.688  0.3344E+02  0.1080E+03
     -1.664  0.3428E+02  0.1088E+03
     -1.639  0.1235E+03  0.1119E+03
     -1.615  0.1861E+03  0.1164E+03
     -1.590  0.1155E+03  0.1192E+03
     -1.566  0.4425E+02  0.1203E+03
     -1.541  0.9412E+02  0.1226E+03
     -1.517  0.2164E+03  0.1279E+03
     -1.492  0.2441E+03  0.1339E+03
     -1.468  0.1336E+03  0.1372E+03
     -1.443  0.3778E+02  0.1381E+03
     -1.419  0.6344E+02  0.1397E+03
     -1.394  0.1970E+03  0.1445E+03
     -1.370  0.2636E+03  0.1509E+03
     -1.345  0.1589E+03  0.1548E+03
     -1.321  0.4760E+02  0.1560E+03
     -1.296  0.4725E+02  0.1572E+03
     -1.272  0.1365E+03  0.1605E+03
     -1.247  0.1779E+03  0.1649E+03
     -1.223  0.1024E+03  0.1674E+03
     -1.198  0.3875E+02  0.1683E+03
     -1.174  0.7126E+02  0.1701E+03
     -1.149  0.1278E+03  0.1732E+03
     -1.125  0.1383E+03  0.1766E+03
     -1.100  0.1032E+03  0.1791E+03
     -1.076  0.5355E+02  0.1804E+03
     -1.051  0.1134E+03  0.1832E+03
     -1.027  0.2700E+03  0.1898E+03
     -1.002  0.3592E+03  0.1986E+03
     -0.978  0.2907E+03  0.2057E+03
     -0.953  0.1462E+03  0.2093E+03
     -0.929  0.9746E+02  0.2117E+03
     -0.904  0.1923E+03  0.2164E+03
     -0.880  0.2404E+03  0.2223E+03
     -0.855  0.1632E+03  0.2263E+03
     -0.831  0.7927E+02  0.2282E+03
     -0.806  0.5384E+02  0.2296E+03
     -0.782  0.8087E+02  0.2315E+03
     -0.757  0.1712E+03  0.2357E+03
     -0.733  0.1852E+03  0.2403E+03
     -0.708  0.1400E+03  0.2437E+03
     -0.684  0.2015E+03  0.2486E+03
     -0.659  0.2468E+03  0.2547E+03
     -0.635  0.2292E+03  0.2603E+03
     -0.611  0.1639E+03  0.2643E+03
     -0.586  0.6137E+02  0.2658E+03
     -0.562  0.2136E+02  0.2663E+03
     -0.537  0.5510E+02  0.2677E+03
     -0.513  0.9182E+02  0.2699E+03
     -0.488  0.6820E+02  0.2716E+03
     -0.464  0.5710E+02  0.2730E+03
     -0.439  0.1553E+03  0.2768E+03
     -0.415  0.2767E+03  0.2836E+03
     -0.390  0.3221E+03  0.2915E+03
     -0.366  0.3213E+03  0.2993E+03
     -0.341  0.2489E+03  0.3054E+03
     -0.317  0.1579E+03  0.3093E+03
     -0.292  0.1830E+03  0.3138E+03
     -0.268  0.2684E+03  0.3203E+03
     -0.243  0.2964E+03  0.3276E+03
     -0.219  0.2316E+03  0.3333E+03
     -0.194  0.1355E+03  0.3366E+03
     -0.170  0.6677E+02  0.3382E+03
     -0.145  0.8905E+02  0.3404E+03
     -0.121  0.1529E+03  0.3442E+03
     -0.096  0.1950E+03  0.3489E+03
     -0.072  0.1891E+03  0.3536E+03
     -0.047  0.1320E+03  0.3568E+03
     -0.023  0.1441E+03  0.3603E+03
      0.002  0.1763E+03  0.3646E+03
      0.026  0.1723E+03  0.3689E+03
      0.051  0.1967E+03  0.3737E+03
      0.075  0.2439E+03  0.3797E+03
      0.100  0.2845E+03  0.3866E+03
      0.124  0.2689E+03  0.3932E+03
      0.149  0.2131E+03  0.3984E+03
      0.173  0.2148E+03  0.4037E+03
      0.198  0.2393E+03  0.4096E+03
      0.222  0.1800E+03  0.4140E+03
      0.247  0.7829E+02  0.4159E+03
      0.271  0.6961E+02  0.4176E+03
      0.296  0.1710E+03  0.4218E+03
      0.320  0.2596E+03  0.4281E+03
      0.345  0.2787E+03  0.4350E+03
      0.369  0.2557E+03  0.4412E+03
      0.394  0.2018E+03  0.4462E+03
      0.418  0.1634E+03  0.4502E+03
      0.443  0.1918E+03  0.4549E+03
      0.467  0.2177E+03  0.4602E+03
      0.492  0.2247E+03  0.4657E+03
      0.516  0.2239E+03  0.4712E+03
      0.541  0.2025E+03  0.4761E+03
      0.565  0.1828E+03  0.4806E+03
      0.590  0.2198E+03  0.4860E+03
      0.614  0.2636E+03  0.4925E+03
      0.639  0.2552E+03  0.4987E+03
      0.663  0.2163E+03  0.5040E+03
      0.688  0.2153E+03  0.5093E+03
      0.712  0.2323E+03  0.5150E+03
      0.737  0.2276E+03  0.5205E+03
      0.761  0.2078E+03  0.5256E+03
      0.786  0.2297E+03  0.5313E+03
      0.810  0.2894E+03  0.5383E+03
      0.835  0.3248E+03  0.5463E+03
      0.859  0.3365E+03  0.5545E+03
      0.883  0.3412E+03  0.5629E+03
      0.908  0.3226E+03  0.5708E+03
      0.932  0.2910E+03  0.5779E+03
      0.957  0.2752E+03  0.5847E+03
      0.981  0.2813E+03  0.5916E+03
      1.006  0.2948E+03  0.5988E+03
      1.030  0.2860E+03  0.6058E+03
      1.055  0.2339E+03  0.6115E+03
      1.079  0.1350E+03  0.6148E+03
      1.104  0.4707E+02  0.6160E+03
      1.128  0.3823E+02  0.6169E+03
      1.153  0.8940E+02  0.6191E+03
      1.177  0.1235E+03  0.6221E+03
      1.202  0.1427E+03  0.6256E+03
      1.226  0.1758E+03  0.6299E+03
      1.251  0.2023E+03  0.6349E+03
      1.275  0.2262E+03  0.6404E+03
      1.300  0.2453E+03  0.6464E+03
      1.324  0.2455E+03  0.6524E+03
      1.349  0.2258E+03  0.6580E+03
      1.373  0.2183E+03  0.6633E+03
      1.398  0.2411E+03  0.6692E+03
      1.422  0.2689E+03  0.6758E+03
      1.447  0.2853E+03  0.6828E+03
      1.471  0.2867E+03  0.6898E+03
      1.496  0.2792E+03  0.6966E+03
      1.520  0.2481E+03  0.7027E+03
      1.545  0.2132E+03  0.7079E+03
      1.569  0.2026E+03  0.7129E+03
      1.594  0.1873E+03  0.7175E+03
      1.618  0.1755E+03  0.7218E+03
      1.643  0.1901E+03  0.7264E+03
      1.667  0.1971E+03  0.7313E+03
      1.692  0.2013E+03  0.7362E+03
      1.716  0.2071E+03  0.7413E+03
      1.741  0.2140E+03  0.7465E+03
      1.765  0.2171E+03  0.7518E+03
      1.790  0.2068E+03  0.7569E+03
      1.814  0.1923E+03  0.7616E+03
      1.839  0.1724E+03  0.7658E+03
      1.863  0.1448E+03  0.7694E+03
      1.888  0.1244E+03  0.7724E+03
      1.912  0.1366E+03  0.7758E+03
      1.937  0.1668E+03  0.7799E+03
      1.961  0.1761E+03  0.7842E+03
      1.986  0.1404E+03  0.7876E+03
      2.010  0.8960E+02  0.7898E+03
      2.035  0.8368E+02  0.7919E+03
      2.059  0.1200E+03  0.7948E+03
      2.084  0.1504E+03  0.7985E+03
      2.108  0.1667E+03  0.8026E+03
      2.133  0.1987E+03  0.8074E+03
      2.157  0.2318E+03  0.8131E+03
      2.182  0.2475E+03  0.8192E+03
      2.206  0.2506E+03  0.8253E+03
      2.231  0.2483E+03  0.8314E+03
      2.255  0.2425E+03  0.8373E+03
      2.280  0.2291E+03  0.8429E+03
      2.304  0.2123E+03  0.8481E+03
      2.329  0.1977E+03  0.8530E+03
      2.353  0.2013E+03  0.8579E+03
      2.377  0.1907E+03  0.8626E+03
      2.402  0.1509E+03  0.8663E+03
      2.426  0.1235E+03  0.8693E+03
      2.451  0.1302E+03  0.8725E+03
      2.475  0.1315E+03  0.8757E+03
      2.500  0.1114E+03  0.8784E+03
      2.524  0.9467E+02  0.8808E+03
      2.549  0.1162E+03  0.8836E+03
      2.573  0.1603E+03  0.8875E+03
      2.598  0.1906E+03  0.8922E+03
      2.622  0.1738E+03  0.8965E+03
      2.647  0.1366E+03  0.8998E+03
      2.671  0.1367E+03  0.9031E+03
      2.696  0.1443E+03  0.9067E+03
      2.720  0.1262E+03  0.9098E+03
      2.745  0.1150E+03  0.9126E+03
      2.769  0.1248E+03  0.9156E+03
      2.794  0.1304E+03  0.9188E+03
      2.818  0.1247E+03  0.9219E+03
      2.843  0.1236E+03  0.9249E+03
      2.867  0.1399E+03  0.9283E+03
      2.892  0.1507E+03  0.9320E+03
      2.916  0.1509E+03  0.9357E+03
      2.941  0.1438E+03  0.9393E+03
      2.965  0.1340E+03  0.9425E+03
      2.990  0.9786E+02  0.9449E+03
      3.014  0.5748E+02  0.9463E+03
      3.039  0.6968E+02  0.9481E+03
      3.063  0.1021E+03  0.9506E+03
      3.088  0.1171E+03  0.9534E+03
      3.112  0.1296E+03  0.9566E+03
      3.137  0.1428E+03  0.9601E+03
      3.161  0.1542E+03  0.9639E+03
      3.186  0.1576E+03  0.9677E+03
      3.210  0.1623E+03  0.9717E+03
      3.235  0.1638E+03  0.9757E+03
      3.259  0.1623E+03  0.9797E+03
      3.284  0.1516E+03  0.9834E+03
      3.308  0.1112E+03  0.9861E+03
      3.333  0.5741E+02  0.9875E+03
      3.357  0.1695E+02  0.9879E+03
      3.382  0.2147E+01  0.9880E+03
      3.406  0.9671E-01  0.9880E+03
      3.431  0.1402E-02  0.9880E+03
      3.455  0.2650E-02  0.9880E+03
      3.480  0.1671E+00  0.9880E+03
      3.504  0.3343E+01  0.9881E+03
      3.529  0.2345E+02  0.9887E+03
      3.553  0.6907E+02  0.9904E+03
      3.578  0.1098E+03  0.9930E+03
      3.602  0.1176E+03  0.9959E+03
      3.627  0.1009E+03  0.9984E+03
      3.651  0.6030E+02  0.9999E+03
      3.676  0.3861E+02  0.1001E+04
      3.700  0.3412E+02  0.1002E+04
      3.725  0.1272E+02  0.1002E+04
      3.749  0.1479E+01  0.1002E+04
      3.774  0.5121E-01  0.1002E+04
      3.798  0.5142E-03  0.1002E+04
      3.823  0.1466E-05  0.1002E+04
      3.847  0.1169E-08  0.1002E+04
      3.871  0.2561E-12  0.1002E+04
      3.896  0.0000E+00  0.1002E+04
      3.920  0.0000E+00  0.1002E+04
      3.945  0.0000E+00  0.1002E+04
      3.969  0.0000E+00  0.1002E+04
      3.994  0.0000E+00  0.1002E+04
      4.018  0.0000E+00  0.1002E+04
