Li                                      
           1
    21.000500    0.000000    0.000000
     0.000000   21.000500    0.000000
     0.000000    0.000000   21.000500
   Li
   500
Direct configuration=     1
   0.00699613  0.99286014  0.00223037
   0.99055476  0.09913886  0.10170117
   0.98074707  0.20077405  0.19407036
   0.98898974  0.29446704  0.30284186
   0.99418810  0.41159628  0.39556491
   0.01720137  0.50460614  0.50137504
   0.00361971  0.60226122  0.59040360
   0.01011279  0.69911007  0.69971206
   0.00535351  0.78355052  0.82028568
   0.00188499  0.89119122  0.91258374
   0.08450396  0.00396128  0.09473183
   0.10170689  0.10147386  0.19273282
   0.10003136  0.20848105  0.29105591
   0.08897833  0.29011419  0.39424939
   0.11224282  0.39352490  0.49501033
   0.09816243  0.49171343  0.60668668
   0.10643384  0.59642274  0.69347293
   0.11308027  0.69923248  0.79937480
   0.10367170  0.79231159  0.90025899
   0.10525526  0.89320860  0.99063526
   0.20457898  0.00038160  0.19892769
   0.18657655  0.08757480  0.30835875
   0.17653483  0.19622550  0.39930520
   0.18840500  0.29761257  0.48657958
   0.17774729  0.38076359  0.58622230
   0.20564403  0.50513313  0.69945116
   0.19560384  0.58063718  0.79091514
   0.19875604  0.68350601  0.89785706
   0.22044300  0.80564848  0.99836412
   0.19512394  0.89360724  0.08978002
   0.29401600  0.99637898  0.31078724
   0.29396095  0.10561626  0.39292987
   0.28692808  0.20582768  0.49759247
   0.28924662  0.30514476  0.58872752
   0.29452119  0.38269200  0.70289926
   0.29867504  0.48817573  0.80403945
   0.30327819  0.60415827  0.88014462
   0.30754261  0.69303881  0.99509838
   0.32012434  0.81054469  0.10951880
   0.29207828  0.90818729  0.20939791
   0.39893182  0.99361144  0.39116272
   0.40918368  0.09548394  0.49337451
   0.40407241  0.20106116  0.59221401
   0.41254861  0.29343425  0.69175186
   0.39703515  0.37506534  0.78197445
   0.39690368  0.49903411  0.87727481
   0.40003190  0.57739358  0.99288119
   0.40990851  0.68420650  0.09709139
   0.38764191  0.81062164  0.20281421
   0.41164452  0.89101541  0.31329371
   0.51146956  0.01166986  0.49402225
   0.49770990  0.10177859  0.60043053
   0.49811694  0.19991112  0.68475690
   0.51614430  0.29985196  0.78770880
   0.49201088  0.40395342  0.90107589
   0.49529792  0.50431960  0.99252179
   0.51213912  0.58847327  0.11625321
   0.48080829  0.69905741  0.20846737
   0.49584373  0.79864396  0.29882636
   0.51232276  0.90544533  0.40524290
   0.59309838  0.01338234  0.60045988
   0.60708816  0.09980984  0.70851598
   0.60778737  0.19406433  0.80393429
   0.60197190  0.30428340  0.89852237
   0.60343020  0.41034279  0.98753578
   0.59709644  0.50059729  0.08722410
   0.59788405  0.60712774  0.20603859
   0.58182990  0.69825796  0.29592357
   0.59161908  0.80628318  0.40555615
   0.60078345  0.90087740  0.51864168
   0.69911407  0.00852047  0.71347497
   0.70847419  0.09307496  0.82498785
   0.68417308  0.20166285  0.91593259
   0.69263934  0.30373271  0.01195033
   0.70261478  0.40786741  0.07967279
   0.70176575  0.50866571  0.18879552
   0.70097223  0.61115047  0.31209095
   0.67373421  0.71763379  0.40432150
   0.69603026  0.80459184  0.51876083
   0.68260530  0.91047305  0.60265064
   0.79687993  0.98853729  0.80403866
   0.79074783  0.09919590  0.90754644
   0.79401444  0.19781233  0.98879684
   0.79182768  0.31197251  0.10241717
   0.79971110  0.40362747  0.20303210
   0.81243858  0.52208438  0.29357206
   0.80463336  0.61412844  0.41161879
   0.79123386  0.70675142  0.50263101
   0.77913738  0.82072333  0.61887525
   0.81269294  0.90358116  0.70664144
   0.91341776  0.00743911  0.90438405
   0.90206811  0.09218200  0.99128627
   0.89836534  0.19726142  0.09285436
   0.87207881  0.30587225  0.20596789
   0.88513746  0.40349316  0.29605097
   0.91446484  0.51352854  0.39988709
   0.91024399  0.61268945  0.48803952
   0.89051518  0.71305692  0.60942538
   0.89745409  0.78992318  0.69833623
   0.91439053  0.89924171  0.80702974
   0.09042073  0.10054433  0.00364588
   0.09651202  0.19653926  0.09261433
   0.10306897  0.29386889  0.19499607
   0.08297250  0.39484324  0.28921932
   0.10346513  0.50260281  0.39527342
   0.11414238  0.58307514  0.51047064
   0.12090192  0.70307644  0.59421099
   0.11109862  0.79652298  0.70639809
   0.10108604  0.89206489  0.80911471
   0.09444591  0.00664710  0.90517082
   0.19583349  0.08822424  0.10439846
   0.20541409  0.19870510  0.20057285
   0.18746974  0.29989456  0.31123049
   0.18838594  0.40575721  0.38992499
   0.19458091  0.49304978  0.50093153
   0.21791510  0.58278092  0.59311473
   0.20676813  0.69445758  0.67544305
   0.19428455  0.79513836  0.80651197
   0.21393890  0.89975961  0.89163256
   0.19843084  0.99068205  0.00642339
   0.30414105  0.08650705  0.21856228
   0.29298632  0.21493335  0.31443486
   0.29312950  0.29624946  0.39514498
   0.29101263  0.39536069  0.49461761
   0.30868928  0.47576495  0.60852001
   0.30917055  0.59304261  0.70852059
   0.30375396  0.69926111  0.79440942
   0.31828234  0.79343002  0.88590393
   0.31198825  0.90852014  0.99293171
   0.30226407  0.99765406  0.11515476
   0.39722317  0.09506787  0.32566914
   0.38910640  0.20443374  0.41273569
   0.39821860  0.30519465  0.50240500
   0.39559181  0.37446298  0.59758225
   0.40112203  0.49645571  0.69846560
   0.39743269  0.59195338  0.79052245
   0.40374605  0.69670218  0.88292208
   0.39218412  0.80763993  0.99776926
   0.39233572  0.89828590  0.10172737
   0.39861730  0.00105947  0.21879438
   0.50899689  0.09777965  0.40352760
   0.51032691  0.20625764  0.50419765
   0.51403040  0.29816849  0.60193545
   0.51402514  0.39132997  0.67884953
   0.50122920  0.47813452  0.78064972
   0.49414041  0.60172180  0.88537910
   0.49346337  0.68679211  0.99593115
   0.50367185  0.79404129  0.08178479
   0.49398067  0.89971618  0.19321874
   0.50519634  0.00061072  0.28880962
   0.59901422  0.10073741  0.50113604
   0.61894232  0.19156038  0.60860574
   0.60615981  0.28976259  0.70682953
   0.60700084  0.40702553  0.78922564
   0.59443320  0.50248499  0.88351884
   0.59963311  0.59419955  0.98897108
   0.59171522  0.70869920  0.09809966
   0.58950755  0.80148927  0.19568145
   0.60340168  0.89910434  0.28730603
   0.60618318  0.99169060  0.40781613
   0.70189549  0.07484186  0.59322958
   0.70717158  0.17655829  0.71152772
   0.70259991  0.30478745  0.79641574
   0.69393888  0.40097630  0.89457183
   0.70164999  0.51215616  0.97910463
   0.70076898  0.59812904  0.09375180
   0.68583542  0.69958809  0.21185861
   0.68790388  0.79510076  0.30061706
   0.70071149  0.88495882  0.40950732
   0.70589265  0.98507434  0.49475585
   0.80117024  0.09675763  0.70261075
   0.80002185  0.20079600  0.81636474
   0.79045039  0.30526494  0.89285229
   0.80543252  0.41315601  0.99509702
   0.79004022  0.50652040  0.09453822
   0.80412106  0.61567439  0.18742500
   0.78182481  0.70083564  0.29982622
   0.78452930  0.79319023  0.39583190
   0.80038190  0.90228511  0.50146844
   0.79777804  0.00071005  0.61323525
   0.89444992  0.09325439  0.79996684
   0.90124717  0.20098819  0.89195352
   0.89683989  0.31880493  0.98993971
   0.89633523  0.40232730  0.10029920
   0.90453678  0.51242727  0.18418812
   0.91247370  0.62107067  0.28620352
   0.89471267  0.71314296  0.40109650
   0.89632879  0.77898395  0.50154552
   0.90685932  0.89440261  0.59564949
   0.90623680  0.00277403  0.70169089
   0.99758120  0.10163295  0.90084687
   0.98577285  0.19046053  0.99591515
   0.99731417  0.29593248  0.09309426
   0.98356127  0.39490846  0.19419227
   0.00498918  0.51724822  0.28117549
   0.00705821  0.60869340  0.39763496
   0.00427840  0.70685600  0.51064942
   0.00824614  0.79130730  0.59810308
   0.99614776  0.89938209  0.69408158
   0.00196806  0.01054744  0.79986553
   0.20404975  0.19495191  0.00997176
   0.21027115  0.29259403  0.08871355
   0.20978563  0.39305528  0.20471039
   0.19866691  0.51040617  0.27986798
   0.21256970  0.59711133  0.41497682
   0.19893071  0.71182828  0.50689065
   0.21107399  0.81855222  0.59430523
   0.20899168  0.90169717  0.70608794
   0.19753674  0.00891556  0.80344070
   0.19528529  0.10850170  0.91073471
   0.30273533  0.17516122  0.10288054
   0.29501408  0.28841146  0.20377254
   0.28286378  0.41024360  0.30226548
   0.27491810  0.50199550  0.39765737
   0.30430382  0.59400868  0.50467619
   0.31048136  0.70638016  0.59367176
   0.29966657  0.80691695  0.69125348
   0.30448898  0.90287279  0.79103020
   0.30795106  0.99560458  0.89303637
   0.30217191  0.09157943  0.00872996
   0.39589633  0.19928793  0.22207824
   0.39643695  0.29916078  0.29995208
   0.40902866  0.40612814  0.39959735
   0.40861354  0.49089256  0.49237105
   0.39048681  0.58741117  0.60623754
   0.39912458  0.68720964  0.70606232
   0.39980032  0.80029422  0.78463232
   0.41218209  0.90507893  0.90100551
   0.39010928  0.00228945  0.00927038
   0.40522801  0.09863667  0.11545133
   0.49905402  0.18966995  0.31029670
   0.49351648  0.30407331  0.40745152
   0.51584068  0.38618619  0.50847460
   0.50417658  0.48445769  0.60828477
   0.51302193  0.59981020  0.70979430
   0.48343412  0.70938782  0.79764063
   0.49790132  0.79100546  0.90826652
   0.48732325  0.89300079  0.99172648
   0.49149590  0.01062162  0.09039565
   0.47990266  0.10244322  0.20790064
   0.61753486  0.20007152  0.39303555
   0.62186593  0.29560255  0.49721651
   0.62659485  0.39201570  0.61056799
   0.61403488  0.49435907  0.67650749
   0.59508284  0.60341164  0.78540070
   0.58749848  0.69148665  0.90433837
   0.60287988  0.80167666  0.99159427
   0.59084181  0.89436692  0.09148682
   0.59448466  0.99547981  0.18841101
   0.60388425  0.10645953  0.29675624
   0.71070813  0.19390095  0.49528410
   0.71313520  0.28836832  0.60255944
   0.70319483  0.38753979  0.69106758
   0.70510887  0.50370596  0.78823247
   0.69740693  0.60885197  0.88504219
   0.70680630  0.69008509  0.98758261
   0.69482523  0.79848920  0.09150112
   0.69212515  0.89057435  0.19491537
   0.69943079  0.99866909  0.29493423
   0.70105547  0.07976283  0.40644274
   0.79680759  0.18709327  0.58623882
   0.79074060  0.28776923  0.70033446
   0.80793246  0.40884540  0.78613748
   0.79419963  0.50780510  0.89234530
   0.80267620  0.60424353  0.99971829
   0.78703856  0.71364086  0.10219758
   0.79974359  0.80271051  0.18288632
   0.79877543  0.90017311  0.30280757
   0.81075820  0.98939757  0.37846804
   0.80379355  0.08645549  0.48861039
   0.89079939  0.20426511  0.70192994
   0.90032667  0.30106919  0.79890106
   0.90264640  0.41004839  0.88943359
   0.89967599  0.49858834  0.99946525
   0.90612948  0.60484802  0.08612431
   0.90030191  0.70550303  0.18841225
   0.89000640  0.80002021  0.29359666
   0.90690376  0.89739863  0.39885626
   0.89816217  0.99603609  0.50999753
   0.88820495  0.08831218  0.61179478
   0.99907163  0.19994974  0.80369488
   0.00154267  0.30668122  0.89067298
   0.02114256  0.40079824  0.00383739
   0.99778789  0.51165971  0.09913174
   0.01827250  0.62269238  0.19420077
   0.99467189  0.70670410  0.30111467
   0.98806180  0.80492962  0.40013840
   0.99454518  0.90825979  0.51030985
   0.98838980  0.99414845  0.62375603
   0.99025141  0.12394159  0.69033201
   0.10850415  0.19081052  0.88762454
   0.08805826  0.28701229  0.00256702
   0.11970494  0.39093621  0.10572676
   0.10228311  0.49810187  0.17887861
   0.10456107  0.61453638  0.30070157
   0.08398944  0.71136903  0.41450241
   0.10392722  0.81360683  0.49437015
   0.10543353  0.88930406  0.59551151
   0.10047754  0.00871332  0.69832361
   0.09523845  0.09865975  0.78313082
   0.29382683  0.29555177  0.00703003
   0.30180748  0.42199850  0.10084739
   0.29149632  0.50309418  0.19846656
   0.30439335  0.60313455  0.30276394
   0.31117732  0.70550280  0.40820022
   0.30683899  0.82302251  0.50052415
   0.31626694  0.91864942  0.60036937
   0.31031630  0.00598467  0.70582671
   0.30617974  0.10611821  0.79995847
   0.30445763  0.20647583  0.90818507
   0.38829619  0.30225742  0.11530145
   0.39737382  0.38672074  0.21178394
   0.39436772  0.49751867  0.30841821
   0.38841682  0.59839490  0.41205815
   0.39408331  0.71111590  0.52314699
   0.39704722  0.80089359  0.60482258
   0.39959254  0.91074516  0.69813461
   0.39919013  0.00511650  0.79917957
   0.40003819  0.10302397  0.88099561
   0.38530278  0.20036047  0.01128804
   0.50133588  0.30230438  0.20836248
   0.50186423  0.40503066  0.29369916
   0.50437861  0.49880895  0.39793357
   0.49061709  0.59457077  0.50284734
   0.49659249  0.68620973  0.60395933
   0.50534467  0.80479331  0.69889089
   0.49836018  0.90572809  0.81445864
   0.49692879  0.00076368  0.91592384
   0.48399163  0.11337335  0.01078525
   0.49277189  0.21363774  0.10586330
   0.60830519  0.30188934  0.31791034
   0.58790931  0.39681894  0.41008367
   0.59931916  0.49077863  0.50502334
   0.60447744  0.58988631  0.58476850
   0.60004406  0.68900967  0.69069485
   0.59562098  0.80235600  0.79796285
   0.60411113  0.89334899  0.91227103
   0.58240549  0.00504962  0.01031757
   0.58227780  0.10602809  0.10947007
   0.58905823  0.20231038  0.20436975
   0.70797210  0.30495036  0.40010006
   0.72390518  0.39887604  0.49718608
   0.71235443  0.49860186  0.59285648
   0.69853571  0.59197223  0.68565780
   0.70478507  0.68827431  0.78440125
   0.70404487  0.78773077  0.89537943
   0.69773607  0.90060649  0.99510810
   0.70057399  0.98656701  0.09020119
   0.70118306  0.09238250  0.18779367
   0.68816036  0.19651601  0.29291233
   0.81180835  0.30367081  0.48949235
   0.80887831  0.40088740  0.60030308
   0.80346771  0.50804435  0.68093122
   0.81289070  0.58828172  0.79646502
   0.79989268  0.69693373  0.90290045
   0.80367348  0.79970961  0.99258630
   0.80301419  0.90503356  0.07567692
   0.78798167  0.98368504  0.19821908
   0.80234207  0.09616900  0.30028118
   0.78615213  0.20158088  0.38315000
   0.90906641  0.28845637  0.58475061
   0.89381845  0.38482920  0.68312756
   0.91296996  0.49224951  0.79912895
   0.90261534  0.58518602  0.89686815
   0.90729787  0.70434815  0.00295054
   0.90276992  0.80646468  0.09469243
   0.89745004  0.89585879  0.19313414
   0.91388957  0.99755363  0.29346368
   0.90328159  0.09815684  0.39020584
   0.89993676  0.18720605  0.49217980
   0.00252062  0.29354166  0.68767466
   0.99017279  0.40137990  0.79253055
   0.00093013  0.48638633  0.91010762
   0.00299722  0.59887471  0.00496140
   0.00690820  0.68837413  0.09891416
   0.00795486  0.79038859  0.19534735
   0.99500750  0.90586416  0.28293046
   0.99032688  0.00411800  0.38920410
   0.98681165  0.08286362  0.52240255
   0.98787877  0.19242319  0.58537582
   0.09636134  0.30032285  0.78903977
   0.11192128  0.39251662  0.89443898
   0.10511685  0.49460051  0.01906014
   0.10795023  0.61164262  0.10547225
   0.11452762  0.70559040  0.20476765
   0.10617494  0.80371271  0.32126384
   0.08461018  0.89881779  0.41207012
   0.09763644  0.00521109  0.49741506
   0.09147787  0.09107210  0.59390517
   0.09272250  0.20131366  0.69737616
   0.20320261  0.28845081  0.90297172
   0.19321257  0.39608696  0.00829211
   0.20843446  0.50603387  0.10793354
   0.20103161  0.62271991  0.19619859
   0.20963603  0.70825088  0.32537328
   0.20305330  0.81499381  0.41564396
   0.20694657  0.91372567  0.49688571
   0.20592083  0.99599724  0.60131868
   0.20008766  0.10544125  0.70465093
   0.20243177  0.19674642  0.79618632
   0.40738880  0.39817479  0.01139619
   0.40301816  0.49183430  0.10132648
   0.39338516  0.58762483  0.18939297
   0.39513720  0.69743577  0.31161524
   0.39139713  0.79612900  0.40733627
   0.40667255  0.90437988  0.49049774
   0.40578316  0.01865874  0.59542785
   0.40035345  0.10828448  0.70208235
   0.41061069  0.20812280  0.80430070
   0.40791514  0.29939543  0.90208792
   0.49822538  0.39064899  0.08970303
   0.50704546  0.48828322  0.19566524
   0.48430665  0.60921034  0.30721709
   0.48618795  0.70136267  0.40933473
   0.49442781  0.81550161  0.50882314
   0.48948033  0.91984888  0.60038539
   0.50168468  0.00910194  0.71934609
   0.51516140  0.09585651  0.80077208
   0.51693582  0.20371171  0.90124907
   0.49808810  0.30076997  0.99035677
   0.62463263  0.40681322  0.19895826
   0.59647090  0.49843749  0.30400679
   0.57877663  0.61238612  0.39913607
   0.60052617  0.71195472  0.51097397
   0.58874788  0.80066817  0.61232471
   0.59993599  0.91229012  0.71174083
   0.59122352  0.00006487  0.81497224
   0.60008309  0.10034034  0.90770442
   0.60619916  0.20191184  0.00979514
   0.58871053  0.31134965  0.09463639
   0.69757911  0.41777835  0.30854206
   0.69874382  0.49579534  0.40454621
   0.69784318  0.61973546  0.50932322
   0.70162599  0.71392091  0.61509479
   0.69374175  0.80957450  0.70944420
   0.68949403  0.90239953  0.81294593
   0.68289797  0.00161716  0.91260120
   0.69114939  0.10262349  0.01371049
   0.69960622  0.20517022  0.10898671
   0.68936874  0.30807001  0.20267360
   0.80204147  0.41591084  0.39899699
   0.81079244  0.51189785  0.50544312
   0.81821143  0.62631359  0.59194470
   0.79479491  0.71521692  0.70385183
   0.81591474  0.81839155  0.80735210
   0.79873623  0.91202196  0.90903119
   0.80655839  0.01454213  0.01365142
   0.80357186  0.10622156  0.11163708
   0.80967989  0.21100561  0.20107296
   0.79028836  0.31123939  0.30349646
   0.89840297  0.42444803  0.50190525
   0.90107767  0.50901062  0.59667296
   0.90408569  0.60325649  0.69844141
   0.90495200  0.70487953  0.81196112
   0.90815739  0.78485818  0.91440828
   0.90342551  0.89539161  0.99576136
   0.89921134  0.01462113  0.11061713
   0.89189837  0.10298927  0.21440834
   0.88959838  0.20245810  0.31028353
   0.88706490  0.30335074  0.40717918
   0.00973162  0.39242690  0.61079604
   0.99687206  0.49771956  0.70437254
   0.01117247  0.59883141  0.79741965
   0.01731937  0.69149034  0.90167772
   0.99878118  0.78389878  0.99357745
   0.00767988  0.89160502  0.10214082
   0.00174662  0.99388451  0.19869288
   0.01590124  0.10748247  0.28534186
   0.00331115  0.18682313  0.40030955
   0.98630785  0.31021173  0.48542207
   0.11461452  0.40743741  0.70588304
   0.09481259  0.50148924  0.80455144
   0.10538488  0.58878705  0.91751149
   0.11944006  0.69790161  0.00554231
   0.10915669  0.80202758  0.09308519
   0.10796737  0.90530877  0.19924044
   0.09849692  0.99299425  0.31834940
   0.08125046  0.09478487  0.40807526
   0.07613976  0.19221807  0.50501484
   0.09697722  0.29326749  0.60199287
   0.19388796  0.38417435  0.80101611
   0.20185620  0.49884667  0.89910463
   0.21981325  0.58390992  0.00513783
   0.21206780  0.69645174  0.10018212
   0.19751092  0.79181349  0.20001134
   0.19613493  0.89846483  0.30581962
   0.19938182  0.00083275  0.39613027
   0.19601920  0.08914099  0.51533846
   0.19756122  0.19742339  0.60264925
   0.18838771  0.28833687  0.68874802
   0.29937493  0.38281516  0.90631494
   0.29381755  0.49680313  0.99198844
   0.30228272  0.59846556  0.09340335
   0.29871150  0.70515592  0.20456946
   0.28913106  0.80826068  0.30709663
   0.30407924  0.90839744  0.40603034
   0.29188074  0.01241048  0.49151143
   0.30740536  0.10744282  0.59313071
   0.30385747  0.19895488  0.70183279
   0.29011326  0.29526155  0.79382037
