 500 500   0   0
  0.1910214E+02  0.2121700E-08  0.2121700E-08  0.2121700E-08  0.5000000E-15
  1.000000000000000E-004
  CAR 
 Li                                      
      3.68549724     -3.35010942  301      0.55055971      1.00000000
     -3.350  0.0000E+00  0.0000E+00
     -3.327  0.0000E+00  0.0000E+00
     -3.303  0.0000E+00  0.0000E+00
     -3.280  0.0000E+00  0.0000E+00
     -3.256  0.0000E+00  0.0000E+00
     -3.233  0.0000E+00  0.0000E+00
     -3.209  0.0000E+00  0.0000E+00
     -3.186  0.8565E-11  0.2009E-12
     -3.162  0.1833E-07  0.4300E-09
     -3.139  0.1187E-04  0.2788E-06
     -3.116  0.2349E-02  0.5537E-04
     -3.092  0.1439E+00  0.3431E-02
     -3.069  0.2781E+01  0.6865E-01
     -3.045  0.1730E+02  0.4745E+00
     -3.022  0.3536E+02  0.1304E+01
     -2.998  0.2397E+02  0.1866E+01
     -2.975  0.6198E+01  0.2011E+01
     -2.951  0.1054E+02  0.2258E+01
     -2.928  0.4639E+02  0.3346E+01
     -2.905  0.8914E+02  0.5437E+01
     -2.881  0.7611E+02  0.7222E+01
     -2.858  0.2910E+02  0.7904E+01
     -2.834  0.1215E+02  0.8189E+01
     -2.811  0.3940E+02  0.9113E+01
     -2.787  0.8367E+02  0.1108E+02
     -2.764  0.8147E+02  0.1299E+02
     -2.740  0.3636E+02  0.1384E+02
     -2.717  0.1300E+02  0.1414E+02
     -2.693  0.4022E+02  0.1509E+02
     -2.670  0.1023E+03  0.1749E+02
     -2.647  0.1162E+03  0.2021E+02
     -2.623  0.6143E+02  0.2165E+02
     -2.600  0.2326E+02  0.2220E+02
     -2.576  0.5169E+02  0.2341E+02
     -2.553  0.1287E+03  0.2643E+02
     -2.529  0.1687E+03  0.3038E+02
     -2.506  0.1136E+03  0.3305E+02
     -2.482  0.3701E+02  0.3392E+02
     -2.459  0.1935E+02  0.3437E+02
     -2.435  0.6266E+02  0.3584E+02
     -2.412  0.9927E+02  0.3817E+02
     -2.389  0.6181E+02  0.3962E+02
     -2.365  0.1849E+02  0.4005E+02
     -2.342  0.3123E+02  0.4078E+02
     -2.318  0.1028E+03  0.4319E+02
     -2.295  0.1629E+03  0.4701E+02
     -2.271  0.1370E+03  0.5023E+02
     -2.248  0.6634E+02  0.5178E+02
     -2.224  0.5130E+02  0.5299E+02
     -2.201  0.1264E+03  0.5595E+02
     -2.178  0.2092E+03  0.6086E+02
     -2.154  0.2066E+03  0.6570E+02
     -2.131  0.1297E+03  0.6874E+02
     -2.107  0.5196E+02  0.6996E+02
     -2.084  0.3930E+02  0.7089E+02
     -2.060  0.7479E+02  0.7264E+02
     -2.037  0.8533E+02  0.7464E+02
     -2.013  0.4755E+02  0.7576E+02
     -1.990  0.2570E+02  0.7636E+02
     -1.966  0.7107E+02  0.7802E+02
     -1.943  0.1497E+03  0.8153E+02
     -1.920  0.1800E+03  0.8576E+02
     -1.896  0.1288E+03  0.8878E+02
     -1.873  0.6020E+02  0.9019E+02
     -1.849  0.7802E+02  0.9202E+02
     -1.826  0.1656E+03  0.9590E+02
     -1.802  0.2177E+03  0.1010E+03
     -1.779  0.1841E+03  0.1053E+03
     -1.755  0.9349E+02  0.1075E+03
     -1.732  0.4373E+02  0.1085E+03
     -1.708  0.8582E+02  0.1106E+03
     -1.685  0.1494E+03  0.1141E+03
     -1.662  0.1489E+03  0.1176E+03
     -1.638  0.8931E+02  0.1196E+03
     -1.615  0.7059E+02  0.1213E+03
     -1.591  0.1395E+03  0.1246E+03
     -1.568  0.2108E+03  0.1295E+03
     -1.544  0.2033E+03  0.1343E+03
     -1.521  0.1218E+03  0.1371E+03
     -1.497  0.6518E+02  0.1387E+03
     -1.474  0.1029E+03  0.1411E+03
     -1.450  0.1835E+03  0.1454E+03
     -1.427  0.2163E+03  0.1505E+03
     -1.404  0.1585E+03  0.1542E+03
     -1.380  0.7932E+02  0.1560E+03
     -1.357  0.7505E+02  0.1578E+03
     -1.333  0.1248E+03  0.1607E+03
     -1.310  0.1454E+03  0.1641E+03
     -1.286  0.1121E+03  0.1668E+03
     -1.263  0.6872E+02  0.1684E+03
     -1.239  0.8129E+02  0.1703E+03
     -1.216  0.1214E+03  0.1731E+03
     -1.193  0.1370E+03  0.1763E+03
     -1.169  0.1103E+03  0.1789E+03
     -1.146  0.8385E+02  0.1809E+03
     -1.122  0.1425E+03  0.1842E+03
     -1.099  0.2397E+03  0.1899E+03
     -1.075  0.2898E+03  0.1967E+03
     -1.052  0.2768E+03  0.2031E+03
     -1.028  0.2068E+03  0.2080E+03
     -1.005  0.1395E+03  0.2113E+03
     -0.981  0.1578E+03  0.2150E+03
     -0.958  0.1938E+03  0.2195E+03
     -0.935  0.1839E+03  0.2238E+03
     -0.911  0.1334E+03  0.2270E+03
     -0.888  0.8462E+02  0.2289E+03
     -0.864  0.8504E+02  0.2309E+03
     -0.841  0.1313E+03  0.2340E+03
     -0.817  0.1697E+03  0.2380E+03
     -0.794  0.1636E+03  0.2418E+03
     -0.770  0.1698E+03  0.2458E+03
     -0.747  0.2060E+03  0.2506E+03
     -0.723  0.2237E+03  0.2559E+03
     -0.700  0.2105E+03  0.2608E+03
     -0.677  0.1500E+03  0.2643E+03
     -0.653  0.6499E+02  0.2659E+03
     -0.630  0.4327E+02  0.2669E+03
     -0.606  0.8177E+02  0.2688E+03
     -0.583  0.9056E+02  0.2709E+03
     -0.559  0.7841E+02  0.2728E+03
     -0.536  0.1303E+03  0.2758E+03
     -0.512  0.2101E+03  0.2807E+03
     -0.489  0.2546E+03  0.2867E+03
     -0.466  0.2716E+03  0.2931E+03
     -0.442  0.2684E+03  0.2994E+03
     -0.419  0.2414E+03  0.3050E+03
     -0.395  0.2114E+03  0.3100E+03
     -0.372  0.2186E+03  0.3151E+03
     -0.348  0.2434E+03  0.3208E+03
     -0.325  0.2427E+03  0.3265E+03
     -0.301  0.2085E+03  0.3314E+03
     -0.278  0.1559E+03  0.3351E+03
     -0.254  0.1311E+03  0.3381E+03
     -0.231  0.1402E+03  0.3414E+03
     -0.208  0.1415E+03  0.3448E+03
     -0.184  0.1529E+03  0.3483E+03
     -0.161  0.1774E+03  0.3525E+03
     -0.137  0.1822E+03  0.3568E+03
     -0.114  0.1732E+03  0.3608E+03
     -0.090  0.1661E+03  0.3647E+03
     -0.067  0.1744E+03  0.3688E+03
     -0.043  0.2070E+03  0.3737E+03
     -0.020  0.2459E+03  0.3794E+03
      0.004  0.2638E+03  0.3856E+03
      0.027  0.2495E+03  0.3915E+03
      0.050  0.2136E+03  0.3965E+03
      0.074  0.1922E+03  0.4010E+03
      0.097  0.2016E+03  0.4057E+03
      0.121  0.1963E+03  0.4103E+03
      0.144  0.1577E+03  0.4140E+03
      0.168  0.1338E+03  0.4172E+03
      0.191  0.1644E+03  0.4210E+03
      0.215  0.2078E+03  0.4259E+03
      0.238  0.2306E+03  0.4313E+03
      0.262  0.2355E+03  0.4368E+03
      0.285  0.2240E+03  0.4421E+03
      0.308  0.2132E+03  0.4471E+03
      0.332  0.2118E+03  0.4520E+03
      0.355  0.2097E+03  0.4570E+03
      0.379  0.2008E+03  0.4617E+03
      0.402  0.1966E+03  0.4663E+03
      0.426  0.2088E+03  0.4712E+03
      0.449  0.2194E+03  0.4763E+03
      0.473  0.2266E+03  0.4816E+03
      0.496  0.2355E+03  0.4872E+03
      0.519  0.2374E+03  0.4927E+03
      0.543  0.2331E+03  0.4982E+03
      0.566  0.2400E+03  0.5038E+03
      0.590  0.2432E+03  0.5095E+03
      0.613  0.2370E+03  0.5151E+03
      0.637  0.2373E+03  0.5207E+03
      0.660  0.2372E+03  0.5262E+03
      0.684  0.2476E+03  0.5320E+03
      0.707  0.2622E+03  0.5382E+03
      0.731  0.2685E+03  0.5445E+03
      0.754  0.2759E+03  0.5509E+03
      0.777  0.2858E+03  0.5576E+03
      0.801  0.2789E+03  0.5642E+03
      0.824  0.2714E+03  0.5705E+03
      0.848  0.2748E+03  0.5770E+03
      0.871  0.2594E+03  0.5831E+03
      0.895  0.2329E+03  0.5885E+03
      0.918  0.2116E+03  0.5935E+03
      0.942  0.2007E+03  0.5982E+03
      0.965  0.2045E+03  0.6030E+03
      0.989  0.2042E+03  0.6078E+03
      1.012  0.1908E+03  0.6123E+03
      1.035  0.1840E+03  0.6166E+03
      1.059  0.1852E+03  0.6209E+03
      1.082  0.1802E+03  0.6252E+03
      1.106  0.1747E+03  0.6292E+03
      1.129  0.1761E+03  0.6334E+03
      1.153  0.1794E+03  0.6376E+03
      1.176  0.1873E+03  0.6420E+03
      1.200  0.2042E+03  0.6468E+03
      1.223  0.2111E+03  0.6517E+03
      1.246  0.2214E+03  0.6569E+03
      1.270  0.2406E+03  0.6626E+03
      1.293  0.2365E+03  0.6681E+03
      1.317  0.2138E+03  0.6731E+03
      1.340  0.2119E+03  0.6781E+03
      1.364  0.2314E+03  0.6835E+03
      1.387  0.2376E+03  0.6891E+03
      1.411  0.2283E+03  0.6944E+03
      1.434  0.2189E+03  0.6996E+03
      1.458  0.2162E+03  0.7046E+03
      1.481  0.2223E+03  0.7099E+03
      1.504  0.2132E+03  0.7149E+03
      1.528  0.1937E+03  0.7194E+03
      1.551  0.1888E+03  0.7238E+03
      1.575  0.1990E+03  0.7285E+03
      1.598  0.2073E+03  0.7334E+03
      1.622  0.2101E+03  0.7383E+03
      1.645  0.2028E+03  0.7430E+03
      1.669  0.1885E+03  0.7475E+03
      1.692  0.1783E+03  0.7516E+03
      1.716  0.1750E+03  0.7557E+03
      1.739  0.1745E+03  0.7598E+03
      1.762  0.1748E+03  0.7639E+03
      1.786  0.1773E+03  0.7681E+03
      1.809  0.1767E+03  0.7722E+03
      1.833  0.1778E+03  0.7764E+03
      1.856  0.1709E+03  0.7804E+03
      1.880  0.1635E+03  0.7842E+03
      1.903  0.1564E+03  0.7879E+03
      1.927  0.1464E+03  0.7913E+03
      1.950  0.1467E+03  0.7948E+03
      1.973  0.1594E+03  0.7985E+03
      1.997  0.1732E+03  0.8026E+03
      2.020  0.1786E+03  0.8068E+03
      2.044  0.1889E+03  0.8112E+03
      2.067  0.2002E+03  0.8159E+03
      2.091  0.2018E+03  0.8206E+03
      2.114  0.1936E+03  0.8252E+03
      2.138  0.1888E+03  0.8296E+03
      2.161  0.1861E+03  0.8340E+03
      2.185  0.1891E+03  0.8384E+03
      2.208  0.1929E+03  0.8429E+03
      2.231  0.1873E+03  0.8473E+03
      2.255  0.1736E+03  0.8514E+03
      2.278  0.1604E+03  0.8552E+03
      2.302  0.1484E+03  0.8586E+03
      2.325  0.1338E+03  0.8618E+03
      2.349  0.1314E+03  0.8649E+03
      2.372  0.1338E+03  0.8680E+03
      2.396  0.1398E+03  0.8713E+03
      2.419  0.1502E+03  0.8748E+03
      2.443  0.1545E+03  0.8784E+03
      2.466  0.1512E+03  0.8820E+03
      2.489  0.1424E+03  0.8853E+03
      2.513  0.1366E+03  0.8885E+03
      2.536  0.1469E+03  0.8919E+03
      2.560  0.1550E+03  0.8956E+03
      2.583  0.1560E+03  0.8992E+03
      2.607  0.1495E+03  0.9027E+03
      2.630  0.1340E+03  0.9059E+03
      2.654  0.1271E+03  0.9089E+03
      2.677  0.1318E+03  0.9120E+03
      2.701  0.1391E+03  0.9152E+03
      2.724  0.1438E+03  0.9186E+03
      2.747  0.1491E+03  0.9221E+03
      2.771  0.1539E+03  0.9257E+03
      2.794  0.1536E+03  0.9293E+03
      2.818  0.1524E+03  0.9329E+03
      2.841  0.1510E+03  0.9364E+03
      2.865  0.1438E+03  0.9398E+03
      2.888  0.1388E+03  0.9430E+03
      2.912  0.1376E+03  0.9463E+03
      2.935  0.1325E+03  0.9494E+03
      2.958  0.1327E+03  0.9525E+03
      2.982  0.1465E+03  0.9559E+03
      3.005  0.1519E+03  0.9595E+03
      3.029  0.1529E+03  0.9631E+03
      3.052  0.1596E+03  0.9668E+03
      3.076  0.1520E+03  0.9704E+03
      3.099  0.1267E+03  0.9734E+03
      3.123  0.1197E+03  0.9762E+03
      3.146  0.1259E+03  0.9791E+03
      3.170  0.1263E+03  0.9821E+03
      3.193  0.1169E+03  0.9848E+03
      3.216  0.8893E+02  0.9869E+03
      3.240  0.7541E+02  0.9887E+03
      3.263  0.8305E+02  0.9906E+03
      3.287  0.9408E+02  0.9928E+03
      3.310  0.1138E+03  0.9955E+03
      3.334  0.1189E+03  0.9983E+03
      3.357  0.9292E+02  0.1000E+04
      3.381  0.4996E+02  0.1002E+04
      3.404  0.1382E+02  0.1002E+04
      3.428  0.1543E+01  0.1002E+04
      3.451  0.6220E-01  0.1002E+04
      3.474  0.8563E-03  0.1002E+04
      3.498  0.3876E-05  0.1002E+04
      3.521  0.5599E-08  0.1002E+04
      3.545  0.2523E-11  0.1002E+04
      3.568  0.0000E+00  0.1002E+04
      3.592  0.0000E+00  0.1002E+04
      3.615  0.0000E+00  0.1002E+04
      3.639  0.0000E+00  0.1002E+04
      3.662  0.0000E+00  0.1002E+04
      3.685  0.0000E+00  0.1002E+04
