       N       E                     dE             d eps       ncg     rms          rms(c)
DAV:   1    -0.240196000911E+03   -0.24020E+03   -0.12350E+05  4008   0.662E+02
DAV:   2    -0.861656986996E+03   -0.62146E+03   -0.56810E+03  4596   0.691E+01
DAV:   3    -0.906212091915E+03   -0.44555E+02   -0.40679E+02  5176   0.146E+01
DAV:   4    -0.907711020271E+03   -0.14989E+01   -0.14768E+01  4704   0.292E+00
DAV:   5    -0.907747337965E+03   -0.36318E-01   -0.36247E-01  4880   0.472E-01    0.109E+01
DAV:   6    -0.898546574780E+03    0.92008E+01   -0.14695E+01  4696   0.486E+00    0.766E+00
DAV:   7    -0.895353719457E+03    0.31929E+01   -0.11177E+01  4824   0.467E+00    0.612E+00
DAV:   8    -0.890784034460E+03    0.45697E+01   -0.61913E+00  4744   0.296E+00    0.311E+00
DAV:   9    -0.889932330199E+03    0.85170E+00   -0.35146E+00  4488   0.151E+00    0.144E+00
DAV:  10    -0.890038731118E+03   -0.10640E+00   -0.93179E-01  4696   0.876E-01    0.126E+00
DAV:  11    -0.889886742161E+03    0.15199E+00   -0.34327E-01  4592   0.615E-01    0.694E-01
DAV:  12    -0.889864329442E+03    0.22413E-01   -0.64484E-02  4496   0.243E-01    0.358E-01
DAV:  13    -0.889864726748E+03   -0.39731E-03   -0.25019E-02  4672   0.174E-01    0.259E-01
DAV:  14    -0.889860566735E+03    0.41600E-02   -0.11524E-02  4688   0.131E-01    0.159E-01
DAV:  15    -0.889858315465E+03    0.22513E-02   -0.36959E-03  4608   0.693E-02    0.673E-02
DAV:  16    -0.889858439677E+03   -0.12421E-03   -0.14133E-03  4648   0.375E-02    0.510E-02
DAV:  17    -0.889858158428E+03    0.28125E-03   -0.64216E-04  4680   0.270E-02    0.250E-02
DAV:  18    -0.889858110955E+03    0.47473E-04   -0.13875E-04  4520   0.117E-02    0.139E-02
DAV:  19    -0.889858093204E+03    0.17752E-04   -0.51187E-05  4528   0.730E-03    0.828E-03
DAV:  20    -0.889858089417E+03    0.37864E-05   -0.14425E-05  3000   0.497E-03
   1 F= -.88985809E+03 E0= -.88980454E+03  d E =-.107105E+00
