Li                                      
           1
    21.217000    0.000000    0.000000
     0.000000   21.217000    0.000000
    -0.000000   -0.000000   21.217000
   Li
   500
Direct configuration=     1
   0.01158550  0.03074585  0.01284658
   0.02098934  0.09124493  0.10220301
   0.99876534  0.19732779  0.18429223
   0.98894129  0.30128339  0.29921558
   0.99847057  0.39320788  0.40786958
   0.01842543  0.47556388  0.49513769
   0.99041893  0.58077939  0.60159909
   0.98598756  0.67495757  0.72873813
   0.98983128  0.79102453  0.79212977
   0.99474790  0.91697857  0.91880129
   0.11419410  0.00221660  0.10750307
   0.10612490  0.11920682  0.20873350
   0.10302244  0.20711143  0.31640811
   0.09817164  0.29695923  0.38286033
   0.10960670  0.37302924  0.48102833
   0.10542537  0.46563515  0.60639060
   0.08626644  0.58771677  0.69301918
   0.09884563  0.69489454  0.80502085
   0.09801325  0.79208682  0.92250743
   0.09787182  0.90167888  0.01529371
   0.21395461  0.02496467  0.21329657
   0.20211777  0.13092899  0.32485697
   0.23597781  0.20858820  0.40681681
   0.18716869  0.31341979  0.47741324
   0.19935329  0.38837955  0.61566992
   0.21288457  0.48403132  0.72046726
   0.20426886  0.59816383  0.80717910
   0.19864837  0.68235358  0.90051228
   0.20364581  0.79473216  0.02538197
   0.19977899  0.87928578  0.12207030
   0.30281933  0.00481065  0.31716420
   0.30918076  0.12795544  0.39954721
   0.34273682  0.18797152  0.52017780
   0.31345812  0.30308507  0.58183782
   0.31124771  0.38937697  0.71273107
   0.29067454  0.49940905  0.78936275
   0.29935006  0.61482532  0.87405497
   0.28127505  0.69082799  0.00810901
   0.31572480  0.77932043  0.13513637
   0.28675126  0.91020283  0.22568881
   0.38617266  0.00692771  0.40009355
   0.38729017  0.09161547  0.51457762
   0.40931630  0.17959263  0.60580117
   0.41214128  0.29724689  0.69404852
   0.41035955  0.40414448  0.80368198
   0.39762627  0.48670923  0.89490280
   0.39623882  0.60861921  0.97531208
   0.40837608  0.68495983  0.08941419
   0.39044877  0.81676787  0.21622857
   0.39164468  0.91848865  0.30504032
   0.50291209  0.99072078  0.50944663
   0.52061886  0.11078410  0.60998979
   0.50375935  0.18784370  0.71280472
   0.49545339  0.30391776  0.80986353
   0.52971082  0.41555591  0.89996338
   0.52135067  0.52206914  0.98025279
   0.49056740  0.61433800  0.07805525
   0.46874940  0.70246969  0.20909082
   0.48265853  0.80995866  0.30455993
   0.50469332  0.89463192  0.38340824
   0.61035984  0.00618636  0.59211906
   0.58712110  0.09502641  0.70940411
   0.58437156  0.19055884  0.80431216
   0.58182597  0.28268670  0.90119215
   0.61269119  0.40467201  0.00433312
   0.58833193  0.52621237  0.08287837
   0.59994144  0.61258557  0.20183293
   0.58688413  0.69873293  0.29495381
   0.59371274  0.77764439  0.39798798
   0.60550782  0.89358793  0.50207010
   0.70311281  0.97947024  0.71047928
   0.71850013  0.10760455  0.80238322
   0.68750918  0.18840748  0.89848781
   0.69269814  0.28914624  0.01043197
   0.72097904  0.42160788  0.12487358
   0.71111693  0.51184381  0.19548276
   0.69906580  0.62836983  0.30737465
   0.67763449  0.69615588  0.39736216
   0.70831698  0.81246637  0.51258051
   0.70901659  0.92074586  0.56670525
   0.79096491  0.97549048  0.81259043
   0.78976858  0.09111720  0.91926130
   0.78571032  0.20779175  0.00700010
   0.80320583  0.29910857  0.08980243
   0.80453110  0.39940691  0.20029058
   0.78533402  0.51776380  0.29035998
   0.78921556  0.59102015  0.39594525
   0.78671769  0.66499740  0.50800880
   0.81085453  0.80539717  0.55989293
   0.81300607  0.89822550  0.69403934
   0.90161285  0.00444152  0.89229893
   0.91363949  0.09869532  0.99771929
   0.92572293  0.19228142  0.11133492
   0.90940182  0.30468028  0.16448902
   0.88832963  0.40299628  0.30633941
   0.90656416  0.49063950  0.39872475
   0.91860885  0.58524211  0.48699223
   0.90396737  0.67928908  0.59509210
   0.89758759  0.78428491  0.69628341
   0.90741032  0.90775733  0.81469652
   0.11647445  0.13508989  0.97339850
   0.11936118  0.21877725  0.07490380
   0.09763493  0.30770480  0.20884005
   0.09748283  0.39927715  0.30744226
   0.11451627  0.48312047  0.37221935
   0.10625476  0.56619105  0.51467123
   0.08601327  0.67993231  0.59607664
   0.06861801  0.77018471  0.66851370
   0.08551786  0.87353515  0.78694743
   0.11428086  0.00573300  0.88242835
   0.22243083  0.12195044  0.10591247
   0.21422216  0.23065720  0.19603414
   0.21416713  0.28829899  0.29974352
   0.18892253  0.37532879  0.38911000
   0.20975048  0.49356536  0.49931727
   0.19014782  0.58636871  0.63491635
   0.16921838  0.71958191  0.70820632
   0.18744904  0.79600549  0.81325122
   0.17056292  0.90008752  0.91088873
   0.21622493  0.98230594  0.99610499
   0.30803206  0.11054505  0.21576567
   0.30142242  0.23546479  0.30977947
   0.31341311  0.29890134  0.39589237
   0.30571280  0.40066559  0.51351667
   0.29642504  0.46412662  0.59983375
   0.29420653  0.60390449  0.69302078
   0.29447956  0.71496887  0.79322995
   0.28700672  0.79082650  0.91408090
   0.30326317  0.89050405  0.02363906
   0.27662774  0.00923103  0.10390859
   0.40169432  0.12040107  0.29949422
   0.40334197  0.21305062  0.39607188
   0.42470644  0.29862117  0.50321697
   0.41357181  0.39007580  0.60852078
   0.40680640  0.50046213  0.71617310
   0.39826871  0.59230434  0.78943755
   0.38977921  0.70884601  0.89242334
   0.40392779  0.79828751  0.01074294
   0.38912850  0.91605898  0.11446026
   0.38699769  0.01421439  0.21139231
   0.50340694  0.08440781  0.39788128
   0.51229180  0.17840162  0.51359865
   0.51891863  0.27584673  0.63820393
   0.51752468  0.41551078  0.70838210
   0.51394806  0.51179253  0.79893116
   0.50491074  0.62751296  0.90427958
   0.52126112  0.72004312  0.99407514
   0.47948987  0.82345191  0.11654532
   0.49709856  0.92079932  0.20600505
   0.52203953  0.99198341  0.29608888
   0.62568243  0.10913235  0.50542794
   0.59133233  0.21159243  0.61307424
   0.61148111  0.29559035  0.71440359
   0.61226530  0.38305013  0.80361974
   0.61123888  0.51348478  0.89110537
   0.59899229  0.62139840  0.99648453
   0.58191137  0.70060703  0.11160495
   0.59046956  0.79864270  0.22660115
   0.60722910  0.90235353  0.29320172
   0.60676639  0.00374409  0.40665308
   0.71853064  0.10580514  0.62020250
   0.68150037  0.18742365  0.68801433
   0.70558436  0.30091437  0.81153498
   0.68805265  0.39921642  0.90713151
   0.70288912  0.50297681  0.98754059
   0.69189777  0.60655715  0.08926404
   0.70347327  0.71732568  0.20115629
   0.68582653  0.78656027  0.28523540
   0.68557418  0.88804883  0.40237392
   0.70649959  0.00778239  0.48283250
   0.79868853  0.09471428  0.69602447
   0.77909750  0.20155363  0.80475563
   0.78683490  0.30180599  0.90105057
   0.79506451  0.41372403  0.99764588
   0.81274874  0.51654569  0.09805727
   0.79741267  0.60798807  0.17612964
   0.80719870  0.72360973  0.28771355
   0.80430498  0.79768973  0.40178154
   0.82238877  0.92388864  0.48602144
   0.78376288  0.03187390  0.60404962
   0.86732001  0.09610650  0.79045438
   0.88102663  0.16985060  0.88090385
   0.87755742  0.29284923  0.98233950
   0.89636132  0.38770294  0.10413797
   0.89870075  0.52479540  0.19053231
   0.91972812  0.60796681  0.27552626
   0.91024362  0.69717248  0.38214142
   0.90322770  0.79257195  0.47357427
   0.88374721  0.90287561  0.57096718
   0.90548152  0.98943649  0.69291546
   0.00156948  0.10327605  0.90139872
   0.99436457  0.20921492  0.98208219
   0.99557626  0.28937453  0.08887092
   0.98909981  0.40702668  0.19744201
   0.99161518  0.49182879  0.29108192
   0.00288760  0.60534162  0.40610963
   0.00531597  0.69505780  0.49420111
   0.97850788  0.78187514  0.57626132
   0.99497212  0.90147551  0.67429758
   0.99359833  0.98458555  0.78901316
   0.22093460  0.23612823  0.97419309
   0.20736938  0.30788343  0.08724733
   0.19925174  0.37691275  0.21328643
   0.21976245  0.49706607  0.27005217
   0.19388281  0.55124659  0.37592319
   0.20309523  0.67433494  0.51463873
   0.19701837  0.78454121  0.58595330
   0.18149975  0.87125603  0.70795048
   0.17518213  0.00390151  0.78581926
   0.19103882  0.11017044  0.87554256
   0.31684698  0.23142858  0.07493152
   0.31232932  0.30776278  0.18774728
   0.31368290  0.37964103  0.28861911
   0.29427422  0.46981835  0.42426607
   0.28730714  0.56550945  0.54151137
   0.29093174  0.70350402  0.60208330
   0.32204631  0.80210191  0.70677193
   0.29099293  0.90822809  0.81587197
   0.29248302  0.98848113  0.91763303
   0.31944821  0.10395353  0.98254358
   0.40874932  0.20158612  0.21267989
   0.43568171  0.30932160  0.28783703
   0.41699545  0.36822074  0.39091357
   0.41505880  0.47139201  0.51975628
   0.40368364  0.59799856  0.61160775
   0.40597021  0.69762744  0.69427982
   0.39777114  0.80577538  0.83285137
   0.41023687  0.88827645  0.91417037
   0.40367951  0.00154843  0.00776053
   0.38414422  0.10629067  0.09777342
   0.49395020  0.19647061  0.29549797
   0.51084644  0.29854695  0.40463589
   0.52200136  0.37168319  0.50756130
   0.52481787  0.50969881  0.60817270
   0.51024168  0.59617776  0.71447120
   0.48319352  0.71942821  0.79901994
   0.50701385  0.80938173  0.92843982
   0.49929415  0.89379055  0.02095622
   0.47180868  0.00222791  0.07933003
   0.49048943  0.12558616  0.20764450
   0.58540597  0.20283216  0.40881998
   0.60023469  0.29211598  0.52058021
   0.60816942  0.38379703  0.61843747
   0.61149314  0.50724762  0.71919243
   0.60800168  0.62477032  0.79075907
   0.60675268  0.72889067  0.92010644
   0.59266348  0.82692607  0.02427418
   0.60589694  0.90900760  0.13310591
   0.59374817  0.01014522  0.20774765
   0.61309018  0.10865850  0.30123624
   0.71541501  0.19539422  0.49614684
   0.70634629  0.29649128  0.59525479
   0.71907831  0.38477296  0.70564461
   0.70844867  0.50289306  0.80393744
   0.69732814  0.61833996  0.91084364
   0.69428251  0.72257456  0.02474489
   0.70620145  0.79406574  0.10991166
   0.71449722  0.88621739  0.20139556
   0.72097019  0.98913649  0.30263604
   0.72781394  0.10690236  0.38256581
   0.80770945  0.21360192  0.61212016
   0.80445832  0.29606965  0.70347643
   0.80499566  0.39478647  0.79827263
   0.80283797  0.52792935  0.88394681
   0.78693006  0.59963063  0.99275415
   0.82497821  0.70376549  0.11149886
   0.80159043  0.79638556  0.21849339
   0.79667341  0.89235702  0.30846449
   0.81280017  0.01357512  0.38605440
   0.80623042  0.09112357  0.49031445
   0.89458652  0.17634380  0.67687666
   0.89391564  0.28395168  0.80349275
   0.87394010  0.40696196  0.88622747
   0.87896512  0.49685979  0.98541716
   0.89793660  0.59449216  0.08727734
   0.93615277  0.70080381  0.21507349
   0.92564283  0.81376254  0.33147523
   0.91856634  0.89018172  0.39658259
   0.92763068  0.00345535  0.48953242
   0.88234540  0.10780889  0.58351128
   0.97801274  0.18628757  0.78624982
   0.96775659  0.29985981  0.88094747
   0.97583194  0.39800194  0.99415552
   0.01248105  0.48880987  0.08199047
   0.00841553  0.60160931  0.18747725
   0.02935618  0.72000368  0.29089239
   0.01583970  0.78435649  0.41908808
   0.00119334  0.89187709  0.50972937
   0.02370860  0.02449994  0.59443013
   0.00239720  0.08963598  0.67536379
   0.09424393  0.18551055  0.85609628
   0.09678688  0.27825015  0.96946434
   0.09321221  0.37499350  0.10340981
   0.10954805  0.49942713  0.19405746
   0.11271941  0.59833342  0.27758997
   0.12950015  0.66882821  0.40383027
   0.11606708  0.79187760  0.50286803
   0.10403701  0.89730800  0.60100446
   0.09328296  0.00944652  0.69822316
   0.05607640  0.09667366  0.77992346
   0.32919519  0.29840874  0.97193398
   0.30260348  0.40643478  0.09347519
   0.29394822  0.47990925  0.18614565
   0.28508538  0.57793952  0.29901765
   0.28284302  0.66070909  0.40233306
   0.28925736  0.78113156  0.46925611
   0.27704199  0.90313847  0.59644368
   0.27791816  0.99220193  0.71054431
   0.31890335  0.09715196  0.78196705
   0.31829411  0.20304301  0.88229177
   0.40332202  0.29347640  0.09427296
   0.41319941  0.40278346  0.19210194
   0.40024081  0.48397251  0.29568363
   0.40593593  0.56339628  0.43555746
   0.38828190  0.69047715  0.50673347
   0.38283522  0.82048637  0.57367100
   0.39532576  0.89634923  0.69097846
   0.39596981  0.96977846  0.78919310
   0.40637088  0.10055454  0.89306990
   0.41651220  0.17008443  0.00750393
   0.50827015  0.28738888  0.17761570
   0.50220068  0.39456687  0.28912012
   0.50979768  0.48361364  0.41866254
   0.49869512  0.60451689  0.51929196
   0.49524811  0.69886057  0.61216782
   0.45578477  0.80727346  0.70396446
   0.49074940  0.89209399  0.79890688
   0.50255544  0.01400862  0.91246393
   0.49134962  0.08881983  0.01790006
   0.51711144  0.20180081  0.10313239
   0.60369787  0.29825301  0.28977764
   0.58884999  0.39986192  0.38904671
   0.59144931  0.50198851  0.49297951
   0.61528911  0.62296274  0.62735881
   0.58226263  0.75542167  0.69814686
   0.58676642  0.83813873  0.78548983
   0.60517547  0.90569909  0.91049577
   0.58436665  0.01001702  0.99096194
   0.59165819  0.07876446  0.10280090
   0.60095935  0.20594016  0.17926603
   0.70325703  0.32847985  0.42060261
   0.67881198  0.43623127  0.51978075
   0.69851555  0.50360332  0.61011727
   0.70324145  0.61758503  0.70980889
   0.68031855  0.73672801  0.78129473
   0.69069902  0.81565055  0.91946618
   0.69468865  0.91004744  0.02916517
   0.68947752  0.01718205  0.11768551
   0.69247274  0.10594045  0.21084691
   0.69506737  0.20523593  0.30564665
   0.79310202  0.33053410  0.51875401
   0.79767772  0.40756746  0.59934396
   0.79763884  0.50674903  0.69317933
   0.78791815  0.62322475  0.79869922
   0.79272671  0.72402783  0.91195775
   0.80284480  0.83451104  0.02661331
   0.78766940  0.91590759  0.10610477
   0.80003747  0.98026353  0.22744383
   0.79017833  0.11527219  0.32329008
   0.80595691  0.23196623  0.40320667
   0.88899460  0.30050133  0.63094402
   0.88816381  0.40640061  0.70173878
   0.87771012  0.52358429  0.80453353
   0.91117087  0.61196299  0.89685559
   0.90158700  0.69808932  0.00057217
   0.91641252  0.82858238  0.10516711
   0.90240904  0.89416941  0.19653116
   0.91521233  0.99470891  0.31773836
   0.90941646  0.09886804  0.40303961
   0.90104044  0.20159287  0.51271357
   0.98761669  0.31175257  0.71103808
   0.01113777  0.40977055  0.81670953
   0.00752264  0.49845562  0.90825646
   0.99375153  0.58989968  0.98368407
   0.00766512  0.69090585  0.09887792
   0.02306685  0.80278919  0.20388400
   0.02337043  0.89081340  0.29880165
   0.01115859  0.99449198  0.38520842
   0.00196309  0.09480117  0.51396283
   0.99571500  0.19991784  0.60015197
   0.08804184  0.31472347  0.78574947
   0.10420711  0.37515922  0.90616293
   0.11071512  0.45456040  0.00515298
   0.10010384  0.60044422  0.08729499
   0.09521954  0.68890471  0.18805437
   0.12823081  0.79129274  0.31242649
   0.10786015  0.88589259  0.39507867
   0.12240545  0.01014615  0.48997382
   0.12117400  0.13226127  0.61486114
   0.09404706  0.21498263  0.68312669
   0.19788038  0.27368727  0.86294237
   0.21781701  0.37430933  0.99990128
   0.19085994  0.48355207  0.09777582
   0.20439789  0.59816232  0.19543450
   0.20675892  0.68769701  0.28803726
   0.18651237  0.79018486  0.41237730
   0.20192826  0.88741046  0.50805783
   0.20997422  0.98605928  0.62610501
   0.19451620  0.09850694  0.71044138
   0.21889403  0.18556271  0.77557942
   0.40228524  0.41392240  0.97976183
   0.39813591  0.51830133  0.07104572
   0.39210430  0.60158780  0.19668035
   0.39840569  0.68087347  0.31174927
   0.38950286  0.77617520  0.39541741
   0.36155203  0.90412998  0.47720621
   0.38087584  0.98724598  0.60388512
   0.39205638  0.08599580  0.68742120
   0.40643317  0.20719338  0.78378933
   0.38994801  0.32365303  0.89466121
   0.48496429  0.41633675  0.08990974
   0.48458316  0.51735336  0.18312742
   0.48424772  0.59206584  0.30959080
   0.48982836  0.68417892  0.38989210
   0.47898563  0.80204045  0.47010249
   0.49972407  0.88666706  0.55845718
   0.51088790  0.98359600  0.68731431
   0.46587910  0.08489098  0.79804499
   0.49380072  0.19970253  0.91094690
   0.48366724  0.29366422  0.02553213
   0.59128827  0.43279220  0.17029072
   0.59502828  0.51207668  0.28394553
   0.60946646  0.59114526  0.38458688
   0.59942827  0.69125624  0.48920987
   0.57849675  0.80884270  0.58218432
   0.58617895  0.88921843  0.67827033
   0.59907024  0.99307701  0.79533024
   0.59925164  0.09822082  0.88320388
   0.58237646  0.18454302  0.98573245
   0.60248365  0.30301963  0.09118181
   0.69820776  0.40497488  0.29103661
   0.69020109  0.52053412  0.39585080
   0.67332741  0.59945526  0.51220252
   0.67825084  0.72936535  0.61051816
   0.71979590  0.84151088  0.68188111
   0.69589502  0.88416357  0.80635519
   0.70101831  0.98535295  0.91158619
   0.70343718  0.09796176  0.98743599
   0.68979911  0.17912563  0.09691127
   0.69693599  0.27604349  0.20289058
   0.79663780  0.42527957  0.39793398
   0.80183410  0.52813481  0.48844905
   0.77379897  0.62347784  0.61286519
   0.81472978  0.72749394  0.69741687
   0.79548176  0.81194497  0.80494576
   0.78818300  0.90224784  0.93646115
   0.80250696  0.01699270  0.02531980
   0.81654246  0.11041942  0.12032992
   0.81100885  0.20462075  0.17983523
   0.81785206  0.30025905  0.29802953
   0.88079446  0.39822025  0.51926942
   0.89119762  0.51289182  0.59655281
   0.87848779  0.60634017  0.69987746
   0.89561814  0.69554494  0.82509708
   0.90796243  0.81861966  0.89890253
   0.91177041  0.92988017  0.99029057
   0.91859542  0.99515564  0.11094256
   0.90016808  0.08871696  0.22503106
   0.87142310  0.21593173  0.27279631
   0.89209333  0.29112902  0.41834962
   0.97757604  0.37297738  0.58996652
   0.96168512  0.47448781  0.71045165
   0.98155011  0.59923594  0.81953626
   0.01567476  0.68692344  0.90088853
   0.00427562  0.80127317  0.00019818
   0.02412171  0.90803071  0.09900250
   0.03313694  0.98655048  0.22857519
   0.99913166  0.09197754  0.31248178
   0.96990607  0.21353619  0.38339957
   0.97943045  0.30399157  0.49900865
   0.09368254  0.39760972  0.67780079
   0.09208201  0.50280583  0.78053610
   0.09651828  0.58078521  0.91386838
   0.10270636  0.69018117  0.99130318
   0.10335869  0.81478818  0.11480499
   0.13396329  0.88854628  0.21260637
   0.12886849  0.01116140  0.29628030
   0.09514209  0.11791638  0.41293121
   0.08689605  0.21333939  0.48831665
   0.08667339  0.32336067  0.61233041
   0.18043448  0.37533592  0.78052850
   0.18978582  0.48377998  0.88267897
   0.20437883  0.57957809  0.99486204
   0.20675535  0.67040401  0.08770069
   0.19418426  0.78651246  0.20083010
   0.20916947  0.89305513  0.30664901
   0.21783282  0.99432370  0.40411490
   0.19759157  0.10084250  0.51398712
   0.20818757  0.20642254  0.57711964
   0.21397250  0.29237843  0.69883896
   0.28179661  0.39291775  0.90037024
   0.28573070  0.50667515  0.98912299
   0.30174839  0.60344082  0.09859685
   0.29873302  0.70339271  0.21684997
   0.29336590  0.78636072  0.31074415
   0.27625061  0.88667002  0.40130867
   0.28592192  0.01302008  0.49385459
   0.27715270  0.08877814  0.60251766
   0.31030100  0.20750592  0.67637691
   0.31917100  0.29549925  0.79573448
