 432 432   0   0
  0.2035379E+02  0.2064000E-08  0.2064000E-08  0.2064000E-08  0.5000000E-15
  1.000000000000000E-004
  CAR 
 Li                                      
      3.48384972     -3.43235360  301      0.38886876      1.00000000
     -3.432  0.0000E+00  0.0000E+00
     -3.409  0.0000E+00  0.0000E+00
     -3.386  0.0000E+00  0.0000E+00
     -3.363  0.0000E+00  0.0000E+00
     -3.340  0.0000E+00  0.0000E+00
     -3.317  0.0000E+00  0.0000E+00
     -3.294  0.4816E-14  0.1110E-15
     -3.271  0.2334E-10  0.5381E-12
     -3.248  0.3845E-07  0.8869E-09
     -3.225  0.1997E-04  0.4612E-06
     -3.202  0.3300E-02  0.7654E-04
     -3.179  0.1757E+00  0.4128E-02
     -3.156  0.3067E+01  0.7484E-01
     -3.133  0.1789E+02  0.4873E+00
     -3.110  0.3547E+02  0.1305E+01
     -3.087  0.2411E+02  0.1861E+01
     -3.063  0.5676E+01  0.1992E+01
     -3.040  0.2695E+01  0.2054E+01
     -3.017  0.2139E+02  0.2547E+01
     -2.994  0.7498E+02  0.4276E+01
     -2.971  0.9995E+02  0.6580E+01
     -2.948  0.5104E+02  0.7756E+01
     -2.925  0.1018E+02  0.7991E+01
     -2.902  0.6459E+01  0.8140E+01
     -2.879  0.3770E+02  0.9009E+01
     -2.856  0.9305E+02  0.1115E+02
     -2.833  0.8774E+02  0.1318E+02
     -2.810  0.3144E+02  0.1390E+02
     -2.787  0.6234E+01  0.1405E+02
     -2.764  0.1995E+02  0.1451E+02
     -2.741  0.7591E+02  0.1626E+02
     -2.718  0.1256E+03  0.1915E+02
     -2.695  0.9137E+02  0.2126E+02
     -2.672  0.2908E+02  0.2193E+02
     -2.649  0.1260E+02  0.2222E+02
     -2.625  0.5318E+02  0.2344E+02
     -2.602  0.1382E+03  0.2663E+02
     -2.579  0.1733E+03  0.3063E+02
     -2.556  0.1090E+03  0.3314E+02
     -2.533  0.3319E+02  0.3390E+02
     -2.510  0.9956E+01  0.3413E+02
     -2.487  0.3506E+02  0.3494E+02
     -2.464  0.8576E+02  0.3692E+02
     -2.441  0.8879E+02  0.3897E+02
     -2.418  0.3883E+02  0.3986E+02
     -2.395  0.1523E+02  0.4021E+02
     -2.372  0.4468E+02  0.4124E+02
     -2.349  0.1078E+03  0.4373E+02
     -2.326  0.1487E+03  0.4716E+02
     -2.303  0.1275E+03  0.5010E+02
     -2.280  0.6620E+02  0.5162E+02
     -2.257  0.3469E+02  0.5242E+02
     -2.234  0.8207E+02  0.5431E+02
     -2.210  0.1703E+03  0.5824E+02
     -2.187  0.2107E+03  0.6310E+02
     -2.164  0.1751E+03  0.6713E+02
     -2.141  0.9420E+02  0.6931E+02
     -2.118  0.3055E+02  0.7001E+02
     -2.095  0.3067E+02  0.7072E+02
     -2.072  0.7960E+02  0.7255E+02
     -2.049  0.9491E+02  0.7474E+02
     -2.026  0.4641E+02  0.7581E+02
     -2.003  0.1754E+02  0.7621E+02
     -1.980  0.4679E+02  0.7729E+02
     -1.957  0.1205E+03  0.8007E+02
     -1.934  0.1794E+03  0.8421E+02
     -1.911  0.1514E+03  0.8770E+02
     -1.888  0.7600E+02  0.8945E+02
     -1.865  0.3490E+02  0.9025E+02
     -1.842  0.7045E+02  0.9188E+02
     -1.819  0.1625E+03  0.9562E+02
     -1.796  0.2204E+03  0.1007E+03
     -1.772  0.1909E+03  0.1051E+03
     -1.749  0.9775E+02  0.1074E+03
     -1.726  0.3156E+02  0.1081E+03
     -1.703  0.4717E+02  0.1092E+03
     -1.680  0.1294E+03  0.1122E+03
     -1.657  0.1751E+03  0.1162E+03
     -1.634  0.1199E+03  0.1190E+03
     -1.611  0.5536E+02  0.1202E+03
     -1.588  0.7190E+02  0.1219E+03
     -1.565  0.1487E+03  0.1253E+03
     -1.542  0.1986E+03  0.1299E+03
     -1.519  0.1798E+03  0.1340E+03
     -1.496  0.1152E+03  0.1367E+03
     -1.473  0.5714E+02  0.1380E+03
     -1.450  0.7418E+02  0.1397E+03
     -1.427  0.1671E+03  0.1436E+03
     -1.404  0.2258E+03  0.1488E+03
     -1.381  0.1883E+03  0.1531E+03
     -1.357  0.9698E+02  0.1554E+03
     -1.334  0.3655E+02  0.1562E+03
     -1.311  0.6070E+02  0.1576E+03
     -1.288  0.1359E+03  0.1607E+03
     -1.265  0.1653E+03  0.1645E+03
     -1.242  0.1094E+03  0.1671E+03
     -1.219  0.3975E+02  0.1680E+03
     -1.196  0.3378E+02  0.1688E+03
     -1.173  0.8850E+02  0.1708E+03
     -1.150  0.1452E+03  0.1742E+03
     -1.127  0.1454E+03  0.1775E+03
     -1.104  0.1008E+03  0.1798E+03
     -1.081  0.1019E+03  0.1822E+03
     -1.058  0.1737E+03  0.1862E+03
     -1.035  0.2458E+03  0.1918E+03
     -1.012  0.2799E+03  0.1983E+03
     -0.989  0.2591E+03  0.2043E+03
     -0.966  0.1750E+03  0.2083E+03
     -0.943  0.1026E+03  0.2107E+03
     -0.919  0.1249E+03  0.2135E+03
     -0.896  0.1864E+03  0.2178E+03
     -0.873  0.1992E+03  0.2224E+03
     -0.850  0.1482E+03  0.2259E+03
     -0.827  0.7719E+02  0.2276E+03
     -0.804  0.5422E+02  0.2289E+03
     -0.781  0.1187E+03  0.2316E+03
     -0.758  0.1892E+03  0.2360E+03
     -0.735  0.1682E+03  0.2399E+03
     -0.712  0.9465E+02  0.2420E+03
     -0.689  0.8793E+02  0.2441E+03
     -0.666  0.1526E+03  0.2476E+03
     -0.643  0.2133E+03  0.2525E+03
     -0.620  0.2357E+03  0.2579E+03
     -0.597  0.2017E+03  0.2626E+03
     -0.574  0.1327E+03  0.2656E+03
     -0.551  0.1070E+03  0.2681E+03
     -0.528  0.1013E+03  0.2705E+03
     -0.504  0.5877E+02  0.2718E+03
     -0.481  0.4415E+02  0.2728E+03
     -0.458  0.9845E+02  0.2751E+03
     -0.435  0.1701E+03  0.2790E+03
     -0.412  0.2164E+03  0.2840E+03
     -0.389  0.2321E+03  0.2894E+03
     -0.366  0.2071E+03  0.2941E+03
     -0.343  0.1747E+03  0.2982E+03
     -0.320  0.1636E+03  0.3019E+03
     -0.297  0.1727E+03  0.3059E+03
     -0.274  0.1924E+03  0.3103E+03
     -0.251  0.2221E+03  0.3155E+03
     -0.228  0.2470E+03  0.3212E+03
     -0.205  0.2316E+03  0.3265E+03
     -0.182  0.1728E+03  0.3305E+03
     -0.159  0.1226E+03  0.3333E+03
     -0.136  0.1296E+03  0.3363E+03
     -0.113  0.1546E+03  0.3399E+03
     -0.090  0.1512E+03  0.3433E+03
     -0.066  0.1502E+03  0.3468E+03
     -0.043  0.1870E+03  0.3511E+03
     -0.020  0.2189E+03  0.3562E+03
      0.003  0.2247E+03  0.3613E+03
      0.026  0.2292E+03  0.3666E+03
      0.049  0.2278E+03  0.3719E+03
      0.072  0.2047E+03  0.3766E+03
      0.095  0.1738E+03  0.3806E+03
      0.118  0.1765E+03  0.3847E+03
      0.141  0.1991E+03  0.3893E+03
      0.164  0.1926E+03  0.3937E+03
      0.187  0.1730E+03  0.3977E+03
      0.210  0.1592E+03  0.4014E+03
      0.233  0.1491E+03  0.4048E+03
      0.256  0.1473E+03  0.4082E+03
      0.279  0.1506E+03  0.4117E+03
      0.302  0.1709E+03  0.4156E+03
      0.325  0.1906E+03  0.4200E+03
      0.349  0.1914E+03  0.4244E+03
      0.372  0.1884E+03  0.4288E+03
      0.395  0.1876E+03  0.4331E+03
      0.418  0.1933E+03  0.4375E+03
      0.441  0.2033E+03  0.4422E+03
      0.464  0.2101E+03  0.4471E+03
      0.487  0.2038E+03  0.4518E+03
      0.510  0.1906E+03  0.4562E+03
      0.533  0.1831E+03  0.4604E+03
      0.556  0.1768E+03  0.4645E+03
      0.579  0.1837E+03  0.4687E+03
      0.602  0.2034E+03  0.4734E+03
      0.625  0.2129E+03  0.4783E+03
      0.648  0.2134E+03  0.4832E+03
      0.671  0.2190E+03  0.4883E+03
      0.694  0.2229E+03  0.4934E+03
      0.717  0.2275E+03  0.4986E+03
      0.740  0.2343E+03  0.5040E+03
      0.763  0.2420E+03  0.5096E+03
      0.787  0.2455E+03  0.5153E+03
      0.810  0.2437E+03  0.5209E+03
      0.833  0.2359E+03  0.5263E+03
      0.856  0.2360E+03  0.5318E+03
      0.879  0.2445E+03  0.5374E+03
      0.902  0.2454E+03  0.5431E+03
      0.925  0.2308E+03  0.5484E+03
      0.948  0.2109E+03  0.5533E+03
      0.971  0.2029E+03  0.5579E+03
      0.994  0.2060E+03  0.5627E+03
      1.017  0.2160E+03  0.5677E+03
      1.040  0.2198E+03  0.5727E+03
      1.063  0.2229E+03  0.5779E+03
      1.086  0.2236E+03  0.5830E+03
      1.109  0.2171E+03  0.5880E+03
      1.132  0.2052E+03  0.5928E+03
      1.155  0.1990E+03  0.5973E+03
      1.178  0.1977E+03  0.6019E+03
      1.202  0.1957E+03  0.6064E+03
      1.225  0.1911E+03  0.6108E+03
      1.248  0.1862E+03  0.6151E+03
      1.271  0.1868E+03  0.6194E+03
      1.294  0.1900E+03  0.6238E+03
      1.317  0.1838E+03  0.6280E+03
      1.340  0.1738E+03  0.6320E+03
      1.363  0.1744E+03  0.6361E+03
      1.386  0.1775E+03  0.6402E+03
      1.409  0.1721E+03  0.6441E+03
      1.432  0.1555E+03  0.6477E+03
      1.455  0.1333E+03  0.6508E+03
      1.478  0.1248E+03  0.6537E+03
      1.501  0.1429E+03  0.6570E+03
      1.524  0.1616E+03  0.6607E+03
      1.547  0.1684E+03  0.6646E+03
      1.570  0.1605E+03  0.6683E+03
      1.593  0.1494E+03  0.6717E+03
      1.616  0.1511E+03  0.6752E+03
      1.640  0.1643E+03  0.6790E+03
      1.663  0.1679E+03  0.6828E+03
      1.686  0.1723E+03  0.6868E+03
      1.709  0.1927E+03  0.6913E+03
      1.732  0.1972E+03  0.6958E+03
      1.755  0.1880E+03  0.7001E+03
      1.778  0.1900E+03  0.7045E+03
      1.801  0.1830E+03  0.7087E+03
      1.824  0.1710E+03  0.7127E+03
      1.847  0.1694E+03  0.7166E+03
      1.870  0.1758E+03  0.7206E+03
      1.893  0.1739E+03  0.7247E+03
      1.916  0.1750E+03  0.7287E+03
      1.939  0.1780E+03  0.7328E+03
      1.962  0.1776E+03  0.7369E+03
      1.985  0.1748E+03  0.7409E+03
      2.008  0.1679E+03  0.7448E+03
      2.031  0.1588E+03  0.7484E+03
      2.055  0.1475E+03  0.7518E+03
      2.078  0.1362E+03  0.7550E+03
      2.101  0.1311E+03  0.7580E+03
      2.124  0.1295E+03  0.7610E+03
      2.147  0.1284E+03  0.7640E+03
      2.170  0.1305E+03  0.7670E+03
      2.193  0.1294E+03  0.7699E+03
      2.216  0.1191E+03  0.7727E+03
      2.239  0.1193E+03  0.7754E+03
      2.262  0.1321E+03  0.7785E+03
      2.285  0.1343E+03  0.7816E+03
      2.308  0.1181E+03  0.7843E+03
      2.331  0.1007E+03  0.7866E+03
      2.354  0.9951E+02  0.7889E+03
      2.377  0.1014E+03  0.7913E+03
      2.400  0.9118E+02  0.7934E+03
      2.423  0.6672E+02  0.7949E+03
      2.446  0.3903E+02  0.7958E+03
      2.469  0.2737E+02  0.7964E+03
      2.493  0.4328E+02  0.7974E+03
      2.516  0.6252E+02  0.7989E+03
      2.539  0.7048E+02  0.8005E+03
      2.562  0.6086E+02  0.8019E+03
      2.585  0.5144E+02  0.8031E+03
      2.608  0.5833E+02  0.8044E+03
      2.631  0.7728E+02  0.8062E+03
      2.654  0.8866E+02  0.8083E+03
      2.677  0.9040E+02  0.8103E+03
      2.700  0.9848E+02  0.8126E+03
      2.723  0.1073E+03  0.8151E+03
      2.746  0.1125E+03  0.8177E+03
      2.769  0.1207E+03  0.8205E+03
      2.792  0.1254E+03  0.8233E+03
      2.815  0.1253E+03  0.8262E+03
      2.838  0.1272E+03  0.8292E+03
      2.861  0.1333E+03  0.8322E+03
      2.884  0.1359E+03  0.8354E+03
      2.907  0.1288E+03  0.8383E+03
      2.931  0.1179E+03  0.8411E+03
      2.954  0.1143E+03  0.8437E+03
      2.977  0.1057E+03  0.8461E+03
      3.000  0.8814E+02  0.8482E+03
      3.023  0.7866E+02  0.8500E+03
      3.046  0.8198E+02  0.8519E+03
      3.069  0.9982E+02  0.8542E+03
      3.092  0.1172E+03  0.8569E+03
      3.115  0.1228E+03  0.8597E+03
      3.138  0.1192E+03  0.8625E+03
      3.161  0.9106E+02  0.8646E+03
      3.184  0.4718E+02  0.8656E+03
      3.207  0.1366E+02  0.8660E+03
      3.230  0.1768E+01  0.8660E+03
      3.253  0.8728E-01  0.8660E+03
      3.276  0.1504E-02  0.8660E+03
      3.299  0.8600E-05  0.8660E+03
      3.322  0.1589E-07  0.8660E+03
      3.346  0.9321E-11  0.8660E+03
      3.369  0.0000E+00  0.8660E+03
      3.392  0.0000E+00  0.8660E+03
      3.415  0.0000E+00  0.8660E+03
      3.438  0.0000E+00  0.8660E+03
      3.461  0.0000E+00  0.8660E+03
      3.484  0.0000E+00  0.8660E+03
