 running on   64 total cores
 distrk:  each k-point on   32 cores,    2 groups
 distr:  one band on   32 cores,    1 groups
 vasp.6.2.1 16May21 (build Nov 23 2021 15:40:41) complex                        
  
 POSCAR found type information on POSCAR Li
 POSCAR found :  1 types and     432 ions
 scaLAPACK will be used
 -----------------------------------------------------------------------------
|                                                                             |
|           W    W    AA    RRRRR   N    N  II  N    N   GGGG   !!!           |
|           W    W   A  A   R    R  NN   N  II  NN   N  G    G  !!!           |
|           W    W  A    A  R    R  N N  N  II  N N  N  G       !!!           |
|           W WW W  AAAAAA  RRRRR   N  N N  II  N  N N  G  GGG   !            |
|           WW  WW  A    A  R   R   N   NN  II  N   NN  G    G                |
|           W    W  A    A  R    R  N    N  II  N    N   GGGG   !!!           |
|                                                                             |
|     For optimal performance we recommend to set                             |
|       NCORE = 2 up to number-of-cores-per-socket                            |
|     NCORE specifies how many cores store one orbital (NPAR=cpu/NCORE).      |
|     This setting can greatly improve the performance of VASP for DFT.       |
|     The default, NCORE=1 might be grossly inefficient on modern             |
|     multi-core architectures or massively parallel machines. Do your        |
|     own testing! More info at https://www.vasp.at/wiki/index.php/NCORE      |
|     Unfortunately you need to use the default for GW and RPA                |
|     calculations (for HF NCORE is supported but not extensively tested      |
|     yet).                                                                   |
|                                                                             |
 -----------------------------------------------------------------------------

 -----------------------------------------------------------------------------
|                                                                             |
|               ----> ADVICE to this user running VASP <----                  |
|                                                                             |
|     You have a (more or less) 'large supercell' and for larger cells it     |
|     might be more efficient to use real-space projection operators.         |
|     Therefore, try LREAL= Auto in the INCAR file.                           |
|     Mind: If you want to do very accurate calculations, keep the            |
|     reciprocal projection scheme (i.e. LREAL=.FALSE.).                      |
|                                                                             |
 -----------------------------------------------------------------------------

 LDA part: xc-table for Pade appr. of Perdew
 POSCAR found type information on POSCAR Li
 POSCAR found :  1 types and     432 ions
 POSCAR, INCAR and KPOINTS ok, starting setup
 FFT: planning ...
 WAVECAR not read
 entering main loop
       N       E                     dE             d eps       ncg     rms          rms(c)
DAV:   1    -0.226354329591E+03   -0.22635E+03   -0.10483E+05  3464   0.656E+02
DAV:   2    -0.748048662204E+03   -0.52169E+03   -0.47662E+03  3980   0.674E+01
DAV:   3    -0.785946519913E+03   -0.37898E+02   -0.34613E+02  4440   0.144E+01
DAV:   4    -0.787242222676E+03   -0.12957E+01   -0.12779E+01  4024   0.290E+00
DAV:   5    -0.787272785380E+03   -0.30563E-01   -0.30518E-01  4176   0.469E-01    0.974E+00
DAV:   6    -0.779877752824E+03    0.73950E+01   -0.11173E+01  4032   0.451E+00    0.664E+00
DAV:   7    -0.775711837242E+03    0.41659E+01   -0.93448E+00  4128   0.426E+00    0.446E+00
DAV:   8    -0.773395595720E+03    0.23162E+01   -0.51373E+00  3952   0.228E+00    0.203E+00
DAV:   9    -0.773226510355E+03    0.16909E+00   -0.23857E+00  3808   0.125E+00    0.117E+00
DAV:  10    -0.773221598549E+03    0.49118E-02   -0.40932E-01  3968   0.647E-01    0.831E-01
DAV:  11    -0.773171453643E+03    0.50145E-01   -0.12557E-01  3936   0.428E-01    0.526E-01
DAV:  12    -0.773157312787E+03    0.14141E-01   -0.38033E-02  3840   0.190E-01    0.213E-01
DAV:  13    -0.773157365181E+03   -0.52393E-04   -0.12922E-02  3904   0.113E-01    0.123E-01
DAV:  14    -0.773156977623E+03    0.38756E-03   -0.35127E-03  3936   0.732E-02    0.880E-02
DAV:  15    -0.773156280304E+03    0.69732E-03   -0.10524E-03  3928   0.419E-02    0.438E-02
DAV:  16    -0.773156162278E+03    0.11803E-03   -0.54799E-04  3752   0.207E-02    0.158E-02
DAV:  17    -0.773156174606E+03   -0.12328E-04   -0.91140E-05  4144   0.118E-02    0.140E-02
DAV:  18    -0.773156147105E+03    0.27501E-04   -0.40117E-05  3576   0.799E-03    0.606E-03
DAV:  19    -0.773156141991E+03    0.51147E-05   -0.13063E-05  2048   0.370E-03
   1 F= -.77315614E+03 E0= -.77311385E+03  d E =-.845882E-01
