Li                                      
           1
    20.640000    0.000000    0.000000
     0.000000   20.640000    0.000000
     0.000000    0.000000   20.640000
   Li
   432
Direct configuration=     1
   0.99291203  0.98515447  0.98797648
   0.91621545  0.06261501  0.09146798
   0.81920326  0.15507949  0.16519811
   0.75265533  0.24724910  0.23883553
   0.66374686  0.33380527  0.32903951
   0.57540025  0.41073070  0.41998678
   0.51484900  0.51353683  0.49515474
   0.40150879  0.58856862  0.56182990
   0.33363697  0.63892615  0.68317287
   0.24522400  0.76195108  0.72706393
   0.17830145  0.81514793  0.86557091
   0.10200720  0.90116241  0.93289966
   0.10031880  0.89024949  0.06398837
   0.02163987  0.97840858  0.16246975
   0.92712682  0.10564922  0.26287141
   0.83203714  0.15166394  0.34188724
   0.75737221  0.25677720  0.42287615
   0.68172050  0.33006375  0.52516673
   0.57459198  0.42537219  0.58163682
   0.48635677  0.51251870  0.66367778
   0.42613426  0.58859826  0.78939770
   0.30420588  0.67622823  0.84381929
   0.22237220  0.75310832  0.91807049
   0.16484447  0.82502445  0.02690260
   0.16009232  0.80834751  0.17116323
   0.09190093  0.91208385  0.24174242
   0.03919373  0.98879102  0.31372942
   0.93113136  0.07622063  0.41339851
   0.84075948  0.15191221  0.50260635
   0.75542293  0.22449848  0.59125643
   0.66608846  0.34676474  0.67916434
   0.57627764  0.41214437  0.74307933
   0.49609505  0.52925467  0.86836002
   0.42420881  0.61683695  0.92966462
   0.32062991  0.65290639  0.00067506
   0.23032154  0.73380868  0.10300146
   0.24506545  0.73625133  0.25360034
   0.16917323  0.81897263  0.33254699
   0.10468743  0.90485446  0.40198581
   0.02947468  0.98617011  0.47839217
   0.94618148  0.05186933  0.54859821
   0.82601711  0.12986088  0.64747105
   0.74690911  0.24079578  0.73418611
   0.68581844  0.33666115  0.81575800
   0.60006556  0.40823074  0.92268876
   0.49497473  0.50068198  0.00117613
   0.42344748  0.59078175  0.08498867
   0.33071914  0.65736426  0.16858175
   0.34769520  0.64465894  0.32172201
   0.25113871  0.71680342  0.39355356
   0.16903404  0.81655160  0.49758364
   0.09268885  0.89958596  0.55931568
   0.04314008  0.98999275  0.63711124
   0.93110707  0.05484311  0.75224307
   0.82357841  0.15763007  0.82139539
   0.77138136  0.24104114  0.91534567
   0.68597950  0.34874586  0.00865415
   0.58474968  0.41693600  0.08662375
   0.52037041  0.51635932  0.17176546
   0.42272498  0.59631572  0.22838758
   0.42077395  0.55771331  0.41296996
   0.33127301  0.65666338  0.48954947
   0.26024467  0.75553511  0.58194259
   0.18555842  0.84101214  0.66011657
   0.10996460  0.93683831  0.78952106
   0.01663756  0.99298806  0.85653569
   0.91068819  0.08429285  0.88937499
   0.84122904  0.14381148  0.99057614
   0.75553604  0.24816488  0.07624575
   0.67639379  0.33273589  0.17391519
   0.56942769  0.43065223  0.25915728
   0.51419100  0.50833251  0.33101691
   0.09273978  0.09382873  0.91159701
   0.98157928  0.16443711  0.96603378
   0.91985637  0.23755914  0.07398595
   0.83365443  0.30608158  0.20079604
   0.73727553  0.40896167  0.24297929
   0.67596833  0.47690864  0.33211502
   0.62004648  0.55855148  0.41873727
   0.50506987  0.64706219  0.48765069
   0.39793127  0.73058099  0.59432364
   0.32936342  0.83102775  0.68663120
   0.24638183  0.94460658  0.77136977
   0.17454265  0.00165872  0.88353774
   0.16974911  0.99922769  0.99445431
   0.09632895  0.08423293  0.04749411
   0.00218324  0.12930558  0.15003747
   0.93983501  0.21706222  0.24774508
   0.84773502  0.33800012  0.34012416
   0.75143835  0.41755072  0.43179591
   0.67180390  0.48716882  0.49478589
   0.56798869  0.59497554  0.57947824
   0.48672124  0.63851063  0.68075099
   0.41772283  0.72822457  0.75045142
   0.32545224  0.82920457  0.83319956
   0.26240303  0.89240234  0.93133038
   0.25159458  0.91406001  0.09014194
   0.15827104  0.00635958  0.15537167
   0.07944318  0.09544595  0.23179904
   0.02191066  0.14839405  0.34056556
   0.92936606  0.24202510  0.42665749
   0.84795711  0.34686463  0.52543487
   0.74832727  0.42814216  0.59904087
   0.66430540  0.50763651  0.63772320
   0.58562302  0.57498656  0.76457746
   0.52133185  0.65657854  0.81144919
   0.41256983  0.73789417  0.92538930
   0.33302337  0.79905519  0.04911176
   0.33847852  0.83200565  0.17785515
   0.25075868  0.92528418  0.23739126
   0.17281576  0.00629301  0.29790747
   0.09461392  0.07920792  0.40333972
   0.03217711  0.16286511  0.51077229
   0.92330918  0.24811252  0.56308808
   0.83468476  0.30806347  0.64970866
   0.75363391  0.43033589  0.73826406
   0.65863830  0.49867616  0.80692867
   0.61812396  0.60074650  0.91197009
   0.52100877  0.66515364  0.98770325
   0.42651089  0.72174622  0.10847066
   0.41249114  0.76037389  0.25827844
   0.32985931  0.84279197  0.32553090
   0.24531694  0.91521167  0.40898307
   0.17394187  0.01917644  0.52370348
   0.09803376  0.10051544  0.59140227
   0.97343852  0.15868431  0.66732699
   0.87087788  0.26600090  0.75664193
   0.82533894  0.33790127  0.82884018
   0.76767208  0.43138709  0.89802327
   0.66638602  0.51199192  0.99917514
   0.59069560  0.59694320  0.09917324
   0.47299808  0.65468136  0.17318240
   0.51001431  0.64726515  0.34298421
   0.43773700  0.75606809  0.42080908
   0.33131531  0.81510341  0.48495789
   0.27295172  0.90562149  0.59050870
   0.17164882  0.00489090  0.66387885
   0.09255784  0.08591689  0.77013140
   0.99986030  0.18111478  0.82639109
   0.89863302  0.28103309  0.91272860
   0.81484941  0.32352981  0.01844360
   0.73744488  0.43666920  0.07866827
   0.66977619  0.49757839  0.18368083
   0.58093752  0.57187193  0.25374168
   0.16680734  0.19881275  0.82351937
   0.06034267  0.24880568  0.90252612
   0.99664830  0.31831797  0.99059398
   0.89008716  0.41157971  0.09099837
   0.82696679  0.49714658  0.17451137
   0.74166802  0.58834986  0.27045416
   0.65817600  0.67827161  0.35370417
   0.58794958  0.74638195  0.40956863
   0.51314912  0.82952696  0.50586925
   0.40470481  0.90853743  0.56892741
   0.35323904  0.02879491  0.68528672
   0.26193122  0.06636472  0.77247407
   0.26464365  0.11443542  0.91324775
   0.16166810  0.19428987  0.99652436
   0.05272782  0.23914829  0.09051762
   0.97473789  0.31580389  0.16572267
   0.90580197  0.41629643  0.25088331
   0.82926587  0.48514005  0.33763065
   0.75772564  0.60991018  0.42278348
   0.64518010  0.69564293  0.53420710
   0.54559402  0.73697543  0.60491091
   0.47339385  0.84429819  0.67676206
   0.40210159  0.92435419  0.77255806
   0.35899382  0.98481009  0.86724566
   0.35711849  0.00492846  0.01115494
   0.24354389  0.09990679  0.05742948
   0.18192606  0.16584548  0.16036245
   0.08135156  0.23135203  0.25267325
   0.98092088  0.30534711  0.32635742
   0.91731070  0.40210564  0.43358581
   0.84666575  0.50241403  0.50825612
   0.75956567  0.59147116  0.56655146
   0.66938198  0.65488501  0.63756721
   0.58514743  0.72783313  0.73876731
   0.50743673  0.83051742  0.82688821
   0.39995172  0.85536761  0.92328655
   0.40626953  0.91667135  0.08737323
   0.32388526  0.01996814  0.15393426
   0.23648546  0.09593858  0.24122659
   0.18126365  0.20752825  0.34526552
   0.09235606  0.26108812  0.41177220
   0.97690450  0.32199743  0.49833655
   0.90850552  0.42651306  0.60524268
   0.84015057  0.51466080  0.65549895
   0.75607680  0.59204850  0.75922605
   0.67568362  0.67968496  0.82924182
   0.59123914  0.76148286  0.91027160
   0.50449447  0.81352518  0.03497803
   0.49845270  0.82695887  0.19999907
   0.43276477  0.93570704  0.25261702
   0.33824718  0.01102976  0.32486360
   0.25972019  0.07605236  0.40621347
   0.19709379  0.13732886  0.49403517
   0.08356512  0.24473763  0.58736788
   0.97622383  0.33778532  0.66347421
   0.90232541  0.43532998  0.74319809
   0.84283212  0.51156589  0.83850313
   0.72399085  0.58310671  0.90514844
   0.69435106  0.67853138  0.01210163
   0.59275836  0.71960983  0.10452421
   0.58270247  0.74450908  0.26107729
   0.51301641  0.84985372  0.32898770
   0.40833713  0.90383837  0.40128779
   0.34229976  0.97101249  0.48521694
   0.28156117  0.07198989  0.59388283
   0.18472849  0.15934430  0.66162581
   0.06470384  0.24823103  0.71702767
   0.99910268  0.33965640  0.81146326
   0.91953339  0.42953238  0.91978048
   0.79993337  0.49836682  0.98936174
   0.76738221  0.60595625  0.08551346
   0.69195164  0.68092535  0.19983293
   0.23227128  0.25269080  0.73064544
   0.16131786  0.31732696  0.83696177
   0.08200321  0.41480399  0.91153240
   0.99857278  0.50375960  0.99326732
   0.89257911  0.57944587  0.06671920
   0.82441105  0.67954614  0.16346707
   0.73934672  0.75437173  0.28468460
   0.66262730  0.85648395  0.34793442
   0.57410985  0.93175738  0.42219947
   0.48369446  0.01040085  0.48600010
   0.39486380  0.10214812  0.57312179
   0.35406851  0.16101484  0.69303600
   0.34024466  0.16020329  0.82560532
   0.25705667  0.23916046  0.91056697
   0.17274133  0.34011318  0.99348394
   0.03569478  0.39104749  0.09005933
   0.96774508  0.50036684  0.18856886
   0.90130266  0.59643256  0.27576187
   0.83208768  0.70162555  0.33779576
   0.77969328  0.78203347  0.45432751
   0.64435115  0.83391773  0.52240716
   0.56483738  0.91726329  0.59373959
   0.49935817  0.00381880  0.65280419
   0.43325252  0.05663425  0.78892142
   0.42098633  0.08724937  0.92656111
   0.35108957  0.18505279  0.00189339
   0.23910082  0.24327089  0.08822677
   0.13857243  0.34333132  0.14382142
   0.02584617  0.41281314  0.26050663
   0.97469383  0.49614897  0.32559235
   0.91359493  0.58332794  0.42440740
   0.85149426  0.70493719  0.51383202
   0.73716043  0.76729418  0.58973386
   0.65828051  0.83742988  0.66194772
   0.58233298  0.89823680  0.74484236
   0.51069161  0.97445918  0.85667298
   0.50031596  0.98083396  0.00029222
   0.42674268  0.09108378  0.06663106
   0.34765458  0.19338207  0.16796393
   0.23749931  0.27309376  0.23599539
   0.14640928  0.33123707  0.31073427
   0.04506517  0.40586484  0.42343961
   0.96908278  0.51044652  0.53063697
   0.91447325  0.62698184  0.61253949
   0.83284750  0.66729187  0.66055334
   0.76646572  0.74127781  0.74422420
   0.67144170  0.83109713  0.82992048
   0.58733004  0.88130103  0.93682854
   0.57394066  0.92067555  0.12428565
   0.50704955  0.00959107  0.18141759
   0.39829280  0.09714391  0.24445159
   0.32610033  0.16796661  0.30941756
   0.28031472  0.27689941  0.40843660
   0.15756843  0.33126015  0.49951678
   0.04492531  0.42127895  0.58341274
   0.99330187  0.50438967  0.67650743
   0.93493811  0.59812019  0.72187244
   0.82106098  0.66864603  0.82852095
   0.74834206  0.76199390  0.91551162
   0.67542626  0.82690957  0.04630303
   0.65161148  0.82972177  0.20356764
   0.57676404  0.93813083  0.27463941
   0.50429544  0.00713929  0.34399369
   0.42305877  0.10050743  0.40804863
   0.31945129  0.18074547  0.49471217
   0.27395760  0.25850284  0.57599635
   0.17709667  0.34416734  0.67184024
   0.06930883  0.43081060  0.74557622
   0.00313526  0.51478496  0.83074457
   0.90941166  0.59271634  0.91149912
   0.82260085  0.67142889  0.96615628
   0.73995455  0.75254337  0.11582214
   0.33326654  0.33161727  0.67349999
   0.26333176  0.42926484  0.75835126
   0.14089256  0.48834397  0.82135944
   0.10316597  0.56689649  0.91389764
   0.99151152  0.64170385  0.99935841
   0.90848452  0.73727300  0.08497562
   0.82261847  0.84165415  0.18287138
   0.75445912  0.92362380  0.24844601
   0.66768775  0.99719560  0.36722679
   0.59443897  0.12582855  0.41286360
   0.48523325  0.19278366  0.49115949
   0.40233295  0.26047030  0.57312748
   0.38596090  0.26773646  0.75598547
   0.32573990  0.34454091  0.82385698
   0.24751504  0.44408614  0.92109423
   0.13940069  0.47756992  0.01612366
   0.07763465  0.57620188  0.09257323
   0.97146735  0.67121305  0.14676603
   0.90203996  0.75504280  0.25581273
   0.81039442  0.84770955  0.33662787
   0.73853497  0.90685074  0.44501897
   0.64994474  0.00530005  0.51319214
   0.56715860  0.11617578  0.56730520
   0.47751773  0.18441058  0.68524361
   0.49405751  0.18146627  0.82608969
   0.42169663  0.25493052  0.92493823
   0.33041372  0.35591447  0.00737717
   0.25185801  0.43407814  0.10490747
   0.12779831  0.49795935  0.17272444
   0.06548516  0.58903514  0.26519029
   0.98720096  0.63563679  0.34863970
   0.91195768  0.77578946  0.40210753
   0.83080724  0.84462546  0.50434776
   0.75333367  0.92229389  0.56966450
   0.64964691  0.03715510  0.63895547
   0.59798893  0.07751568  0.75967208
   0.61025034  0.05326577  0.90756508
   0.51493363  0.14953973  0.98246926
   0.42346277  0.25402610  0.07909353
   0.32815341  0.33219261  0.14256715
   0.21460259  0.40799383  0.23026559
   0.14293280  0.48311133  0.32789809
   0.07760881  0.57212826  0.39517774
   0.99841431  0.66513889  0.50027526
   0.94298931  0.79936071  0.58852439
   0.86300191  0.85909547  0.64910375
   0.78186925  0.91763139  0.74490572
   0.66058226  0.97242880  0.82209672
   0.64499655  0.97486093  0.01919275
   0.57403631  0.06846682  0.09408283
   0.51205055  0.17176402  0.13796650
   0.43348009  0.25968231  0.22701595
   0.33205841  0.33057169  0.28388371
   0.24704484  0.41149047  0.39580361
   0.14442175  0.50712757  0.49156191
   0.07219323  0.57574360  0.57115678
   0.00135812  0.68448368  0.66045477
   0.92120875  0.75599982  0.75092240
   0.85307271  0.84954398  0.83357439
   0.74724997  0.92561504  0.92045733
   0.76434639  0.91758300  0.09847069
   0.68237557  0.99598447  0.16149100
   0.60357459  0.08850100  0.24015785
   0.49218748  0.16489797  0.31953315
   0.40259885  0.24571566  0.40015448
   0.33163187  0.34785562  0.49281607
   0.26011900  0.40335791  0.58054359
   0.17171560  0.50403292  0.63922012
   0.08513508  0.59539074  0.72274406
   0.03219127  0.67526610  0.82634603
   0.92334687  0.74881894  0.90960141
   0.83167614  0.82211966  0.98886132
   0.43476362  0.44092811  0.56814895
   0.35924547  0.49963863  0.66444697
   0.25048557  0.54102057  0.73528862
   0.17316076  0.65034369  0.83432971
   0.06651144  0.72304548  0.92863423
   0.00568663  0.82238709  0.99465790
   0.91266582  0.89627190  0.07507072
   0.84038510  0.01480837  0.17752694
   0.72829707  0.07045702  0.25324834
   0.68033965  0.14161054  0.31888395
   0.60243522  0.24399187  0.43652831
   0.50139084  0.30750078  0.49829653
   0.47200651  0.33252769  0.64609287
   0.42895938  0.41596101  0.75904680
   0.34277353  0.51171627  0.84730673
   0.22925457  0.55969369  0.92465679
   0.19363782  0.63440346  0.97699300
   0.07886080  0.69945732  0.05959017
   0.00952627  0.82895108  0.15143922
   0.90845669  0.96440524  0.24297754
   0.83130489  0.02397060  0.34664100
   0.75656566  0.09966941  0.44104152
   0.66935735  0.16065358  0.51169242
   0.56915624  0.25219110  0.59643044
   0.58872502  0.25435567  0.75238933
   0.52132670  0.31862060  0.83119909
   0.40850685  0.41283439  0.91142044
   0.34259188  0.51248069  0.01202819
   0.23084303  0.57542617  0.10225037
   0.14820304  0.66117733  0.16141782
   0.05996958  0.73456040  0.27164773
   0.98129961  0.85898332  0.31742398
   0.91570071  0.93849563  0.38991156
   0.82798146  0.99499926  0.51025802
   0.76386922  0.06912689  0.57024855
   0.66889160  0.16854567  0.64206423
   0.67239274  0.16073443  0.82116341
   0.61480541  0.23783667  0.90807437
   0.53798500  0.32136107  0.99964756
   0.43703527  0.40519663  0.08518111
   0.34216867  0.49273037  0.15513095
   0.23413137  0.58505365  0.25893964
   0.14309804  0.66347726  0.33447319
   0.06040405  0.73904823  0.40231594
   0.99997378  0.84703437  0.49360764
   0.92280396  0.92639585  0.56009096
   0.84932836  0.01076788  0.64119554
   0.75523774  0.08770828  0.74117003
   0.72436061  0.06027212  0.92680737
   0.66952914  0.13574162  0.99492798
   0.60013657  0.25446439  0.06977690
   0.52766183  0.32853311  0.15666867
   0.42510249  0.44008026  0.24228083
   0.32528213  0.50789576  0.31339859
   0.21804304  0.58646525  0.38534799
   0.18720339  0.64738322  0.49659245
   0.08858171  0.75207959  0.58750660
   0.01900589  0.87465818  0.69827611
   0.94306210  0.96272097  0.75179387
   0.83670994  0.02183888  0.84561412
   0.82057080  0.01075472  0.99744114
   0.73217684  0.07845431  0.08514798
   0.67146440  0.17039539  0.13747027
   0.59602056  0.22345726  0.25894000
   0.48377629  0.32500069  0.32903356
   0.41262846  0.42944366  0.38497087
   0.31881710  0.51622420  0.48865906
   0.25496267  0.57886011  0.58041075
   0.16721496  0.69187975  0.64686789
   0.09285704  0.76046713  0.76672869
   0.00852881  0.82982828  0.85719137
   0.89235820  0.93670207  0.92853192
