 500 500   0   0
  0.2153794E+02  0.2208300E-08  0.2208300E-08  0.2208300E-08  0.5000000E-15
  1.000000000000000E-004
  CAR 
 Li                                      
      3.24776097     -3.50817044  301      0.24458728      1.00000000
     -3.508  0.0000E+00  0.0000E+00
     -3.486  0.0000E+00  0.0000E+00
     -3.463  0.0000E+00  0.0000E+00
     -3.441  0.0000E+00  0.0000E+00
     -3.418  0.0000E+00  0.0000E+00
     -3.396  0.0000E+00  0.0000E+00
     -3.373  0.2342E-13  0.5274E-15
     -3.351  0.8056E-10  0.1815E-11
     -3.328  0.9517E-07  0.2145E-08
     -3.305  0.3740E-04  0.8443E-06
     -3.283  0.4931E-02  0.1119E-03
     -3.260  0.2208E+00  0.5084E-02
     -3.238  0.3409E+01  0.8185E-01
     -3.215  0.1846E+02  0.4975E+00
     -3.193  0.3556E+02  0.1298E+01
     -3.170  0.2458E+02  0.1852E+01
     -3.148  0.6689E+01  0.2002E+01
     -3.125  0.9369E+01  0.2213E+01
     -3.103  0.4667E+02  0.3264E+01
     -3.080  0.9696E+02  0.5448E+01
     -3.058  0.8154E+02  0.7284E+01
     -3.035  0.2819E+02  0.7919E+01
     -3.013  0.9846E+01  0.8141E+01
     -2.990  0.3776E+02  0.8991E+01
     -2.968  0.9106E+02  0.1104E+02
     -2.945  0.8938E+02  0.1305E+02
     -2.923  0.3612E+02  0.1387E+02
     -2.900  0.1102E+02  0.1412E+02
     -2.878  0.3795E+02  0.1497E+02
     -2.855  0.1064E+03  0.1737E+02
     -2.833  0.1260E+03  0.2021E+02
     -2.810  0.6470E+02  0.2166E+02
     -2.788  0.2005E+02  0.2211E+02
     -2.765  0.4573E+02  0.2314E+02
     -2.742  0.1363E+03  0.2621E+02
     -2.720  0.1857E+03  0.3039E+02
     -2.697  0.1190E+03  0.3307E+02
     -2.675  0.3730E+02  0.3391E+02
     -2.652  0.1922E+02  0.3435E+02
     -2.630  0.6085E+02  0.3572E+02
     -2.607  0.1013E+03  0.3800E+02
     -2.585  0.6842E+02  0.3954E+02
     -2.562  0.2118E+02  0.4002E+02
     -2.540  0.2601E+02  0.4060E+02
     -2.517  0.9384E+02  0.4271E+02
     -2.495  0.1730E+03  0.4661E+02
     -2.472  0.1580E+03  0.5017E+02
     -2.450  0.7094E+02  0.5177E+02
     -2.427  0.4206E+02  0.5271E+02
     -2.405  0.1216E+03  0.5545E+02
     -2.382  0.2323E+03  0.6068E+02
     -2.360  0.2364E+03  0.6601E+02
     -2.337  0.1335E+03  0.6902E+02
     -2.315  0.4254E+02  0.6997E+02
     -2.292  0.3254E+02  0.7071E+02
     -2.270  0.7792E+02  0.7246E+02
     -2.247  0.9434E+02  0.7458E+02
     -2.225  0.5110E+02  0.7574E+02
     -2.202  0.2203E+02  0.7623E+02
     -2.180  0.6131E+02  0.7761E+02
     -2.157  0.1554E+03  0.8111E+02
     -2.134  0.2008E+03  0.8563E+02
     -2.112  0.1385E+03  0.8875E+02
     -2.089  0.5681E+02  0.9003E+02
     -2.067  0.6690E+02  0.9154E+02
     -2.044  0.1712E+03  0.9540E+02
     -2.022  0.2467E+03  0.1009E+03
     -1.999  0.2015E+03  0.1055E+03
     -1.977  0.9186E+02  0.1076E+03
     -1.954  0.3821E+02  0.1084E+03
     -1.932  0.8617E+02  0.1104E+03
     -1.909  0.1660E+03  0.1141E+03
     -1.887  0.1591E+03  0.1177E+03
     -1.864  0.8428E+02  0.1196E+03
     -1.842  0.5547E+02  0.1208E+03
     -1.819  0.1326E+03  0.1238E+03
     -1.797  0.2367E+03  0.1291E+03
     -1.774  0.2314E+03  0.1344E+03
     -1.752  0.1260E+03  0.1372E+03
     -1.729  0.5169E+02  0.1384E+03
     -1.707  0.9666E+02  0.1405E+03
     -1.684  0.2115E+03  0.1453E+03
     -1.662  0.2469E+03  0.1509E+03
     -1.639  0.1618E+03  0.1545E+03
     -1.617  0.6511E+02  0.1560E+03
     -1.594  0.6037E+02  0.1573E+03
     -1.571  0.1346E+03  0.1604E+03
     -1.549  0.1708E+03  0.1642E+03
     -1.526  0.1185E+03  0.1669E+03
     -1.504  0.5531E+02  0.1681E+03
     -1.481  0.6637E+02  0.1696E+03
     -1.459  0.1319E+03  0.1726E+03
     -1.436  0.1615E+03  0.1762E+03
     -1.414  0.1188E+03  0.1789E+03
     -1.391  0.6630E+02  0.1804E+03
     -1.369  0.1090E+03  0.1828E+03
     -1.346  0.2395E+03  0.1882E+03
     -1.324  0.3417E+03  0.1959E+03
     -1.301  0.3277E+03  0.2033E+03
     -1.279  0.2118E+03  0.2081E+03
     -1.256  0.1163E+03  0.2107E+03
     -1.234  0.1503E+03  0.2141E+03
     -1.211  0.2302E+03  0.2193E+03
     -1.189  0.2199E+03  0.2242E+03
     -1.166  0.1311E+03  0.2272E+03
     -1.144  0.6770E+02  0.2287E+03
     -1.121  0.7701E+02  0.2304E+03
     -1.099  0.1378E+03  0.2335E+03
     -1.076  0.1893E+03  0.2378E+03
     -1.054  0.1561E+03  0.2413E+03
     -1.031  0.1349E+03  0.2443E+03
     -1.008  0.2095E+03  0.2491E+03
     -0.986  0.2790E+03  0.2554E+03
     -0.963  0.2607E+03  0.2612E+03
     -0.941  0.1556E+03  0.2647E+03
     -0.918  0.5157E+02  0.2659E+03
     -0.896  0.2647E+02  0.2665E+03
     -0.873  0.6525E+02  0.2680E+03
     -0.851  0.9453E+02  0.2701E+03
     -0.828  0.6970E+02  0.2717E+03
     -0.806  0.7077E+02  0.2732E+03
     -0.783  0.1747E+03  0.2772E+03
     -0.761  0.2975E+03  0.2839E+03
     -0.738  0.3347E+03  0.2914E+03
     -0.716  0.3061E+03  0.2983E+03
     -0.693  0.2528E+03  0.3040E+03
     -0.671  0.2017E+03  0.3085E+03
     -0.648  0.2168E+03  0.3134E+03
     -0.626  0.2871E+03  0.3199E+03
     -0.603  0.2992E+03  0.3266E+03
     -0.581  0.2315E+03  0.3318E+03
     -0.558  0.1559E+03  0.3354E+03
     -0.536  0.1059E+03  0.3377E+03
     -0.513  0.1030E+03  0.3401E+03
     -0.491  0.1263E+03  0.3429E+03
     -0.468  0.1404E+03  0.3461E+03
     -0.445  0.1792E+03  0.3501E+03
     -0.423  0.2060E+03  0.3547E+03
     -0.400  0.2021E+03  0.3593E+03
     -0.378  0.1816E+03  0.3634E+03
     -0.355  0.1458E+03  0.3667E+03
     -0.333  0.1481E+03  0.3700E+03
     -0.310  0.2250E+03  0.3751E+03
     -0.288  0.3081E+03  0.3820E+03
     -0.265  0.3266E+03  0.3894E+03
     -0.243  0.2620E+03  0.3953E+03
     -0.220  0.1952E+03  0.3997E+03
     -0.198  0.2064E+03  0.4043E+03
     -0.175  0.2248E+03  0.4094E+03
     -0.153  0.1774E+03  0.4134E+03
     -0.130  0.1022E+03  0.4157E+03
     -0.108  0.8958E+02  0.4177E+03
     -0.085  0.1684E+03  0.4215E+03
     -0.063  0.2560E+03  0.4272E+03
     -0.040  0.2921E+03  0.4338E+03
     -0.018  0.2795E+03  0.4401E+03
      0.005  0.2315E+03  0.4453E+03
      0.027  0.2079E+03  0.4500E+03
      0.050  0.2325E+03  0.4552E+03
      0.072  0.2250E+03  0.4603E+03
      0.095  0.1802E+03  0.4644E+03
      0.118  0.1614E+03  0.4680E+03
      0.140  0.2007E+03  0.4725E+03
      0.163  0.2599E+03  0.4784E+03
      0.185  0.2887E+03  0.4849E+03
      0.208  0.2812E+03  0.4912E+03
      0.230  0.2502E+03  0.4968E+03
      0.253  0.2134E+03  0.5016E+03
      0.275  0.2102E+03  0.5064E+03
      0.298  0.2433E+03  0.5119E+03
      0.320  0.2606E+03  0.5177E+03
      0.343  0.2436E+03  0.5232E+03
      0.365  0.2402E+03  0.5286E+03
      0.388  0.2828E+03  0.5350E+03
      0.410  0.3375E+03  0.5426E+03
      0.433  0.3722E+03  0.5510E+03
      0.455  0.3796E+03  0.5595E+03
      0.478  0.3533E+03  0.5675E+03
      0.500  0.3122E+03  0.5745E+03
      0.523  0.2894E+03  0.5810E+03
      0.545  0.2834E+03  0.5874E+03
      0.568  0.2664E+03  0.5934E+03
      0.590  0.2477E+03  0.5990E+03
      0.613  0.2525E+03  0.6047E+03
      0.635  0.2423E+03  0.6101E+03
      0.658  0.1745E+03  0.6141E+03
      0.681  0.8677E+02  0.6160E+03
      0.703  0.7738E+02  0.6178E+03
      0.726  0.1300E+03  0.6207E+03
      0.748  0.1634E+03  0.6244E+03
      0.771  0.1777E+03  0.6284E+03
      0.793  0.1758E+03  0.6323E+03
      0.816  0.1765E+03  0.6363E+03
      0.838  0.2130E+03  0.6411E+03
      0.861  0.2519E+03  0.6468E+03
      0.883  0.2584E+03  0.6526E+03
      0.906  0.2497E+03  0.6582E+03
      0.928  0.2610E+03  0.6641E+03
      0.951  0.2865E+03  0.6705E+03
      0.973  0.3000E+03  0.6773E+03
      0.996  0.3033E+03  0.6841E+03
      1.018  0.3027E+03  0.6909E+03
      1.041  0.2969E+03  0.6976E+03
      1.063  0.2860E+03  0.7041E+03
      1.086  0.2616E+03  0.7100E+03
      1.108  0.2150E+03  0.7148E+03
      1.131  0.1601E+03  0.7184E+03
      1.153  0.1493E+03  0.7218E+03
      1.176  0.1814E+03  0.7258E+03
      1.198  0.2233E+03  0.7309E+03
      1.221  0.2552E+03  0.7366E+03
      1.244  0.2642E+03  0.7426E+03
      1.266  0.2576E+03  0.7484E+03
      1.289  0.2429E+03  0.7538E+03
      1.311  0.2189E+03  0.7588E+03
      1.334  0.1970E+03  0.7632E+03
      1.356  0.1817E+03  0.7673E+03
      1.379  0.1547E+03  0.7708E+03
      1.401  0.1369E+03  0.7739E+03
      1.424  0.1536E+03  0.7773E+03
      1.446  0.1578E+03  0.7809E+03
      1.469  0.1397E+03  0.7840E+03
      1.491  0.1305E+03  0.7870E+03
      1.514  0.1184E+03  0.7896E+03
      1.536  0.1073E+03  0.7920E+03
      1.559  0.1218E+03  0.7948E+03
      1.581  0.1475E+03  0.7981E+03
      1.604  0.1854E+03  0.8023E+03
      1.626  0.2290E+03  0.8074E+03
      1.649  0.2631E+03  0.8134E+03
      1.671  0.2796E+03  0.8197E+03
      1.694  0.2800E+03  0.8260E+03
      1.716  0.2729E+03  0.8321E+03
      1.739  0.2655E+03  0.8381E+03
      1.761  0.2626E+03  0.8440E+03
      1.784  0.2612E+03  0.8499E+03
      1.806  0.2429E+03  0.8554E+03
      1.829  0.2155E+03  0.8602E+03
      1.852  0.1996E+03  0.8647E+03
      1.874  0.1826E+03  0.8688E+03
      1.897  0.1731E+03  0.8727E+03
      1.919  0.1623E+03  0.8764E+03
      1.942  0.1198E+03  0.8791E+03
      1.964  0.8190E+02  0.8809E+03
      1.987  0.9786E+02  0.8831E+03
      2.009  0.1288E+03  0.8860E+03
      2.032  0.1552E+03  0.8895E+03
      2.054  0.1690E+03  0.8933E+03
      2.077  0.1622E+03  0.8970E+03
      2.099  0.1613E+03  0.9006E+03
      2.122  0.1754E+03  0.9046E+03
      2.144  0.1829E+03  0.9087E+03
      2.167  0.1811E+03  0.9128E+03
      2.189  0.1672E+03  0.9165E+03
      2.212  0.1391E+03  0.9197E+03
      2.234  0.1208E+03  0.9224E+03
      2.257  0.1307E+03  0.9253E+03
      2.279  0.1501E+03  0.9287E+03
      2.302  0.1494E+03  0.9321E+03
      2.324  0.1292E+03  0.9350E+03
      2.347  0.1207E+03  0.9377E+03
      2.369  0.1246E+03  0.9405E+03
      2.392  0.1128E+03  0.9430E+03
      2.415  0.8622E+02  0.9450E+03
      2.437  0.7773E+02  0.9467E+03
      2.460  0.1063E+03  0.9491E+03
      2.482  0.1347E+03  0.9522E+03
      2.505  0.1454E+03  0.9554E+03
      2.527  0.1572E+03  0.9590E+03
      2.550  0.1652E+03  0.9627E+03
      2.572  0.1663E+03  0.9664E+03
      2.595  0.1697E+03  0.9703E+03
      2.617  0.1797E+03  0.9743E+03
      2.640  0.1821E+03  0.9784E+03
      2.662  0.1648E+03  0.9821E+03
      2.685  0.1356E+03  0.9852E+03
      2.707  0.8611E+02  0.9871E+03
      2.730  0.3280E+02  0.9878E+03
      2.752  0.6231E+01  0.9880E+03
      2.775  0.6528E+00  0.9880E+03
      2.797  0.2634E+01  0.9881E+03
      2.820  0.1898E+02  0.9885E+03
      2.842  0.6232E+02  0.9899E+03
      2.865  0.1100E+03  0.9924E+03
      2.887  0.1282E+03  0.9953E+03
      2.910  0.1254E+03  0.9981E+03
      2.932  0.1043E+03  0.1000E+04
      2.955  0.5404E+02  0.1002E+04
      2.978  0.1400E+02  0.1002E+04
      3.000  0.1637E+01  0.1002E+04
      3.023  0.7999E-01  0.1002E+04
      3.045  0.1519E-02  0.1002E+04
      3.068  0.1054E-04  0.1002E+04
      3.090  0.2562E-07  0.1002E+04
      3.113  0.2118E-10  0.1002E+04
      3.135  0.4930E-14  0.1002E+04
      3.158  0.0000E+00  0.1002E+04
      3.180  0.0000E+00  0.1002E+04
      3.203  0.0000E+00  0.1002E+04
      3.225  0.0000E+00  0.1002E+04
      3.248  0.0000E+00  0.1002E+04
