Li                                      
           1
    22.083000   -0.000000    0.000000
    -0.000000   22.083000    0.000000
     0.000000    0.000000   22.083000
   Li
   500
Direct configuration=     1
   0.00991086  0.99364748  0.01516133
   0.99814459  0.10900472  0.09591600
   0.99947097  0.20416051  0.21005980
   0.00826452  0.31053307  0.30384022
   0.99556378  0.40468154  0.39368368
   0.99691410  0.50893949  0.48511094
   0.01084491  0.60871149  0.60245705
   0.00644173  0.69189394  0.70893069
   0.02210546  0.79572155  0.80162576
   0.00980150  0.90175074  0.88971223
   0.11317275  0.01143182  0.11316387
   0.08210577  0.10953222  0.20803828
   0.09885625  0.19815675  0.30526761
   0.10424046  0.29214457  0.41066515
   0.08371207  0.40149151  0.50442456
   0.08767803  0.49641669  0.59419420
   0.10746807  0.58708816  0.69286545
   0.10957117  0.68952947  0.80068413
   0.12298580  0.80885665  0.90894614
   0.12034571  0.90143466  0.99538585
   0.19895166  0.00723359  0.20952535
   0.19871846  0.09918779  0.31808211
   0.20220749  0.20185041  0.41212498
   0.19028650  0.30791012  0.51306610
   0.20466595  0.40469250  0.60800440
   0.20335194  0.49998178  0.69692944
   0.20530359  0.59142437  0.79837231
   0.21051496  0.69993827  0.88366120
   0.19597023  0.80327760  0.99984816
   0.18844870  0.90475529  0.11474352
   0.30069326  0.99484304  0.29140892
   0.30050886  0.10387501  0.39945404
   0.30083475  0.20392338  0.51285205
   0.31326814  0.29711125  0.61852098
   0.29564623  0.39806435  0.70305829
   0.29711803  0.49100975  0.80287143
   0.30585383  0.59770540  0.90531743
   0.29820469  0.69335049  0.00406369
   0.28207928  0.80612119  0.09113186
   0.29783126  0.90549938  0.19507053
   0.41945714  0.99867368  0.40418055
   0.40255766  0.11178002  0.51028229
   0.40891216  0.19946316  0.59905499
   0.40443910  0.30221914  0.69773116
   0.39880766  0.37761435  0.79213471
   0.39643318  0.50393592  0.88135953
   0.40721475  0.58062651  0.00363804
   0.39481590  0.70665168  0.10639522
   0.40126832  0.81834965  0.19142113
   0.41049641  0.89649907  0.30645552
   0.50352041  0.01327330  0.50710263
   0.52143601  0.11976602  0.61146981
   0.49600142  0.19534575  0.71957047
   0.51006957  0.31231582  0.79592239
   0.50424365  0.39496695  0.89101044
   0.50456388  0.49029816  0.98495758
   0.49509499  0.60701072  0.09478223
   0.50791071  0.70085916  0.19600522
   0.52157779  0.79994723  0.29145542
   0.51607382  0.90844076  0.39811234
   0.60969036  0.99863644  0.59893953
   0.61148953  0.10748174  0.69667962
   0.60402812  0.19990714  0.81035014
   0.61410267  0.29390751  0.90585974
   0.60126626  0.39387851  0.00060678
   0.58579897  0.50573217  0.10021885
   0.59497352  0.59781709  0.18620124
   0.59781587  0.70071491  0.29253755
   0.61079943  0.81599082  0.39645586
   0.59013010  0.90730107  0.51204406
   0.71216560  0.99451597  0.68908920
   0.70149427  0.10073064  0.81074825
   0.70701745  0.19330429  0.90517145
   0.70519458  0.29714840  0.00099670
   0.68867840  0.39221101  0.10602980
   0.68899409  0.50067947  0.18046099
   0.69972598  0.59665838  0.29628768
   0.69059031  0.70870548  0.39239499
   0.70431860  0.80473325  0.51466426
   0.70357137  0.89998317  0.59799019
   0.79240964  0.99286820  0.78672220
   0.79033408  0.10294791  0.90562059
   0.80345710  0.20281989  0.01649007
   0.80165184  0.31797188  0.09742345
   0.78155891  0.42057212  0.19220131
   0.79589331  0.50479625  0.30065983
   0.81414353  0.60728516  0.39998675
   0.79421888  0.68828986  0.51684714
   0.79557621  0.79864264  0.61220159
   0.79579085  0.89827617  0.69507758
   0.90788140  0.99602014  0.90190497
   0.89319349  0.09795635  0.00518219
   0.89263949  0.20534553  0.10700127
   0.89450002  0.31910453  0.19618944
   0.89950956  0.39670811  0.29661587
   0.89721920  0.50404860  0.39364390
   0.90661157  0.60932931  0.50400228
   0.87764371  0.69255674  0.61131711
   0.90096603  0.80603170  0.70739680
   0.89786151  0.88766358  0.79389522
   0.10577342  0.10796828  0.99283497
   0.09954358  0.20549176  0.10757647
   0.09262574  0.29817356  0.20645781
   0.09364812  0.40038059  0.30665711
   0.07860060  0.49787107  0.40521510
   0.08669977  0.61370142  0.50007099
   0.09876389  0.71049435  0.59435407
   0.09921529  0.80839607  0.69035907
   0.10710216  0.90873305  0.78829122
   0.10969316  0.98152122  0.90610127
   0.19790801  0.10919386  0.09680471
   0.19226519  0.19055483  0.19106242
   0.19947555  0.30559860  0.30334053
   0.19457445  0.39529832  0.39592175
   0.18663122  0.49376194  0.49554276
   0.20196576  0.59901870  0.59958539
   0.19489100  0.71452711  0.70783588
   0.18696029  0.80298253  0.80164839
   0.19310811  0.90841080  0.89069280
   0.20483749  0.00134743  0.01463984
   0.28801292  0.09873651  0.19713213
   0.29117271  0.20678351  0.28423903
   0.28958708  0.30868425  0.40991302
   0.29076421  0.39999890  0.50944649
   0.29964067  0.50307660  0.60981650
   0.31509106  0.59346990  0.70365707
   0.29935988  0.70460275  0.80654393
   0.29937253  0.79807587  0.91043439
   0.28240595  0.90446975  0.99874998
   0.30528307  0.00917165  0.11250621
   0.38853648  0.10289553  0.29373908
   0.38500625  0.21051613  0.41109647
   0.41173465  0.30168668  0.50142059
   0.39137584  0.40790943  0.59990973
   0.40458762  0.48631930  0.70906845
   0.39652816  0.60020782  0.78793463
   0.40666900  0.69000615  0.90919594
   0.39955126  0.80262929  0.00880744
   0.40013342  0.89330737  0.09439770
   0.41071389  0.98479970  0.19310294
   0.48683710  0.10630993  0.39353114
   0.49413201  0.21191747  0.49810885
   0.49680907  0.29302834  0.61510928
   0.50363759  0.38127559  0.69651240
   0.49592776  0.49457638  0.80224594
   0.50529374  0.58039207  0.90383534
   0.49161858  0.70625182  0.00988732
   0.50662385  0.80753798  0.10997551
   0.50699050  0.90505447  0.20004987
   0.50440326  0.99254815  0.29721702
   0.61718197  0.11967825  0.49611757
   0.60988198  0.20449287  0.59941703
   0.60872742  0.28506030  0.69733210
   0.60421943  0.40114147  0.79539721
   0.58822813  0.50214696  0.90428370
   0.59780486  0.60482593  0.00452144
   0.61417335  0.69352923  0.08355363
   0.62858660  0.80237794  0.19225875
   0.62078096  0.90416322  0.29834348
   0.60035567  0.01903221  0.39954431
   0.70589052  0.10657472  0.58721257
   0.70304209  0.19707392  0.69260228
   0.70494895  0.29707824  0.81664180
   0.69734946  0.40814842  0.88639219
   0.68263351  0.49792678  0.00606844
   0.70738221  0.60778001  0.09152833
   0.70982371  0.68703316  0.19600236
   0.70410266  0.79805451  0.29156762
   0.69704135  0.90793929  0.40521921
   0.69255498  0.00323790  0.50020984
   0.79573404  0.10248836  0.69102687
   0.78378624  0.20762459  0.79258770
   0.78750438  0.29952583  0.91105007
   0.78490622  0.41199113  0.99094832
   0.79856531  0.50527435  0.09704371
   0.80321027  0.58663395  0.19177428
   0.80422853  0.69212075  0.30030219
   0.80136486  0.79181440  0.41143831
   0.81502479  0.90168824  0.51284876
   0.81355838  0.00208819  0.59107896
   0.88855809  0.10973114  0.80903380
   0.90350219  0.19599556  0.90300499
   0.88850334  0.30427444  0.99176242
   0.89133446  0.41408364  0.08732440
   0.89872712  0.50222379  0.20026980
   0.89125566  0.59937493  0.30537211
   0.89950506  0.70749373  0.40642058
   0.89748683  0.79233326  0.51214028
   0.89902519  0.89390135  0.60932945
   0.89191465  0.99468917  0.70216013
   0.00688558  0.10503825  0.90590646
   0.99429948  0.19969299  0.00254186
   0.98674348  0.31011749  0.10907981
   0.99337464  0.41650421  0.19661101
   0.98277247  0.50929276  0.30388151
   0.99896187  0.60852272  0.39628546
   0.98784142  0.71055184  0.50932424
   0.98329180  0.79486369  0.61732941
   0.00303610  0.90683219  0.69700942
   0.00612206  0.99702183  0.79616418
   0.19927202  0.20788115  0.98756654
   0.19770622  0.30226949  0.08561327
   0.18311708  0.40650451  0.18746193
   0.18942807  0.49435458  0.29168366
   0.18855174  0.60163160  0.38855237
   0.20566263  0.69809306  0.49152430
   0.20313779  0.80012697  0.59780493
   0.20435439  0.91164622  0.69949071
   0.20059529  0.99912665  0.79056696
   0.19782967  0.09187707  0.91088024
   0.30671847  0.21151207  0.09296377
   0.29402099  0.30229131  0.18362471
   0.30553671  0.40019445  0.28343244
   0.29007333  0.49274173  0.40098582
   0.29086669  0.59778928  0.48501195
   0.30834109  0.68902324  0.60445747
   0.29708173  0.80358168  0.70138186
   0.30550007  0.89080390  0.79233760
   0.29735538  0.00238314  0.89354710
   0.30336692  0.10100329  0.00138423
   0.40225420  0.19478995  0.19704499
   0.38654077  0.28705116  0.31618043
   0.39624441  0.39539863  0.38849942
   0.39291257  0.49609589  0.49738103
   0.40989419  0.59469382  0.60985143
   0.38751668  0.71238402  0.71109734
   0.39157390  0.80434854  0.80762700
   0.40083134  0.90959441  0.91796063
   0.39926086  0.97873576  0.00973697
   0.39147340  0.10599906  0.11440595
   0.48694179  0.19489989  0.30184430
   0.50402343  0.30384257  0.39275636
   0.49328449  0.39163417  0.50420470
   0.50429305  0.50538633  0.59087825
   0.49572723  0.59254731  0.70276137
   0.49649883  0.70205337  0.81040307
   0.49070752  0.80291626  0.89652378
   0.50673559  0.89917061  0.99166505
   0.50692779  0.00168906  0.10295916
   0.49050823  0.09080305  0.20717326
   0.59616998  0.18957825  0.39159227
   0.60053074  0.29937716  0.48702067
   0.59835992  0.37417731  0.60396023
   0.58856891  0.50253556  0.69121691
   0.58806462  0.59919234  0.79677764
   0.58464908  0.69066946  0.91107443
   0.59985282  0.81549625  0.99003528
   0.60991481  0.90627947  0.10978076
   0.60288309  0.99681555  0.19720553
   0.59873820  0.09855818  0.29771697
   0.70862101  0.21471920  0.49341746
   0.71025931  0.29852962  0.59005481
   0.70074673  0.40788293  0.71207566
   0.68921002  0.49742177  0.79317736
   0.69502995  0.58709092  0.89760971
   0.71066029  0.69866193  0.99674893
   0.69944933  0.79938711  0.08814603
   0.72179169  0.89829568  0.20832364
   0.72074814  0.01360608  0.29965850
   0.71468733  0.10986779  0.40081411
   0.81924979  0.20006190  0.60645351
   0.79499976  0.29282672  0.70220912
   0.78942230  0.39829053  0.80448467
   0.79105289  0.50397324  0.89169451
   0.80668069  0.58441263  0.00518333
   0.81989227  0.70239810  0.10004485
   0.81736432  0.79701393  0.19925276
   0.79800426  0.89991485  0.30369025
   0.80060174  0.00395800  0.40151305
   0.78713095  0.10402659  0.50237423
   0.90661546  0.20153555  0.71179656
   0.89393879  0.29965452  0.80357469
   0.89795417  0.40964275  0.87717117
   0.90007167  0.50397154  0.99993689
   0.90446164  0.59172283  0.11029455
   0.89991985  0.70542352  0.21261082
   0.90394090  0.81022245  0.30759144
   0.91213375  0.89301319  0.42205924
   0.89420875  0.00601239  0.49832324
   0.89351759  0.08467544  0.61398560
   0.99864231  0.19939741  0.79286103
   0.99580483  0.30358005  0.87545292
   0.99706788  0.40409337  0.99307104
   0.99827471  0.50002628  0.09888043
   0.99466726  0.59482089  0.19558914
   0.01302873  0.68771105  0.31393669
   0.00340989  0.79499695  0.40117951
   0.98794321  0.90198270  0.51181482
   0.99796747  0.99884338  0.60332547
   0.00413495  0.07793819  0.69964857
   0.09157584  0.21292845  0.89856342
   0.08514226  0.29661781  0.97683066
   0.09811535  0.39417092  0.09440842
   0.09134795  0.49081421  0.20326173
   0.10649817  0.60350583  0.29163180
   0.10403824  0.69924571  0.40125743
   0.10637379  0.80433561  0.49129650
   0.09918952  0.89537705  0.59638597
   0.10752973  0.98843241  0.69128030
   0.10761547  0.07962129  0.80128878
   0.30473668  0.30425541  0.97695315
   0.29753953  0.39724132  0.08757789
   0.29752995  0.49278678  0.18233257
   0.29857984  0.60254654  0.30161162
   0.30533552  0.70949865  0.39004359
   0.29850649  0.79967929  0.50751816
   0.31357773  0.89354325  0.60754242
   0.31213701  0.98620027  0.69836850
   0.30617900  0.09789613  0.79274687
   0.30442830  0.19595510  0.89410317
   0.40381958  0.30236389  0.09126001
   0.39713227  0.40720207  0.18885283
   0.40522986  0.49092139  0.29095232
   0.39839512  0.59551851  0.39592074
   0.39208787  0.68390728  0.49690763
   0.39546718  0.78411640  0.59532723
   0.41155228  0.88458843  0.69509698
   0.41302269  0.99061040  0.79729547
   0.39696513  0.09796263  0.89535969
   0.39882535  0.19601787  0.00176486
   0.47843654  0.28785171  0.19425529
   0.48028164  0.38985677  0.28555198
   0.49497220  0.50331812  0.40866100
   0.50496725  0.59931944  0.50794749
   0.49868317  0.69847202  0.59727288
   0.50256151  0.79845987  0.70588497
   0.50305784  0.90434343  0.80683810
   0.50850267  0.00557588  0.90291143
   0.48506655  0.08204173  0.01048404
   0.50295460  0.20731784  0.09521804
   0.59817736  0.30992457  0.29601731
   0.58531893  0.39766996  0.39771414
   0.59821388  0.49367402  0.50119951
   0.59986627  0.59145477  0.60270238
   0.59324506  0.70984970  0.70567957
   0.60162287  0.80063200  0.81751260
   0.59883290  0.90565896  0.89044455
   0.61005329  0.00421489  0.99962657
   0.60012330  0.10354915  0.10749127
   0.58297391  0.19918446  0.20313189
   0.69007071  0.29524953  0.38993723
   0.69948782  0.39739090  0.49562925
   0.69100147  0.49208110  0.60132847
   0.68803216  0.59245199  0.71864529
   0.69841163  0.69827521  0.80254772
   0.70332408  0.79755022  0.90745100
   0.69295741  0.90428727  0.01104798
   0.70821703  0.01425650  0.11254716
   0.71406823  0.10515696  0.20772016
   0.68996052  0.20783808  0.28597444
   0.81643086  0.32032911  0.51451053
   0.80384433  0.41731555  0.60027492
   0.79472517  0.51004743  0.69789783
   0.79629557  0.61493976  0.79641713
   0.81193964  0.69168328  0.89502810
   0.79944589  0.80324911  0.98190796
   0.79188679  0.88060465  0.10901566
   0.80591458  0.99818471  0.19994810
   0.80445657  0.10471643  0.28904086
   0.80077199  0.20444835  0.40651452
   0.90508096  0.31124026  0.61541599
   0.89486456  0.40085087  0.71158233
   0.89797748  0.50070669  0.80401132
   0.90237947  0.59937172  0.88110873
   0.90090341  0.69466225  0.00078627
   0.92770950  0.80138436  0.09925800
   0.89594580  0.90183192  0.19959744
   0.89786064  0.00210978  0.30565191
   0.88873138  0.10086672  0.40062678
   0.89952412  0.20059594  0.50904252
   0.99096061  0.31483008  0.71342721
   0.00612330  0.41206435  0.78930399
   0.00370456  0.50978597  0.89071456
   0.99363735  0.60773653  0.99295390
   0.01081784  0.69879746  0.09980528
   0.99869989  0.79390819  0.20917446
   0.01058510  0.91011766  0.29789678
   0.00394076  0.99855195  0.40002081
   0.99221973  0.10005293  0.51039932
   0.00866921  0.18317257  0.60631984
   0.09371411  0.29926737  0.78465261
   0.09722263  0.39739092  0.90204168
   0.08156395  0.51434987  0.99957316
   0.10196305  0.59010193  0.09864624
   0.10089525  0.69920682  0.19305860
   0.09630489  0.79493948  0.31380043
   0.09882510  0.89505254  0.39300133
   0.10700809  0.98832792  0.49954708
   0.12097150  0.08997360  0.59513201
   0.08531935  0.20379034  0.70683523
   0.18394670  0.30084013  0.87327459
   0.18599004  0.39966815  0.00007411
   0.19701999  0.50536592  0.09589258
   0.20029855  0.60996304  0.19573329
   0.20320948  0.70548330  0.29876910
   0.21300954  0.79915689  0.39929313
   0.20036673  0.89984432  0.49876623
   0.21543259  0.00292015  0.57959624
   0.20372458  0.08790624  0.69582002
   0.19988076  0.19249088  0.78195109
   0.40323951  0.40404440  0.98014852
   0.40881440  0.50044316  0.09762565
   0.39929580  0.59744587  0.20570521
   0.39354704  0.72009308  0.30578787
   0.39606370  0.81832399  0.41194330
   0.40683416  0.91440240  0.50669029
   0.41500848  0.99798845  0.60137302
   0.41166733  0.08719762  0.71831557
   0.40789513  0.19378138  0.80506416
   0.40555491  0.29383370  0.89502988
   0.49970407  0.38250913  0.09688307
   0.48253901  0.50372791  0.19144205
   0.49558939  0.61242303  0.29426098
   0.48979515  0.69827663  0.39465090
   0.50125891  0.78581789  0.49325326
   0.50217004  0.89352258  0.60380497
   0.51100230  0.99409281  0.68426323
   0.52209495  0.09018168  0.81116315
   0.51280136  0.20173489  0.90511814
   0.50823215  0.29528593  0.01601230
   0.59020544  0.38771745  0.19881256
   0.57284175  0.50025871  0.29348726
   0.59589176  0.60136575  0.40749903
   0.59965998  0.69317733  0.49850081
   0.61024569  0.79807492  0.60142984
   0.62358183  0.89435678  0.69234230
   0.61794755  0.99180718  0.78869323
   0.59866934  0.09539602  0.90239365
   0.61058054  0.18333439  0.99732258
   0.59561745  0.28513663  0.09663816
   0.68394767  0.41660277  0.29858813
   0.69844413  0.50833987  0.38841994
   0.69559168  0.59089681  0.49046971
   0.69461582  0.68467958  0.62305395
   0.70603160  0.79064816  0.71576590
   0.71692901  0.90480163  0.79620889
   0.70971270  0.99336303  0.91643966
   0.70330524  0.09758922  0.01860177
   0.70579018  0.20406698  0.12165242
   0.68478618  0.32321158  0.19259564
   0.80846377  0.40064795  0.40079106
   0.80205544  0.49823389  0.49560846
   0.78264876  0.57965778  0.60216193
   0.78789556  0.69412209  0.70822390
   0.79032861  0.79805638  0.79153043
   0.80810533  0.89664587  0.91234130
   0.82080987  0.99943897  0.00717398
   0.81198880  0.11826660  0.11654758
   0.78967056  0.21775259  0.20119303
   0.78105390  0.31369287  0.28580744
   0.90044452  0.41367583  0.49178687
   0.89374941  0.50818852  0.58963645
   0.89455623  0.60020387  0.71120300
   0.90474945  0.71512919  0.80987083
   0.90750913  0.80208450  0.90186301
   0.91074450  0.90818524  0.00813805
   0.89459297  0.00690761  0.12118230
   0.90968499  0.12074789  0.20265088
   0.89061810  0.21611037  0.29956907
   0.89487408  0.30200644  0.39667165
   0.00186383  0.40207802  0.59679825
   0.98901782  0.50294053  0.69381720
   0.99815665  0.59085957  0.79370315
   0.00738071  0.69406553  0.89973592
   0.01405757  0.79997653  0.00718373
   0.01380692  0.90412519  0.10728190
   0.98568628  0.00280258  0.19906690
   0.99460452  0.09079137  0.31068465
   0.98913903  0.18946225  0.38402181
   0.99001484  0.28984010  0.49558926
   0.10357660  0.40251104  0.69538351
   0.09806585  0.49678539  0.80033950
   0.10599300  0.59875973  0.88294791
   0.10171181  0.70148663  0.99901050
   0.10817640  0.80123906  0.10615698
   0.07619014  0.90653542  0.21060912
   0.09783702  0.01301507  0.30040538
   0.10223273  0.09830336  0.39550582
   0.09425447  0.18218249  0.50156980
   0.08708147  0.28840898  0.60669600
   0.19825633  0.39023619  0.80200754
   0.20214949  0.49453729  0.90273684
   0.19214295  0.60331946  0.99701076
   0.20390077  0.68242367  0.10160008
   0.18652326  0.78269164  0.20665102
   0.19822192  0.89040769  0.28814180
   0.18842053  0.98933693  0.39980353
   0.20956390  0.08729768  0.51543023
   0.19143201  0.19480443  0.59218980
   0.19733986  0.29036547  0.68368781
   0.30191420  0.39104687  0.88551440
   0.29844211  0.49965814  0.99141521
   0.30087734  0.59480410  0.08902941
   0.29101244  0.69350329  0.18067598
   0.29399798  0.80272988  0.28755269
   0.31927650  0.89639708  0.39376278
   0.30803353  0.00318943  0.48970449
   0.29522910  0.08580108  0.62132441
   0.31839995  0.18514411  0.69018347
   0.30996113  0.28937380  0.78657550
