 504 504   0   0
  0.1982611E+02  0.2127286E-08  0.2105467E-08  0.2230970E-08  0.5000000E-15
  1.000000000000000E-004
  CAR 
 Li                                      
      3.63627358     -3.42069252  301      0.46055682      1.00000000
     -3.421  0.0000E+00  0.0000E+00
     -3.397  0.0000E+00  0.0000E+00
     -3.374  0.0000E+00  0.0000E+00
     -3.350  0.0000E+00  0.0000E+00
     -3.327  0.0000E+00  0.0000E+00
     -3.303  0.0000E+00  0.0000E+00
     -3.280  0.0000E+00  0.0000E+00
     -3.256  0.7377E-11  0.1735E-12
     -3.233  0.1648E-07  0.3877E-09
     -3.209  0.1106E-04  0.2605E-06
     -3.185  0.2250E-02  0.5319E-04
     -3.162  0.1408E+00  0.3365E-02
     -3.138  0.2758E+01  0.6825E-01
     -3.115  0.1729E+02  0.4749E+00
     -3.091  0.3536E+02  0.1307E+01
     -3.068  0.2386E+02  0.1868E+01
     -3.044  0.6278E+01  0.2016E+01
     -3.021  0.1167E+02  0.2290E+01
     -2.997  0.4879E+02  0.3438E+01
     -2.974  0.9142E+02  0.5588E+01
     -2.950  0.7495E+02  0.7351E+01
     -2.927  0.2504E+02  0.7940E+01
     -2.903  0.1070E+02  0.8192E+01
     -2.880  0.4286E+02  0.9200E+01
     -2.856  0.8927E+02  0.1130E+02
     -2.833  0.7860E+02  0.1315E+02
     -2.809  0.3317E+02  0.1393E+02
     -2.786  0.2230E+02  0.1445E+02
     -2.762  0.5321E+02  0.1571E+02
     -2.739  0.9428E+02  0.1792E+02
     -2.715  0.1051E+03  0.2040E+02
     -2.691  0.5759E+02  0.2175E+02
     -2.668  0.3083E+02  0.2248E+02
     -2.644  0.7513E+02  0.2424E+02
     -2.621  0.1336E+03  0.2739E+02
     -2.597  0.1460E+03  0.3082E+02
     -2.574  0.9815E+02  0.3313E+02
     -2.550  0.3760E+02  0.3401E+02
     -2.527  0.3333E+02  0.3480E+02
     -2.503  0.7280E+02  0.3651E+02
     -2.480  0.8933E+02  0.3861E+02
     -2.456  0.5457E+02  0.3990E+02
     -2.433  0.4007E+02  0.4084E+02
     -2.409  0.6965E+02  0.4248E+02
     -2.386  0.9991E+02  0.4483E+02
     -2.362  0.1150E+03  0.4753E+02
     -2.339  0.1221E+03  0.5040E+02
     -2.315  0.1063E+03  0.5291E+02
     -2.292  0.1062E+03  0.5541E+02
     -2.268  0.1299E+03  0.5846E+02
     -2.245  0.1718E+03  0.6250E+02
     -2.221  0.1759E+03  0.6664E+02
     -2.197  0.1153E+03  0.6935E+02
     -2.174  0.6418E+02  0.7086E+02
     -2.150  0.4357E+02  0.7189E+02
     -2.127  0.4822E+02  0.7302E+02
     -2.103  0.7073E+02  0.7469E+02
     -2.080  0.6242E+02  0.7615E+02
     -2.056  0.7656E+02  0.7795E+02
     -2.033  0.1230E+03  0.8085E+02
     -2.009  0.1458E+03  0.8428E+02
     -1.986  0.1390E+03  0.8755E+02
     -1.962  0.1236E+03  0.9046E+02
     -1.939  0.1077E+03  0.9299E+02
     -1.915  0.1148E+03  0.9569E+02
     -1.892  0.1347E+03  0.9886E+02
     -1.868  0.1746E+03  0.1030E+03
     -1.845  0.1980E+03  0.1076E+03
     -1.821  0.1360E+03  0.1108E+03
     -1.798  0.4777E+02  0.1119E+03
     -1.774  0.3541E+02  0.1128E+03
     -1.751  0.9442E+02  0.1150E+03
     -1.727  0.1387E+03  0.1183E+03
     -1.703  0.1325E+03  0.1214E+03
     -1.680  0.1328E+03  0.1245E+03
     -1.656  0.1517E+03  0.1281E+03
     -1.633  0.1627E+03  0.1319E+03
     -1.609  0.1771E+03  0.1361E+03
     -1.586  0.1691E+03  0.1400E+03
     -1.562  0.1232E+03  0.1429E+03
     -1.539  0.1163E+03  0.1457E+03
     -1.515  0.1344E+03  0.1488E+03
     -1.492  0.1569E+03  0.1525E+03
     -1.468  0.1630E+03  0.1564E+03
     -1.445  0.1295E+03  0.1594E+03
     -1.421  0.9623E+02  0.1617E+03
     -1.398  0.9667E+02  0.1639E+03
     -1.374  0.1085E+03  0.1665E+03
     -1.351  0.1026E+03  0.1689E+03
     -1.327  0.9735E+02  0.1712E+03
     -1.304  0.1266E+03  0.1742E+03
     -1.280  0.1448E+03  0.1776E+03
     -1.257  0.1339E+03  0.1807E+03
     -1.233  0.1502E+03  0.1843E+03
     -1.210  0.1737E+03  0.1884E+03
     -1.186  0.1618E+03  0.1922E+03
     -1.162  0.1643E+03  0.1960E+03
     -1.139  0.2010E+03  0.2008E+03
     -1.115  0.2358E+03  0.2063E+03
     -1.092  0.2296E+03  0.2117E+03
     -1.068  0.1987E+03  0.2164E+03
     -1.045  0.1713E+03  0.2204E+03
     -1.021  0.1585E+03  0.2241E+03
     -0.998  0.1451E+03  0.2276E+03
     -0.974  0.1191E+03  0.2304E+03
     -0.951  0.8965E+02  0.2325E+03
     -0.927  0.1174E+03  0.2352E+03
     -0.904  0.1694E+03  0.2392E+03
     -0.880  0.1569E+03  0.2429E+03
     -0.857  0.1321E+03  0.2460E+03
     -0.833  0.1456E+03  0.2494E+03
     -0.810  0.1708E+03  0.2534E+03
     -0.786  0.2048E+03  0.2583E+03
     -0.763  0.2023E+03  0.2630E+03
     -0.739  0.1663E+03  0.2669E+03
     -0.716  0.1341E+03  0.2701E+03
     -0.692  0.1066E+03  0.2726E+03
     -0.668  0.1423E+03  0.2759E+03
     -0.645  0.1829E+03  0.2802E+03
     -0.621  0.1564E+03  0.2839E+03
     -0.598  0.1449E+03  0.2873E+03
     -0.574  0.1589E+03  0.2911E+03
     -0.551  0.1808E+03  0.2953E+03
     -0.527  0.2177E+03  0.3004E+03
     -0.504  0.2344E+03  0.3060E+03
     -0.480  0.2177E+03  0.3111E+03
     -0.457  0.2017E+03  0.3158E+03
     -0.433  0.2051E+03  0.3207E+03
     -0.410  0.2308E+03  0.3261E+03
     -0.386  0.2332E+03  0.3316E+03
     -0.363  0.1963E+03  0.3362E+03
     -0.339  0.1636E+03  0.3400E+03
     -0.316  0.1383E+03  0.3433E+03
     -0.292  0.1504E+03  0.3468E+03
     -0.269  0.1821E+03  0.3511E+03
     -0.245  0.1784E+03  0.3553E+03
     -0.222  0.1491E+03  0.3588E+03
     -0.198  0.1613E+03  0.3626E+03
     -0.174  0.1994E+03  0.3673E+03
     -0.151  0.2066E+03  0.3722E+03
     -0.127  0.1931E+03  0.3767E+03
     -0.104  0.1843E+03  0.3810E+03
     -0.080  0.1878E+03  0.3855E+03
     -0.057  0.2031E+03  0.3902E+03
     -0.033  0.2270E+03  0.3956E+03
     -0.010  0.2633E+03  0.4018E+03
      0.014  0.2837E+03  0.4084E+03
      0.037  0.2664E+03  0.4147E+03
      0.061  0.2193E+03  0.4199E+03
      0.084  0.1817E+03  0.4241E+03
      0.108  0.1828E+03  0.4284E+03
      0.131  0.1977E+03  0.4331E+03
      0.155  0.1995E+03  0.4378E+03
      0.178  0.2028E+03  0.4426E+03
      0.202  0.2030E+03  0.4473E+03
      0.225  0.1989E+03  0.4520E+03
      0.249  0.1877E+03  0.4564E+03
      0.272  0.1739E+03  0.4605E+03
      0.296  0.1800E+03  0.4647E+03
      0.319  0.1861E+03  0.4691E+03
      0.343  0.1801E+03  0.4734E+03
      0.367  0.1958E+03  0.4780E+03
      0.390  0.2360E+03  0.4835E+03
      0.414  0.2718E+03  0.4899E+03
      0.437  0.2929E+03  0.4968E+03
      0.461  0.3070E+03  0.5040E+03
      0.484  0.3089E+03  0.5113E+03
      0.508  0.2890E+03  0.5181E+03
      0.531  0.2700E+03  0.5244E+03
      0.555  0.2677E+03  0.5307E+03
      0.578  0.2786E+03  0.5373E+03
      0.602  0.3009E+03  0.5444E+03
      0.625  0.3015E+03  0.5515E+03
      0.649  0.2658E+03  0.5577E+03
      0.672  0.2254E+03  0.5630E+03
      0.696  0.2117E+03  0.5680E+03
      0.719  0.2244E+03  0.5733E+03
      0.743  0.2362E+03  0.5788E+03
      0.766  0.2368E+03  0.5844E+03
      0.790  0.2157E+03  0.5895E+03
      0.813  0.1911E+03  0.5940E+03
      0.837  0.2029E+03  0.5987E+03
      0.861  0.2213E+03  0.6040E+03
      0.884  0.2243E+03  0.6092E+03
      0.908  0.2265E+03  0.6146E+03
      0.931  0.2155E+03  0.6196E+03
      0.955  0.1892E+03  0.6241E+03
      0.978  0.1857E+03  0.6284E+03
      1.002  0.1840E+03  0.6328E+03
      1.025  0.1905E+03  0.6373E+03
      1.049  0.2201E+03  0.6424E+03
      1.072  0.2441E+03  0.6482E+03
      1.096  0.2521E+03  0.6541E+03
      1.119  0.2551E+03  0.6601E+03
      1.143  0.2541E+03  0.6661E+03
      1.166  0.2418E+03  0.6718E+03
      1.190  0.2339E+03  0.6773E+03
      1.213  0.2377E+03  0.6829E+03
      1.237  0.2247E+03  0.6881E+03
      1.260  0.2051E+03  0.6930E+03
      1.284  0.2091E+03  0.6979E+03
      1.307  0.2267E+03  0.7032E+03
      1.331  0.2363E+03  0.7088E+03
      1.355  0.2359E+03  0.7143E+03
      1.378  0.2332E+03  0.7198E+03
      1.402  0.2235E+03  0.7251E+03
      1.425  0.2066E+03  0.7299E+03
      1.449  0.1991E+03  0.7346E+03
      1.472  0.1911E+03  0.7391E+03
      1.496  0.1874E+03  0.7435E+03
      1.519  0.1997E+03  0.7482E+03
      1.543  0.2123E+03  0.7532E+03
      1.566  0.2241E+03  0.7585E+03
      1.590  0.2278E+03  0.7638E+03
      1.613  0.2031E+03  0.7686E+03
      1.637  0.1888E+03  0.7731E+03
      1.660  0.2065E+03  0.7779E+03
      1.684  0.2206E+03  0.7831E+03
      1.707  0.2264E+03  0.7884E+03
      1.731  0.2341E+03  0.7939E+03
      1.754  0.2371E+03  0.7995E+03
      1.778  0.2236E+03  0.8048E+03
      1.801  0.2167E+03  0.8099E+03
      1.825  0.2264E+03  0.8152E+03
      1.849  0.2417E+03  0.8209E+03
      1.872  0.2465E+03  0.8267E+03
      1.896  0.2337E+03  0.8322E+03
      1.919  0.2121E+03  0.8372E+03
      1.943  0.1849E+03  0.8415E+03
      1.966  0.1740E+03  0.8456E+03
      1.990  0.1907E+03  0.8501E+03
      2.013  0.2090E+03  0.8550E+03
      2.037  0.2079E+03  0.8599E+03
      2.060  0.1970E+03  0.8645E+03
      2.084  0.1927E+03  0.8691E+03
      2.107  0.2043E+03  0.8739E+03
      2.131  0.2103E+03  0.8788E+03
      2.154  0.1980E+03  0.8835E+03
      2.178  0.1883E+03  0.8879E+03
      2.201  0.1837E+03  0.8922E+03
      2.225  0.1735E+03  0.8963E+03
      2.248  0.1551E+03  0.9000E+03
      2.272  0.1439E+03  0.9033E+03
      2.295  0.1438E+03  0.9067E+03
      2.319  0.1402E+03  0.9100E+03
      2.342  0.1335E+03  0.9132E+03
      2.366  0.1373E+03  0.9164E+03
      2.390  0.1425E+03  0.9197E+03
      2.413  0.1506E+03  0.9233E+03
      2.437  0.1660E+03  0.9272E+03
      2.460  0.1681E+03  0.9312E+03
      2.484  0.1555E+03  0.9348E+03
      2.507  0.1318E+03  0.9379E+03
      2.531  0.1220E+03  0.9408E+03
      2.554  0.1269E+03  0.9438E+03
      2.578  0.1288E+03  0.9468E+03
      2.601  0.1407E+03  0.9501E+03
      2.625  0.1420E+03  0.9534E+03
      2.648  0.1311E+03  0.9565E+03
      2.672  0.1303E+03  0.9596E+03
      2.695  0.1360E+03  0.9628E+03
      2.719  0.1450E+03  0.9662E+03
      2.742  0.1358E+03  0.9694E+03
      2.766  0.1125E+03  0.9720E+03
      2.789  0.1067E+03  0.9745E+03
      2.813  0.1132E+03  0.9772E+03
      2.836  0.1182E+03  0.9800E+03
      2.860  0.1168E+03  0.9827E+03
      2.884  0.1190E+03  0.9855E+03
      2.907  0.1222E+03  0.9884E+03
      2.931  0.1236E+03  0.9913E+03
      2.954  0.1256E+03  0.9943E+03
      2.978  0.1280E+03  0.9973E+03
      3.001  0.1234E+03  0.1000E+04
      3.025  0.9687E+02  0.1002E+04
      3.048  0.5481E+02  0.1004E+04
      3.072  0.2851E+02  0.1004E+04
      3.095  0.2617E+02  0.1005E+04
      3.119  0.2525E+02  0.1006E+04
      3.142  0.2074E+02  0.1006E+04
      3.166  0.2394E+02  0.1007E+04
      3.189  0.2893E+02  0.1007E+04
      3.213  0.1995E+02  0.1008E+04
      3.236  0.7155E+01  0.1008E+04
      3.260  0.6673E+01  0.1008E+04
      3.283  0.1797E+02  0.1009E+04
      3.307  0.2887E+02  0.1009E+04
      3.330  0.2286E+02  0.1010E+04
      3.354  0.7575E+01  0.1010E+04
      3.378  0.9512E+00  0.1010E+04
      3.401  0.4236E-01  0.1010E+04
      3.425  0.6315E-03  0.1010E+04
      3.448  0.3008E-05  0.1010E+04
      3.472  0.4436E-08  0.1010E+04
      3.495  0.1985E-11  0.1010E+04
      3.519  0.0000E+00  0.1010E+04
      3.542  0.0000E+00  0.1010E+04
      3.566  0.0000E+00  0.1010E+04
      3.589  0.0000E+00  0.1010E+04
      3.613  0.0000E+00  0.1010E+04
      3.636  0.0000E+00  0.1010E+04
