 running on   64 total cores
 distrk:  each k-point on   32 cores,    2 groups
 distr:  one band on   32 cores,    1 groups
 vasp.6.2.1 16May21 (build Nov 23 2021 15:40:41) complex                        
  
 POSCAR found type information on POSCAR Li
 POSCAR found :  1 types and     504 ions
 scaLAPACK will be used
 -----------------------------------------------------------------------------
|                                                                             |
|           W    W    AA    RRRRR   N    N  II  N    N   GGGG   !!!           |
|           W    W   A  A   R    R  NN   N  II  NN   N  G    G  !!!           |
|           W    W  A    A  R    R  N N  N  II  N N  N  G       !!!           |
|           W WW W  AAAAAA  RRRRR   N  N N  II  N  N N  G  GGG   !            |
|           WW  WW  A    A  R   R   N   NN  II  N   NN  G    G                |
|           W    W  A    A  R    R  N    N  II  N    N   GGGG   !!!           |
|                                                                             |
|     For optimal performance we recommend to set                             |
|       NCORE = 2 up to number-of-cores-per-socket                            |
|     NCORE specifies how many cores store one orbital (NPAR=cpu/NCORE).      |
|     This setting can greatly improve the performance of VASP for DFT.       |
|     The default, NCORE=1 might be grossly inefficient on modern             |
|     multi-core architectures or massively parallel machines. Do your        |
|     own testing! More info at https://www.vasp.at/wiki/index.php/NCORE      |
|     Unfortunately you need to use the default for GW and RPA                |
|     calculations (for HF NCORE is supported but not extensively tested      |
|     yet).                                                                   |
|                                                                             |
 -----------------------------------------------------------------------------

 -----------------------------------------------------------------------------
|                                                                             |
|               ----> ADVICE to this user running VASP <----                  |
|                                                                             |
|     You have a (more or less) 'large supercell' and for larger cells it     |
|     might be more efficient to use real-space projection operators.         |
|     Therefore, try LREAL= Auto in the INCAR file.                           |
|     Mind: If you want to do very accurate calculations, keep the            |
|     reciprocal projection scheme (i.e. LREAL=.FALSE.).                      |
|                                                                             |
 -----------------------------------------------------------------------------

 LDA part: xc-table for Pade appr. of Perdew
 POSCAR found type information on POSCAR Li
 POSCAR found :  1 types and     504 ions
 POSCAR, INCAR and KPOINTS ok, starting setup
 FFT: planning ...
 WAVECAR not read
 entering main loop
       N       E                     dE             d eps       ncg     rms          rms(c)
DAV:   1    -0.302108425637E+03   -0.30211E+03   -0.12304E+05  4040   0.658E+02
DAV:   2    -0.904135984195E+03   -0.60203E+03   -0.55199E+03  4628   0.678E+01
DAV:   3    -0.945796228771E+03   -0.41660E+02   -0.37773E+02  5144   0.140E+01
DAV:   4    -0.947213085357E+03   -0.14169E+01   -0.13920E+01  4648   0.281E+00
DAV:   5    -0.947244309921E+03   -0.31225E-01   -0.31166E-01  4800   0.450E-01    0.747E+00
DAV:   6    -0.945590201770E+03    0.16541E+01   -0.72845E+00  4552   0.378E+00    0.639E+00
DAV:   7    -0.942145819215E+03    0.34444E+01   -0.61756E+00  4584   0.365E+00    0.473E+00
DAV:   8    -0.939436680297E+03    0.27091E+01   -0.26632E+00  4552   0.214E+00    0.259E+00
DAV:   9    -0.939289686261E+03    0.14699E+00   -0.16755E+00  4576   0.135E+00    0.209E+00
DAV:  10    -0.938825373452E+03    0.46431E+00   -0.94884E-01  4552   0.992E-01    0.108E+00
DAV:  11    -0.938766475461E+03    0.58898E-01   -0.31916E-01  4312   0.440E-01    0.595E-01
DAV:  12    -0.938772349684E+03   -0.58742E-02   -0.59793E-02  4568   0.264E-01    0.473E-01
DAV:  13    -0.938753836576E+03    0.18513E-01   -0.31956E-02  4520   0.215E-01    0.282E-01
DAV:  14    -0.938751452190E+03    0.23844E-02   -0.10311E-02  4528   0.122E-01    0.185E-01
DAV:  15    -0.938749937465E+03    0.15147E-02   -0.49660E-03  4536   0.971E-02    0.126E-01
DAV:  16    -0.938748022422E+03    0.19150E-02   -0.23690E-03  4520   0.588E-02    0.480E-02
DAV:  17    -0.938747944080E+03    0.78343E-04   -0.90608E-04  4312   0.260E-02    0.261E-02
DAV:  18    -0.938747901399E+03    0.42681E-04   -0.20236E-04  4496   0.148E-02    0.180E-02
DAV:  19    -0.938747872306E+03    0.29093E-04   -0.64053E-05  4440   0.934E-03    0.123E-02
DAV:  20    -0.938747844212E+03    0.28094E-04   -0.23406E-05  3224   0.527E-03    0.456E-03
DAV:  21    -0.938747839297E+03    0.49153E-05   -0.10842E-05  2128   0.326E-03
   1 F= -.93874784E+03 E0= -.93867768E+03  d E =-.140312E+00
