 500 500   0   0
  0.2153794E+02  0.2208300E-08  0.2208300E-08  0.2208300E-08  0.5000000E-15
  1.000000000000000E-004
  CAR 
 Li                                      
      3.13515000     -3.50295487  301      0.23748027      1.00000000
     -3.503  0.0000E+00  0.0000E+00
     -3.481  0.0000E+00  0.0000E+00
     -3.459  0.0000E+00  0.0000E+00
     -3.437  0.0000E+00  0.0000E+00
     -3.414  0.0000E+00  0.0000E+00
     -3.392  0.0000E+00  0.0000E+00
     -3.370  0.7024E-13  0.1554E-14
     -3.348  0.1879E-09  0.4159E-11
     -3.326  0.1758E-06  0.3895E-08
     -3.304  0.5689E-04  0.1263E-05
     -3.282  0.6417E-02  0.1432E-03
     -3.260  0.2552E+00  0.5790E-02
     -3.237  0.3629E+01  0.8609E-01
     -3.215  0.1874E+02  0.5008E+00
     -3.193  0.3560E+02  0.1288E+01
     -3.171  0.2508E+02  0.1843E+01
     -3.149  0.7702E+01  0.2014E+01
     -3.127  0.1245E+02  0.2289E+01
     -3.105  0.4723E+02  0.3334E+01
     -3.083  0.8505E+02  0.5216E+01
     -3.060  0.7807E+02  0.6944E+01
     -3.038  0.3846E+02  0.7795E+01
     -3.016  0.1557E+02  0.8139E+01
     -2.994  0.3482E+02  0.8910E+01
     -2.972  0.7704E+02  0.1061E+02
     -2.950  0.8698E+02  0.1254E+02
     -2.928  0.5093E+02  0.1367E+02
     -2.906  0.2056E+02  0.1412E+02
     -2.883  0.3858E+02  0.1497E+02
     -2.861  0.8903E+02  0.1694E+02
     -2.839  0.1077E+03  0.1933E+02
     -2.817  0.7843E+02  0.2106E+02
     -2.795  0.4089E+02  0.2197E+02
     -2.773  0.4637E+02  0.2299E+02
     -2.751  0.1058E+03  0.2534E+02
     -2.729  0.1522E+03  0.2871E+02
     -2.706  0.1349E+03  0.3169E+02
     -2.684  0.7636E+02  0.3338E+02
     -2.662  0.3079E+02  0.3406E+02
     -2.640  0.3890E+02  0.3492E+02
     -2.618  0.8293E+02  0.3676E+02
     -2.596  0.8961E+02  0.3874E+02
     -2.574  0.4712E+02  0.3978E+02
     -2.551  0.2633E+02  0.4037E+02
     -2.529  0.6811E+02  0.4187E+02
     -2.507  0.1334E+03  0.4482E+02
     -2.485  0.1527E+03  0.4820E+02
     -2.463  0.1159E+03  0.5077E+02
     -2.441  0.6831E+02  0.5228E+02
     -2.419  0.8768E+02  0.5422E+02
     -2.397  0.1584E+03  0.5773E+02
     -2.374  0.1979E+03  0.6210E+02
     -2.352  0.1745E+03  0.6597E+02
     -2.330  0.1142E+03  0.6849E+02
     -2.308  0.6236E+02  0.6987E+02
     -2.286  0.5371E+02  0.7106E+02
     -2.264  0.7738E+02  0.7277E+02
     -2.242  0.8042E+02  0.7455E+02
     -2.220  0.5245E+02  0.7571E+02
     -2.197  0.4099E+02  0.7662E+02
     -2.175  0.9186E+02  0.7865E+02
     -2.153  0.1652E+03  0.8231E+02
     -2.131  0.1793E+03  0.8627E+02
     -2.109  0.1207E+03  0.8895E+02
     -2.087  0.6673E+02  0.9042E+02
     -2.065  0.9362E+02  0.9249E+02
     -2.043  0.1683E+03  0.9622E+02
     -2.020  0.2057E+03  0.1008E+03
     -1.998  0.1775E+03  0.1047E+03
     -1.976  0.1086E+03  0.1071E+03
     -1.954  0.6390E+02  0.1085E+03
     -1.932  0.9456E+02  0.1106E+03
     -1.910  0.1466E+03  0.1138E+03
     -1.888  0.1497E+03  0.1172E+03
     -1.866  0.1013E+03  0.1194E+03
     -1.843  0.7712E+02  0.1211E+03
     -1.821  0.1368E+03  0.1241E+03
     -1.799  0.2022E+03  0.1286E+03
     -1.777  0.1964E+03  0.1330E+03
     -1.755  0.1438E+03  0.1361E+03
     -1.733  0.9989E+02  0.1383E+03
     -1.711  0.1199E+03  0.1410E+03
     -1.689  0.1763E+03  0.1449E+03
     -1.666  0.1928E+03  0.1492E+03
     -1.644  0.1609E+03  0.1527E+03
     -1.622  0.1077E+03  0.1551E+03
     -1.600  0.7840E+02  0.1568E+03
     -1.578  0.1088E+03  0.1593E+03
     -1.556  0.1472E+03  0.1625E+03
     -1.534  0.1411E+03  0.1656E+03
     -1.512  0.9548E+02  0.1677E+03
     -1.489  0.8228E+02  0.1696E+03
     -1.467  0.1197E+03  0.1722E+03
     -1.445  0.1387E+03  0.1753E+03
     -1.423  0.1210E+03  0.1780E+03
     -1.401  0.9399E+02  0.1800E+03
     -1.379  0.1207E+03  0.1827E+03
     -1.357  0.2100E+03  0.1874E+03
     -1.335  0.2816E+03  0.1936E+03
     -1.312  0.2912E+03  0.2000E+03
     -1.290  0.2454E+03  0.2055E+03
     -1.268  0.1681E+03  0.2092E+03
     -1.246  0.1353E+03  0.2122E+03
     -1.224  0.1783E+03  0.2161E+03
     -1.202  0.2091E+03  0.2208E+03
     -1.180  0.1819E+03  0.2248E+03
     -1.157  0.1183E+03  0.2274E+03
     -1.135  0.8383E+02  0.2292E+03
     -1.113  0.1154E+03  0.2318E+03
     -1.091  0.1611E+03  0.2354E+03
     -1.069  0.1709E+03  0.2392E+03
     -1.047  0.1526E+03  0.2425E+03
     -1.025  0.1721E+03  0.2463E+03
     -1.003  0.2207E+03  0.2512E+03
     -0.980  0.2369E+03  0.2565E+03
     -0.958  0.2173E+03  0.2613E+03
     -0.936  0.1485E+03  0.2646E+03
     -0.914  0.6676E+02  0.2660E+03
     -0.892  0.5661E+02  0.2673E+03
     -0.870  0.8806E+02  0.2692E+03
     -0.848  0.8272E+02  0.2711E+03
     -0.826  0.7095E+02  0.2726E+03
     -0.803  0.1312E+03  0.2755E+03
     -0.781  0.2326E+03  0.2807E+03
     -0.759  0.2839E+03  0.2870E+03
     -0.737  0.2857E+03  0.2933E+03
     -0.715  0.2669E+03  0.2992E+03
     -0.693  0.2408E+03  0.3045E+03
     -0.671  0.2249E+03  0.3095E+03
     -0.649  0.2334E+03  0.3147E+03
     -0.626  0.2515E+03  0.3202E+03
     -0.604  0.2523E+03  0.3258E+03
     -0.582  0.2211E+03  0.3307E+03
     -0.560  0.1688E+03  0.3344E+03
     -0.538  0.1372E+03  0.3375E+03
     -0.516  0.1401E+03  0.3406E+03
     -0.494  0.1410E+03  0.3437E+03
     -0.472  0.1448E+03  0.3469E+03
     -0.449  0.1744E+03  0.3508E+03
     -0.427  0.2037E+03  0.3553E+03
     -0.405  0.2073E+03  0.3598E+03
     -0.383  0.1836E+03  0.3639E+03
     -0.361  0.1572E+03  0.3674E+03
     -0.339  0.1703E+03  0.3712E+03
     -0.317  0.2248E+03  0.3761E+03
     -0.295  0.2620E+03  0.3819E+03
     -0.272  0.2710E+03  0.3879E+03
     -0.250  0.2568E+03  0.3936E+03
     -0.228  0.2176E+03  0.3984E+03
     -0.206  0.2034E+03  0.4029E+03
     -0.184  0.2128E+03  0.4076E+03
     -0.162  0.1924E+03  0.4119E+03
     -0.140  0.1469E+03  0.4151E+03
     -0.118  0.1420E+03  0.4183E+03
     -0.095  0.1936E+03  0.4226E+03
     -0.073  0.2400E+03  0.4279E+03
     -0.051  0.2520E+03  0.4335E+03
     -0.029  0.2418E+03  0.4388E+03
     -0.007  0.2196E+03  0.4437E+03
      0.015  0.2126E+03  0.4484E+03
      0.037  0.2302E+03  0.4535E+03
      0.059  0.2324E+03  0.4586E+03
      0.082  0.2032E+03  0.4631E+03
      0.104  0.1789E+03  0.4671E+03
      0.126  0.1956E+03  0.4714E+03
      0.148  0.2364E+03  0.4766E+03
      0.170  0.2584E+03  0.4823E+03
      0.192  0.2646E+03  0.4882E+03
      0.214  0.2668E+03  0.4941E+03
      0.237  0.2563E+03  0.4998E+03
      0.259  0.2349E+03  0.5050E+03
      0.281  0.2207E+03  0.5098E+03
      0.303  0.2281E+03  0.5149E+03
      0.325  0.2490E+03  0.5204E+03
      0.347  0.2675E+03  0.5263E+03
      0.369  0.2790E+03  0.5325E+03
      0.391  0.2955E+03  0.5390E+03
      0.414  0.3164E+03  0.5460E+03
      0.436  0.3280E+03  0.5533E+03
      0.458  0.3194E+03  0.5604E+03
      0.480  0.3059E+03  0.5671E+03
      0.502  0.2984E+03  0.5737E+03
      0.524  0.2901E+03  0.5802E+03
      0.546  0.2714E+03  0.5862E+03
      0.568  0.2388E+03  0.5914E+03
      0.591  0.2069E+03  0.5960E+03
      0.613  0.2028E+03  0.6005E+03
      0.635  0.2162E+03  0.6053E+03
      0.657  0.2176E+03  0.6101E+03
      0.679  0.2058E+03  0.6147E+03
      0.701  0.1949E+03  0.6190E+03
      0.723  0.1876E+03  0.6231E+03
      0.745  0.1905E+03  0.6273E+03
      0.768  0.1921E+03  0.6316E+03
      0.790  0.1778E+03  0.6355E+03
      0.812  0.1754E+03  0.6394E+03
      0.834  0.1936E+03  0.6437E+03
      0.856  0.2141E+03  0.6484E+03
      0.878  0.2321E+03  0.6536E+03
      0.900  0.2516E+03  0.6591E+03
      0.922  0.2606E+03  0.6649E+03
      0.945  0.2583E+03  0.6706E+03
      0.967  0.2524E+03  0.6762E+03
      0.989  0.2426E+03  0.6816E+03
      1.011  0.2431E+03  0.6869E+03
      1.033  0.2509E+03  0.6925E+03
      1.055  0.2449E+03  0.6979E+03
      1.077  0.2281E+03  0.7030E+03
      1.099  0.2166E+03  0.7078E+03
      1.122  0.2073E+03  0.7123E+03
      1.144  0.2026E+03  0.7168E+03
      1.166  0.2124E+03  0.7215E+03
      1.188  0.2216E+03  0.7264E+03
      1.210  0.2220E+03  0.7313E+03
      1.232  0.2234E+03  0.7363E+03
      1.254  0.2292E+03  0.7413E+03
      1.276  0.2325E+03  0.7465E+03
      1.299  0.2253E+03  0.7515E+03
      1.321  0.2076E+03  0.7561E+03
      1.343  0.1891E+03  0.7603E+03
      1.365  0.1854E+03  0.7644E+03
      1.387  0.1881E+03  0.7685E+03
      1.409  0.1819E+03  0.7725E+03
      1.431  0.1645E+03  0.7762E+03
      1.453  0.1491E+03  0.7795E+03
      1.476  0.1451E+03  0.7827E+03
      1.498  0.1453E+03  0.7859E+03
      1.520  0.1497E+03  0.7892E+03
      1.542  0.1576E+03  0.7927E+03
      1.564  0.1618E+03  0.7963E+03
      1.586  0.1720E+03  0.8001E+03
      1.608  0.1952E+03  0.8044E+03
      1.631  0.2107E+03  0.8091E+03
      1.653  0.2076E+03  0.8137E+03
      1.675  0.2151E+03  0.8184E+03
      1.697  0.2350E+03  0.8236E+03
      1.719  0.2412E+03  0.8290E+03
      1.741  0.2369E+03  0.8342E+03
      1.763  0.2316E+03  0.8393E+03
      1.785  0.2194E+03  0.8442E+03
      1.808  0.2070E+03  0.8488E+03
      1.830  0.1923E+03  0.8530E+03
      1.852  0.1787E+03  0.8570E+03
      1.874  0.1709E+03  0.8608E+03
      1.896  0.1592E+03  0.8643E+03
      1.918  0.1520E+03  0.8676E+03
      1.940  0.1490E+03  0.8709E+03
      1.962  0.1435E+03  0.8741E+03
      1.985  0.1489E+03  0.8774E+03
      2.007  0.1664E+03  0.8811E+03
      2.029  0.1724E+03  0.8849E+03
      2.051  0.1690E+03  0.8886E+03
      2.073  0.1697E+03  0.8924E+03
      2.095  0.1729E+03  0.8962E+03
      2.117  0.1737E+03  0.9001E+03
      2.139  0.1716E+03  0.9039E+03
      2.162  0.1625E+03  0.9075E+03
      2.184  0.1521E+03  0.9108E+03
      2.206  0.1411E+03  0.9139E+03
      2.228  0.1327E+03  0.9169E+03
      2.250  0.1413E+03  0.9200E+03
      2.272  0.1553E+03  0.9234E+03
      2.294  0.1549E+03  0.9269E+03
      2.316  0.1590E+03  0.9304E+03
      2.339  0.1606E+03  0.9339E+03
      2.361  0.1528E+03  0.9373E+03
      2.383  0.1361E+03  0.9403E+03
      2.405  0.1331E+03  0.9433E+03
      2.427  0.1462E+03  0.9465E+03
      2.449  0.1494E+03  0.9498E+03
      2.471  0.1505E+03  0.9532E+03
      2.493  0.1572E+03  0.9566E+03
      2.516  0.1646E+03  0.9603E+03
      2.538  0.1685E+03  0.9640E+03
      2.560  0.1635E+03  0.9676E+03
      2.582  0.1560E+03  0.9711E+03
      2.604  0.1529E+03  0.9745E+03
      2.626  0.1573E+03  0.9779E+03
      2.648  0.1515E+03  0.9813E+03
      2.670  0.1319E+03  0.9842E+03
      2.693  0.1108E+03  0.9867E+03
      2.715  0.9394E+02  0.9887E+03
      2.737  0.8738E+02  0.9907E+03
      2.759  0.9842E+02  0.9928E+03
      2.781  0.1167E+03  0.9954E+03
      2.803  0.1183E+03  0.9980E+03
      2.825  0.9885E+02  0.1000E+04
      2.847  0.5853E+02  0.1002E+04
      2.870  0.1868E+02  0.1002E+04
      2.892  0.2650E+01  0.1002E+04
      2.914  0.1514E+00  0.1002E+04
      2.936  0.3294E-02  0.1002E+04
      2.958  0.2635E-04  0.1002E+04
      2.980  0.7553E-07  0.1002E+04
      3.002  0.7627E-10  0.1002E+04
      3.025  0.2760E-13  0.1002E+04
      3.047  0.0000E+00  0.1002E+04
      3.069  0.0000E+00  0.1002E+04
      3.091  0.0000E+00  0.1002E+04
      3.113  0.0000E+00  0.1002E+04
      3.135  0.0000E+00  0.1002E+04
