       N       E                     dE             d eps       ncg     rms          rms(c)
DAV:   1    -0.296446385928E+03   -0.29645E+03   -0.11955E+05  4008   0.651E+02
DAV:   2    -0.879359275164E+03   -0.58291E+03   -0.53324E+03  4612   0.656E+01
DAV:   3    -0.921956707347E+03   -0.42597E+02   -0.38981E+02  5208   0.140E+01
DAV:   4    -0.923437739832E+03   -0.14810E+01   -0.14587E+01  4728   0.286E+00
DAV:   5    -0.923473314342E+03   -0.35575E-01   -0.35507E-01  4888   0.465E-01    0.945E+00
DAV:   6    -0.923039065244E+03    0.43425E+00   -0.12373E+01  4760   0.522E+00    0.883E+00
DAV:   7    -0.912504602082E+03    0.10534E+02   -0.12447E+01  4952   0.506E+00    0.506E+00
DAV:   8    -0.909522574873E+03    0.29820E+01   -0.61240E+00  4728   0.262E+00    0.274E+00
DAV:   9    -0.908947885944E+03    0.57469E+00   -0.31534E+00  4432   0.143E+00    0.141E+00
DAV:  10    -0.909041386354E+03   -0.93500E-01   -0.80826E-01  4856   0.926E-01    0.133E+00
DAV:  11    -0.908849104227E+03    0.19228E+00   -0.33734E-01  4616   0.594E-01    0.605E-01
DAV:  12    -0.908850385779E+03   -0.12816E-02   -0.87074E-02  4696   0.277E-01    0.407E-01
DAV:  13    -0.908842630767E+03    0.77550E-02   -0.39049E-02  4704   0.219E-01    0.275E-01
DAV:  14    -0.908837284829E+03    0.53459E-02   -0.11716E-02  4616   0.121E-01    0.144E-01
DAV:  15    -0.908836304966E+03    0.97986E-03   -0.40794E-03  4520   0.644E-02    0.735E-02
DAV:  16    -0.908836467243E+03   -0.16228E-03   -0.13031E-03  4920   0.451E-02    0.668E-02
DAV:  17    -0.908835910123E+03    0.55712E-03   -0.73229E-04  4656   0.298E-02    0.201E-02
DAV:  18    -0.908835911121E+03   -0.99808E-06   -0.25863E-04  4480   0.139E-02    0.136E-02
DAV:  19    -0.908835903099E+03    0.80220E-05   -0.60677E-05  4616   0.798E-03
   1 F= -.90883590E+03 E0= -.90878070E+03  d E =-.110411E+00
