Li                                      
           1
    22.083000   -0.000000    0.000000
    -0.000000   22.083000    0.000000
     0.000000    0.000000   22.083000
   Li
   500
Direct configuration=     1
   0.98672834  0.00168739  0.01938930
   0.03143390  0.11566267  0.09850012
   0.01003383  0.19530108  0.19900964
   0.00324044  0.28444037  0.32031538
   0.99535711  0.39779653  0.40084586
   0.00340338  0.47054061  0.51497571
   0.01160662  0.57015791  0.59616641
   0.99778601  0.69923838  0.68975302
   0.01665357  0.83692568  0.79371208
   0.98118086  0.91173191  0.91448097
   0.13176491  0.99237185  0.08510952
   0.11040547  0.10475073  0.18951896
   0.10152681  0.19043882  0.30297301
   0.10603472  0.28226878  0.42235155
   0.10207557  0.38146166  0.49597627
   0.10917696  0.48596523  0.59057886
   0.10442862  0.59278177  0.69209836
   0.10008192  0.70428465  0.78039873
   0.10853980  0.83506803  0.89089543
   0.11508324  0.91477317  0.98287071
   0.20524539  0.00839096  0.20118534
   0.19638731  0.09238373  0.28437726
   0.23337062  0.18180358  0.40758092
   0.21648944  0.27410945  0.50936955
   0.19563155  0.39073714  0.59018063
   0.18198069  0.49354203  0.68194540
   0.19698257  0.59584561  0.80298819
   0.18593344  0.68306045  0.91021859
   0.20768760  0.81245977  0.99126174
   0.22931519  0.92370026  0.09211947
   0.28984641  0.00625137  0.31769235
   0.29851191  0.09558675  0.39195243
   0.32117386  0.19306262  0.52195177
   0.30057904  0.29788062  0.62618947
   0.29410792  0.41817073  0.71093036
   0.30426708  0.51145016  0.81201237
   0.29701897  0.62266003  0.89075716
   0.28603671  0.68473175  0.99570155
   0.30365630  0.81862786  0.10553174
   0.29695338  0.92899488  0.21205869
   0.40315489  0.01425968  0.40573027
   0.40966982  0.08535958  0.50120062
   0.39817992  0.19220632  0.58846782
   0.41465398  0.27198572  0.69154566
   0.41002653  0.40076048  0.77598194
   0.42076769  0.49869159  0.88743085
   0.40129656  0.59711348  0.00645133
   0.38471835  0.70381356  0.09875202
   0.37761109  0.80973980  0.21604501
   0.39362816  0.88830853  0.32927798
   0.48932221  0.98873126  0.51586388
   0.52216245  0.09849683  0.60387120
   0.50765821  0.19551390  0.70302340
   0.53055535  0.31768306  0.81124956
   0.51023828  0.39906792  0.89958127
   0.52374574  0.51481119  0.99702816
   0.49873791  0.59400150  0.11331612
   0.47251905  0.69459661  0.18783634
   0.50361065  0.79940504  0.30451699
   0.48808635  0.90573520  0.39949698
   0.58667747  0.97012524  0.60561829
   0.59650949  0.08580425  0.71904853
   0.58766508  0.20804287  0.81477866
   0.58449043  0.33004000  0.91236265
   0.59889060  0.40862842  0.00056444
   0.60159467  0.49822082  0.10843606
   0.58656069  0.59096521  0.21606107
   0.57560151  0.69453217  0.34186086
   0.58071407  0.81200132  0.38614368
   0.58197406  0.90816894  0.50082403
   0.68977548  0.00951890  0.68696524
   0.68868993  0.07959490  0.80116864
   0.71066512  0.17939236  0.88823624
   0.71329352  0.27344946  0.98739470
   0.70944571  0.39846163  0.07779416
   0.68968158  0.49342935  0.20813237
   0.67978835  0.60368673  0.30928177
   0.69270781  0.70247329  0.40803246
   0.69093846  0.79364251  0.50303751
   0.69913769  0.89381293  0.60605972
   0.80165179  0.01348514  0.78933851
   0.80392349  0.10926912  0.88830999
   0.79303539  0.19241868  0.99519122
   0.76412344  0.28893201  0.10920370
   0.78497318  0.40692294  0.19836722
   0.79179410  0.50039994  0.29796143
   0.79730946  0.58585129  0.39888450
   0.80349470  0.71176497  0.52397287
   0.80420938  0.79437053  0.60166777
   0.80212042  0.90620100  0.67846235
   0.87899902  0.02085776  0.89498277
   0.89626385  0.11817209  0.02475229
   0.91875990  0.20624472  0.10793928
   0.91481740  0.30039210  0.19223055
   0.88894969  0.40059399  0.28491353
   0.89083868  0.50375014  0.40329072
   0.91007222  0.58055167  0.49800895
   0.91843920  0.72010334  0.58309547
   0.88749487  0.79400039  0.69352677
   0.89824060  0.90391999  0.80680397
   0.13333302  0.09161263  0.98452371
   0.12060017  0.21733262  0.08008471
   0.09661704  0.28804753  0.20396553
   0.09777720  0.37714943  0.30579447
   0.09324086  0.47627657  0.39764946
   0.10934522  0.59438814  0.49735244
   0.09746230  0.69078618  0.58925332
   0.09583384  0.80489598  0.68053112
   0.09721394  0.92220099  0.78789401
   0.09041850  0.99476788  0.88560119
   0.22432281  0.10126504  0.09375879
   0.21145454  0.19157843  0.18898544
   0.20496062  0.26138871  0.28708647
   0.19255258  0.38622954  0.41063668
   0.19505676  0.48987909  0.48616833
   0.19116882  0.59254259  0.58544298
   0.19733378  0.70058008  0.67506541
   0.18630200  0.80194388  0.79923080
   0.21182193  0.89789137  0.88157393
   0.21327555  0.99825858  0.97626030
   0.31238997  0.09008999  0.19356245
   0.31764723  0.17901226  0.28467271
   0.32242720  0.30195538  0.39737301
   0.27600094  0.39361503  0.51510717
   0.29728792  0.49202385  0.58268913
   0.28118577  0.59454731  0.68639697
   0.29439522  0.70050501  0.79363766
   0.28807273  0.78722654  0.87902081
   0.30890548  0.91750210  0.97955097
   0.31956849  0.02592711  0.08167144
   0.40951092  0.10946189  0.30125638
   0.39823686  0.19438895  0.41686320
   0.37134013  0.29778655  0.52839731
   0.40195470  0.41994544  0.60886450
   0.39892748  0.51158633  0.68148735
   0.40880105  0.60153595  0.79517969
   0.39498594  0.68377558  0.90307785
   0.38186008  0.78270290  0.98365418
   0.39051294  0.90819672  0.09481748
   0.38875979  0.00585061  0.20306285
   0.49204641  0.10517402  0.40088601
   0.50883856  0.18361182  0.50341792
   0.52477550  0.29998158  0.59196884
   0.51589192  0.40462434  0.69296031
   0.50916372  0.50763637  0.81286155
   0.51511858  0.60253108  0.89759434
   0.49377253  0.70229221  0.00333510
   0.46955330  0.81071365  0.11371250
   0.47671785  0.91051512  0.21411099
   0.48936104  0.00573795  0.30912527
   0.61977841  0.10362271  0.51492662
   0.61409830  0.20718788  0.60811012
   0.60829500  0.31436478  0.72222570
   0.59760802  0.42529155  0.80255949
   0.60595872  0.50691536  0.92122827
   0.61963576  0.62013871  0.01769538
   0.59156797  0.69000971  0.11954849
   0.58384506  0.78873452  0.20666762
   0.58805923  0.90684359  0.30041041
   0.59480561  0.01467683  0.40061460
   0.69919350  0.09843987  0.60259974
   0.69015518  0.19606410  0.71643646
   0.69210179  0.31004834  0.82209202
   0.67306468  0.39912759  0.91243436
   0.69676942  0.51900485  0.99999398
   0.70785663  0.59103727  0.11417310
   0.68022697  0.68008917  0.20014990
   0.67238371  0.79887951  0.30261628
   0.69092992  0.88739114  0.40457584
   0.68111790  0.99706954  0.50788967
   0.80493452  0.09341083  0.71133945
   0.80080953  0.19459683  0.80705713
   0.80304777  0.27690220  0.89985558
   0.81260486  0.40685723  0.98031262
   0.79472071  0.48837303  0.09426332
   0.80044228  0.60468210  0.19974797
   0.79698038  0.70048075  0.27720611
   0.78892859  0.79664576  0.39964983
   0.78862214  0.90436443  0.52330557
   0.81836023  0.02829012  0.60743317
   0.90897779  0.11307493  0.79224430
   0.89886655  0.18517419  0.91918226
   0.88240671  0.27837042  0.01715996
   0.88393627  0.38061403  0.09126204
   0.88326060  0.48498348  0.19985318
   0.88754771  0.61765976  0.29004247
   0.87900836  0.71245855  0.39861599
   0.89808194  0.80076365  0.46586384
   0.88362457  0.90777993  0.57143732
   0.88148168  0.00626763  0.68929811
   0.99655614  0.08745426  0.89070194
   0.02939732  0.20804432  0.99004249
   0.01682322  0.30768771  0.07255505
   0.01137877  0.40101441  0.19587677
   0.99757671  0.50650546  0.27919506
   0.98827893  0.58624669  0.40032793
   0.99103999  0.67427424  0.47467643
   0.98086120  0.80405604  0.58190763
   0.98613620  0.89687888  0.68321620
   0.98051432  0.99857433  0.77046883
   0.21551190  0.21424793  0.98696427
   0.20731287  0.29247392  0.08824595
   0.19997544  0.37471269  0.19140554
   0.19400940  0.48666329  0.30032407
   0.20746297  0.58018373  0.38353439
   0.19983404  0.70651882  0.50072067
   0.19992434  0.79823009  0.59118128
   0.21177964  0.89129627  0.70463660
   0.20525840  0.00302880  0.78682693
   0.21608272  0.10424192  0.89044454
   0.30952490  0.18310720  0.08782662
   0.30811558  0.30206673  0.17644795
   0.30488276  0.38554722  0.30734805
   0.29943033  0.49808775  0.39952694
   0.30214201  0.58901105  0.49247655
   0.28752199  0.68748142  0.59864699
   0.27903810  0.81025484  0.71546680
   0.30016961  0.88608933  0.81077423
   0.30184500  0.00602351  0.88051564
   0.31280619  0.10024534  0.97223968
   0.41214851  0.19384823  0.18679858
   0.38408056  0.29598790  0.29050490
   0.39268658  0.39721162  0.41045638
   0.40002399  0.50328309  0.49438961
   0.40028353  0.60352915  0.60744355
   0.38336330  0.68299120  0.71400744
   0.40456794  0.77607180  0.79258220
   0.40540132  0.86323062  0.90405724
   0.41267379  0.99294147  0.98871055
   0.42220884  0.09883664  0.09223294
   0.50594175  0.21507487  0.29546169
   0.49106554  0.29853314  0.41518105
   0.48459111  0.39763966  0.50058971
   0.51073959  0.50380126  0.60235109
   0.51033970  0.59992752  0.69438449
   0.50681009  0.68605304  0.81554889
   0.50757454  0.77834932  0.90269759
   0.50002611  0.88461153  0.02562385
   0.50556943  0.97413078  0.10267964
   0.50888006  0.10341747  0.18477996
   0.60791726  0.22380913  0.39572933
   0.63243359  0.31094868  0.49472658
   0.61326544  0.38773272  0.58562556
   0.59218417  0.50232982  0.69880749
   0.60474426  0.59432246  0.81004520
   0.62670219  0.68938477  0.92511630
   0.60041356  0.78438838  0.03588368
   0.59767303  0.91040779  0.12883818
   0.59758321  0.00641646  0.19986875
   0.60341654  0.12508800  0.30459480
   0.71266038  0.22675540  0.49733251
   0.70352583  0.31310716  0.61525687
   0.68232988  0.41649407  0.71370400
   0.70454542  0.51766403  0.81867612
   0.71252564  0.61034084  0.91090035
   0.71054697  0.72736943  0.02109076
   0.70106490  0.79599286  0.13254414
   0.70301495  0.91456629  0.20408516
   0.69747533  0.00579983  0.31844440
   0.71796724  0.13010446  0.40193035
   0.78753042  0.22094965  0.62514783
   0.79432938  0.30023852  0.72562214
   0.78626142  0.42433169  0.83403429
   0.81262589  0.53271394  0.92716602
   0.80192451  0.61798045  0.01588976
   0.80546572  0.71708624  0.12621909
   0.79545950  0.80378031  0.20436276
   0.80250224  0.87657377  0.32839086
   0.80176354  0.99694832  0.41232551
   0.80970606  0.11699298  0.47880720
   0.89240086  0.20357454  0.67537627
   0.91150410  0.28715250  0.80924144
   0.88566664  0.39798056  0.90308669
   0.91195943  0.49858550  0.02054825
   0.89499113  0.60597335  0.11571681
   0.89428836  0.72301868  0.20068008
   0.91360890  0.80467125  0.30622346
   0.91307676  0.89949779  0.41008789
   0.90220952  0.02490533  0.46517209
   0.89913712  0.11615967  0.59456882
   0.00776601  0.21976745  0.80887533
   0.98997848  0.28755705  0.92114569
   0.00212376  0.39028860  0.97621615
   0.98371698  0.49016899  0.10769591
   0.99170154  0.61153383  0.20006255
   0.99688611  0.71675131  0.30654090
   0.98866168  0.80432969  0.41539349
   0.00633711  0.91958107  0.49403356
   0.98411400  0.00073683  0.61144645
   0.00876954  0.12260848  0.69294599
   0.10437568  0.18223405  0.89021005
   0.13811284  0.29885569  0.97235357
   0.12868912  0.39154694  0.10357034
   0.10166989  0.50011359  0.19744235
   0.09895997  0.59765906  0.28654656
   0.10264727  0.67608912  0.37962235
   0.10751211  0.78596264  0.49332071
   0.09212904  0.90738987  0.60182528
   0.09511519  0.00766530  0.70107700
   0.11445745  0.09558288  0.78895727
   0.30224834  0.31421818  0.00003007
   0.31111827  0.42063546  0.10831084
   0.28238530  0.48966246  0.20189754
   0.29597401  0.59566863  0.28215525
   0.28774801  0.70272579  0.38920048
   0.27903962  0.81328678  0.48451986
   0.28851551  0.90535379  0.59654899
   0.30706051  0.98780289  0.70226665
   0.31073625  0.10571551  0.79176735
   0.31328110  0.19766639  0.89399876
   0.38967647  0.29017904  0.10490131
   0.38741267  0.40577232  0.19609569
   0.38164049  0.48424620  0.31869844
   0.38216074  0.59906474  0.38980651
   0.37055093  0.68792098  0.48376246
   0.36187949  0.77888232  0.61747202
   0.38681615  0.88876540  0.69750886
   0.41108943  0.96989704  0.81883682
   0.41623811  0.11611172  0.89604227
   0.41010815  0.19239575  0.99491224
   0.49976299  0.30193926  0.18384272
   0.49019148  0.39211553  0.29156995
   0.50661723  0.48084018  0.40646734
   0.48772110  0.58005892  0.49554422
   0.48719963  0.68943917  0.58851486
   0.49106088  0.77754730  0.69449166
   0.49888981  0.87232586  0.80612639
   0.49309324  0.99172794  0.90405978
   0.51550772  0.10080275  0.00615280
   0.51483640  0.20207872  0.08429189
   0.59838713  0.31316174  0.28690169
   0.60118685  0.38059905  0.39511159
   0.58949806  0.48313349  0.48482975
   0.59351228  0.57689551  0.58466891
   0.60305453  0.70409307  0.69608358
   0.60491449  0.79093799  0.79838776
   0.59804142  0.88839419  0.92491041
   0.60532911  0.98189464  0.98823553
   0.60374544  0.09730533  0.08096815
   0.59038646  0.23069514  0.19268178
   0.73544373  0.32131979  0.38261166
   0.72232676  0.41056014  0.49332729
   0.69074933  0.48246561  0.59364091
   0.70326037  0.59486572  0.68301250
   0.69072255  0.69274576  0.79027443
   0.70512027  0.80005932  0.88682917
   0.70757823  0.88962536  0.02463385
   0.71196520  0.99120116  0.10931156
   0.69037771  0.09796691  0.20027064
   0.69539130  0.21329751  0.29569456
   0.79656970  0.31369096  0.50753185
   0.80293404  0.38879591  0.62259136
   0.79751663  0.50333430  0.68161514
   0.80154432  0.61790666  0.78411604
   0.80297552  0.70337325  0.90525618
   0.81304341  0.79040079  0.99659343
   0.82259154  0.89317159  0.10820437
   0.81861054  0.99161039  0.22822640
   0.79923095  0.10232434  0.30615407
   0.80712923  0.22561010  0.37500168
   0.91019434  0.29599388  0.60540880
   0.88844964  0.39688793  0.72594161
   0.88830434  0.52438919  0.78299785
   0.90746726  0.60792844  0.89176571
   0.90201905  0.70425809  0.00376736
   0.92526922  0.80674242  0.09842584
   0.91700804  0.90179220  0.21653271
   0.89708751  0.00801560  0.29774403
   0.89399013  0.14047519  0.37302129
   0.88373713  0.20901441  0.50097472
   0.00006733  0.30271844  0.69674523
   0.98760189  0.40225646  0.80932744
   0.01078359  0.49690811  0.90325492
   0.00410470  0.61472131  0.02134961
   0.00489887  0.72458720  0.11350762
   0.00752654  0.81644269  0.21380907
   0.00519076  0.90125491  0.30421706
   0.00617240  0.01617213  0.40230820
   0.99296764  0.09197061  0.51143017
   0.00834660  0.22739380  0.59231784
   0.11143643  0.29804452  0.83593513
   0.11469881  0.41275783  0.91374407
   0.10810522  0.49283484  0.01134239
   0.10067435  0.60794716  0.13145638
   0.10993070  0.73416373  0.20964574
   0.08752184  0.81720960  0.29427112
   0.08858197  0.91369344  0.39238606
   0.11004640  0.01997352  0.50587004
   0.10882389  0.10632318  0.59878146
   0.11903556  0.21043929  0.70653233
   0.23188429  0.30100194  0.89697418
   0.22866248  0.40897033  0.00429577
   0.19800741  0.49724788  0.07889272
   0.18297126  0.60978324  0.21374475
   0.17578335  0.70559613  0.27242969
   0.17678684  0.81569677  0.39362373
   0.18344816  0.91143944  0.50722090
   0.20593088  0.00455818  0.59335736
   0.22495292  0.08039622  0.70597330
   0.22257968  0.20360583  0.80847874
   0.41311644  0.41684091  0.02132430
   0.41127227  0.50113287  0.09064868
   0.38870566  0.59050035  0.20455484
   0.39668127  0.70895239  0.31873029
   0.39086775  0.78762072  0.40355782
   0.38187210  0.89562699  0.49589342
   0.38701822  0.99308508  0.59637641
   0.39665400  0.09524432  0.70663871
   0.41009202  0.19450762  0.79171063
   0.39561168  0.28797624  0.89709028
   0.49828050  0.38930766  0.10063215
   0.49099792  0.48541061  0.21257304
   0.50138447  0.57605611  0.29952709
   0.48697575  0.67481259  0.41645908
   0.47584815  0.77626418  0.50051357
   0.47265522  0.87453680  0.59754373
   0.49568067  0.98573345  0.70414224
   0.49211416  0.07940797  0.80553527
   0.50060316  0.19839275  0.89839504
   0.48375067  0.30006155  0.01508231
   0.58893382  0.41134440  0.19614911
   0.59080701  0.49726690  0.32099762
   0.59085700  0.59661816  0.41627632
   0.57715003  0.69295839  0.48400109
   0.59074854  0.80251536  0.60586536
   0.59115909  0.89002864  0.71562899
   0.57753084  0.98309988  0.80569956
   0.58758064  0.10884296  0.90297961
   0.60597800  0.20700759  0.98099387
   0.60409191  0.30792931  0.07860138
   0.69288497  0.41155061  0.31161410
   0.70490397  0.49763910  0.40020747
   0.68645654  0.59277667  0.50112998
   0.69119859  0.70342494  0.59369227
   0.70001183  0.80733454  0.69274359
   0.70741100  0.91666279  0.78794465
   0.69872836  0.00413059  0.90522670
   0.71268249  0.10285072  0.98517587
   0.69523696  0.18452905  0.09968896
   0.65675480  0.31825008  0.20591068
   0.81897406  0.40294117  0.39933589
   0.80858592  0.48980032  0.51224785
   0.80233519  0.59420825  0.59899639
   0.79739163  0.69043395  0.66396782
   0.79329788  0.78140392  0.79368808
   0.79362831  0.91292405  0.89538890
   0.80346664  0.99891395  0.00316653
   0.79306271  0.11466288  0.12106593
   0.78160850  0.22713525  0.20634875
   0.79880642  0.31711855  0.28728186
   0.91338538  0.40351790  0.51880032
   0.90060653  0.48068656  0.61068267
   0.90099381  0.61619219  0.67457011
   0.91277514  0.71009996  0.78317825
   0.89716175  0.79458794  0.90143718
   0.91345459  0.89489632  0.00329574
   0.89533724  0.99982122  0.12590044
   0.89287006  0.11593692  0.20351676
   0.89090597  0.21161390  0.27199980
   0.90729216  0.30605318  0.39801559
   0.00407525  0.38340976  0.58996879
   0.00952813  0.46997497  0.71200390
   0.00273643  0.59025761  0.77310454
   0.99060244  0.72289409  0.87139203
   0.02902959  0.82187587  0.99384940
   0.99811674  0.91775856  0.10142668
   0.00095739  0.02280169  0.21133349
   0.00812055  0.09226681  0.27743639
   0.99164746  0.17315288  0.38957889
   0.99238275  0.27664778  0.48568980
   0.11018035  0.36505712  0.70003510
   0.10182429  0.49453768  0.78223764
   0.09036738  0.57355452  0.89612804
   0.09536882  0.70336426  0.02929991
   0.09540732  0.82311192  0.10984232
   0.11094666  0.90308702  0.20296962
   0.11145899  0.02155767  0.28360607
   0.10219787  0.11423470  0.38995528
   0.11378576  0.19238344  0.49408619
   0.10381390  0.27891478  0.61855202
   0.19235194  0.40357174  0.82281333
   0.20229322  0.49802904  0.88877306
   0.20250070  0.58994850  0.01475619
   0.21165676  0.71138222  0.12123205
   0.20557906  0.83776388  0.19509989
   0.19134033  0.89651400  0.30423785
   0.18825189  0.99386955  0.39843519
   0.20456552  0.09273674  0.50157332
   0.20770835  0.19973597  0.60696627
   0.21246857  0.29960380  0.70097083
   0.30631809  0.41263431  0.89033248
   0.30376804  0.52113725  0.00359601
   0.31033799  0.59475836  0.10122937
   0.29585167  0.69922796  0.20365886
   0.27124501  0.79225097  0.31304268
   0.28938278  0.88375876  0.39983788
   0.29343614  0.99005278  0.47103685
   0.29305243  0.08764275  0.58713145
   0.30627938  0.18824506  0.69088038
   0.30022691  0.30921851  0.78358259
