 432 432   0   0
  0.2035379E+02  0.2064000E-08  0.2064000E-08  0.2064000E-08  0.5000000E-15
  1.000000000000000E-004
  CAR 
 Li                                      
      3.68414563     -3.45376877  301      0.40413610      1.00000000
     -3.454  0.0000E+00  0.0000E+00
     -3.430  0.0000E+00  0.0000E+00
     -3.406  0.0000E+00  0.0000E+00
     -3.382  0.0000E+00  0.0000E+00
     -3.359  0.0000E+00  0.0000E+00
     -3.335  0.0000E+00  0.0000E+00
     -3.311  0.0000E+00  0.0000E+00
     -3.287  0.4076E-11  0.9698E-13
     -3.263  0.1075E-07  0.2559E-09
     -3.240  0.8287E-05  0.1974E-06
     -3.216  0.1883E-02  0.4501E-04
     -3.192  0.1280E+00  0.3091E-02
     -3.168  0.2653E+01  0.6622E-01
     -3.144  0.1716E+02  0.4744E+00
     -3.121  0.3535E+02  0.1315E+01
     -3.097  0.2345E+02  0.1873E+01
     -3.073  0.5054E+01  0.1994E+01
     -3.049  0.2613E+01  0.2056E+01
     -3.025  0.2309E+02  0.2605E+01
     -3.002  0.8012E+02  0.4512E+01
     -2.978  0.9782E+02  0.6839E+01
     -2.954  0.4218E+02  0.7843E+01
     -2.930  0.6727E+01  0.8003E+01
     -2.907  0.7812E+01  0.8189E+01
     -2.883  0.4560E+02  0.9274E+01
     -2.859  0.9868E+02  0.1162E+02
     -2.835  0.7676E+02  0.1345E+02
     -2.811  0.2128E+02  0.1395E+02
     -2.788  0.5302E+01  0.1408E+02
     -2.764  0.2984E+02  0.1479E+02
     -2.740  0.9914E+02  0.1715E+02
     -2.716  0.1271E+03  0.2017E+02
     -2.692  0.6375E+02  0.2169E+02
     -2.669  0.1345E+02  0.2201E+02
     -2.645  0.1737E+02  0.2242E+02
     -2.621  0.8403E+02  0.2442E+02
     -2.597  0.1759E+03  0.2861E+02
     -2.573  0.1576E+03  0.3236E+02
     -2.550  0.5964E+02  0.3378E+02
     -2.526  0.1029E+02  0.3402E+02
     -2.502  0.1683E+02  0.3442E+02
     -2.478  0.6866E+02  0.3605E+02
     -2.454  0.1013E+03  0.3846E+02
     -2.431  0.5369E+02  0.3974E+02
     -2.407  0.1136E+02  0.4001E+02
     -2.383  0.1670E+02  0.4041E+02
     -2.359  0.8158E+02  0.4235E+02
     -2.335  0.1696E+03  0.4639E+02
     -2.312  0.1573E+03  0.5013E+02
     -2.288  0.6656E+02  0.5171E+02
     -2.264  0.1985E+02  0.5218E+02
     -2.240  0.5933E+02  0.5359E+02
     -2.217  0.1748E+03  0.5775E+02
     -2.193  0.2466E+03  0.6362E+02
     -2.169  0.1842E+03  0.6800E+02
     -2.145  0.7114E+02  0.6970E+02
     -2.121  0.1548E+02  0.7007E+02
     -2.098  0.2782E+02  0.7073E+02
     -2.074  0.8040E+02  0.7264E+02
     -2.050  0.9291E+02  0.7485E+02
     -2.026  0.4150E+02  0.7584E+02
     -2.002  0.1226E+02  0.7613E+02
     -1.979  0.4600E+02  0.7722E+02
     -1.955  0.1474E+03  0.8073E+02
     -1.931  0.2081E+03  0.8568E+02
     -1.907  0.1363E+03  0.8893E+02
     -1.883  0.4121E+02  0.8991E+02
     -1.860  0.2082E+02  0.9040E+02
     -1.836  0.8960E+02  0.9253E+02
     -1.812  0.2115E+03  0.9757E+02
     -1.788  0.2437E+03  0.1034E+03
     -1.764  0.1460E+03  0.1068E+03
     -1.741  0.4399E+02  0.1079E+03
     -1.717  0.1920E+02  0.1083E+03
     -1.693  0.7671E+02  0.1102E+03
     -1.669  0.1701E+03  0.1142E+03
     -1.645  0.1631E+03  0.1181E+03
     -1.622  0.6980E+02  0.1198E+03
     -1.598  0.3462E+02  0.1206E+03
     -1.574  0.1059E+03  0.1231E+03
     -1.550  0.2145E+03  0.1282E+03
     -1.527  0.2311E+03  0.1337E+03
     -1.503  0.1372E+03  0.1370E+03
     -1.479  0.4318E+02  0.1380E+03
     -1.455  0.4525E+02  0.1391E+03
     -1.431  0.1567E+03  0.1428E+03
     -1.408  0.2623E+03  0.1490E+03
     -1.384  0.2048E+03  0.1539E+03
     -1.360  0.7503E+02  0.1557E+03
     -1.336  0.1869E+02  0.1561E+03
     -1.312  0.4850E+02  0.1573E+03
     -1.289  0.1381E+03  0.1606E+03
     -1.265  0.1766E+03  0.1648E+03
     -1.241  0.1049E+03  0.1673E+03
     -1.217  0.2900E+02  0.1680E+03
     -1.193  0.2176E+02  0.1685E+03
     -1.170  0.8003E+02  0.1704E+03
     -1.146  0.1470E+03  0.1739E+03
     -1.122  0.1493E+03  0.1774E+03
     -1.098  0.9362E+02  0.1797E+03
     -1.074  0.8495E+02  0.1817E+03
     -1.051  0.1867E+03  0.1861E+03
     -1.027  0.2888E+03  0.1930E+03
     -1.003  0.3172E+03  0.2006E+03
     -0.979  0.2509E+03  0.2065E+03
     -0.955  0.1234E+03  0.2095E+03
     -0.932  0.7762E+02  0.2113E+03
     -0.908  0.1641E+03  0.2152E+03
     -0.884  0.2305E+03  0.2207E+03
     -0.860  0.1849E+03  0.2251E+03
     -0.837  0.9403E+02  0.2273E+03
     -0.813  0.3304E+02  0.2281E+03
     -0.789  0.5696E+02  0.2295E+03
     -0.765  0.1601E+03  0.2333E+03
     -0.741  0.2121E+03  0.2383E+03
     -0.718  0.1237E+03  0.2413E+03
     -0.694  0.4276E+02  0.2423E+03
     -0.670  0.8668E+02  0.2444E+03
     -0.646  0.2168E+03  0.2495E+03
     -0.622  0.2907E+03  0.2564E+03
     -0.599  0.2450E+03  0.2623E+03
     -0.575  0.1455E+03  0.2657E+03
     -0.551  0.1077E+03  0.2683E+03
     -0.527  0.1009E+03  0.2707E+03
     -0.503  0.4711E+02  0.2718E+03
     -0.480  0.1308E+02  0.2721E+03
     -0.456  0.4113E+02  0.2731E+03
     -0.432  0.1395E+03  0.2764E+03
     -0.408  0.2424E+03  0.2822E+03
     -0.384  0.2628E+03  0.2884E+03
     -0.361  0.2095E+03  0.2934E+03
     -0.337  0.1505E+03  0.2970E+03
     -0.313  0.1517E+03  0.3006E+03
     -0.289  0.1727E+03  0.3047E+03
     -0.266  0.1997E+03  0.3095E+03
     -0.242  0.2288E+03  0.3149E+03
     -0.218  0.2472E+03  0.3208E+03
     -0.194  0.2420E+03  0.3265E+03
     -0.170  0.1742E+03  0.3307E+03
     -0.147  0.1078E+03  0.3333E+03
     -0.123  0.1129E+03  0.3359E+03
     -0.099  0.1181E+03  0.3388E+03
     -0.075  0.1272E+03  0.3418E+03
     -0.051  0.1297E+03  0.3449E+03
     -0.028  0.1708E+03  0.3489E+03
     -0.004  0.2566E+03  0.3550E+03
      0.020  0.3214E+03  0.3627E+03
      0.044  0.3266E+03  0.3705E+03
      0.068  0.2507E+03  0.3764E+03
      0.091  0.1291E+03  0.3795E+03
      0.115  0.8777E+02  0.3816E+03
      0.139  0.1641E+03  0.3855E+03
      0.163  0.2441E+03  0.3913E+03
      0.187  0.2563E+03  0.3974E+03
      0.210  0.1882E+03  0.4019E+03
      0.234  0.8982E+02  0.4040E+03
      0.258  0.7711E+02  0.4058E+03
      0.282  0.1204E+03  0.4087E+03
      0.306  0.1534E+03  0.4123E+03
      0.329  0.2108E+03  0.4174E+03
      0.353  0.2280E+03  0.4228E+03
      0.377  0.1851E+03  0.4272E+03
      0.401  0.1743E+03  0.4313E+03
      0.424  0.2090E+03  0.4363E+03
      0.448  0.2398E+03  0.4420E+03
      0.472  0.2609E+03  0.4482E+03
      0.496  0.2613E+03  0.4544E+03
      0.520  0.2201E+03  0.4597E+03
      0.543  0.1493E+03  0.4632E+03
      0.567  0.1116E+03  0.4659E+03
      0.591  0.1388E+03  0.4692E+03
      0.615  0.1896E+03  0.4737E+03
      0.639  0.2155E+03  0.4788E+03
      0.662  0.2102E+03  0.4838E+03
      0.686  0.2243E+03  0.4892E+03
      0.710  0.2639E+03  0.4954E+03
      0.734  0.2970E+03  0.5025E+03
      0.758  0.3050E+03  0.5098E+03
      0.781  0.2924E+03  0.5167E+03
      0.805  0.2694E+03  0.5231E+03
      0.829  0.2397E+03  0.5288E+03
      0.853  0.2263E+03  0.5342E+03
      0.877  0.2368E+03  0.5399E+03
      0.900  0.2450E+03  0.5457E+03
      0.924  0.2500E+03  0.5516E+03
      0.948  0.2507E+03  0.5576E+03
      0.972  0.2437E+03  0.5634E+03
      0.996  0.2308E+03  0.5689E+03
      1.019  0.2105E+03  0.5739E+03
      1.043  0.2200E+03  0.5791E+03
      1.067  0.2486E+03  0.5850E+03
      1.091  0.2531E+03  0.5911E+03
      1.114  0.2549E+03  0.5971E+03
      1.138  0.2521E+03  0.6031E+03
      1.162  0.2467E+03  0.6090E+03
      1.186  0.2380E+03  0.6147E+03
      1.210  0.1961E+03  0.6193E+03
      1.233  0.1512E+03  0.6229E+03
      1.257  0.1643E+03  0.6268E+03
      1.281  0.2050E+03  0.6317E+03
      1.305  0.2290E+03  0.6372E+03
      1.329  0.2313E+03  0.6427E+03
      1.352  0.2004E+03  0.6474E+03
      1.376  0.1316E+03  0.6506E+03
      1.400  0.5594E+02  0.6519E+03
      1.424  0.4254E+02  0.6529E+03
      1.448  0.9912E+02  0.6553E+03
      1.471  0.1528E+03  0.6589E+03
      1.495  0.1484E+03  0.6624E+03
      1.519  0.1232E+03  0.6654E+03
      1.543  0.1389E+03  0.6687E+03
      1.567  0.1757E+03  0.6729E+03
      1.590  0.2042E+03  0.6777E+03
      1.614  0.2046E+03  0.6826E+03
      1.638  0.1893E+03  0.6871E+03
      1.662  0.1599E+03  0.6909E+03
      1.686  0.1139E+03  0.6936E+03
      1.709  0.1060E+03  0.6961E+03
      1.733  0.1433E+03  0.6995E+03
      1.757  0.1663E+03  0.7035E+03
      1.781  0.1738E+03  0.7076E+03
      1.804  0.1854E+03  0.7120E+03
      1.828  0.1999E+03  0.7168E+03
      1.852  0.1927E+03  0.7214E+03
      1.876  0.1822E+03  0.7257E+03
      1.900  0.1903E+03  0.7302E+03
      1.923  0.2181E+03  0.7354E+03
      1.947  0.2329E+03  0.7410E+03
      1.971  0.2043E+03  0.7458E+03
      1.995  0.1709E+03  0.7499E+03
      2.019  0.1499E+03  0.7535E+03
      2.042  0.1408E+03  0.7568E+03
      2.066  0.1521E+03  0.7604E+03
      2.090  0.1663E+03  0.7644E+03
      2.114  0.1658E+03  0.7683E+03
      2.138  0.1513E+03  0.7719E+03
      2.161  0.1484E+03  0.7755E+03
      2.185  0.1422E+03  0.7788E+03
      2.209  0.1218E+03  0.7817E+03
      2.233  0.8055E+02  0.7837E+03
      2.257  0.6255E+02  0.7852E+03
      2.280  0.9563E+02  0.7874E+03
      2.304  0.1177E+03  0.7902E+03
      2.328  0.1131E+03  0.7929E+03
      2.352  0.8579E+02  0.7950E+03
      2.376  0.3662E+02  0.7958E+03
      2.399  0.6659E+01  0.7960E+03
      2.423  0.1615E+01  0.7960E+03
      2.447  0.1380E+02  0.7964E+03
      2.471  0.5973E+02  0.7978E+03
      2.494  0.9843E+02  0.8001E+03
      2.518  0.6256E+02  0.8016E+03
      2.542  0.1509E+02  0.8020E+03
      2.566  0.1322E+01  0.8020E+03
      2.590  0.4187E-01  0.8020E+03
      2.613  0.1362E+00  0.8020E+03
      2.637  0.2886E+01  0.8021E+03
      2.661  0.2220E+02  0.8026E+03
      2.685  0.6955E+02  0.8043E+03
      2.709  0.1083E+03  0.8068E+03
      2.732  0.1176E+03  0.8096E+03
      2.756  0.1158E+03  0.8124E+03
      2.780  0.1044E+03  0.8149E+03
      2.804  0.8521E+02  0.8169E+03
      2.828  0.6408E+02  0.8184E+03
      2.851  0.8000E+02  0.8203E+03
      2.875  0.1162E+03  0.8231E+03
      2.899  0.1384E+03  0.8264E+03
      2.923  0.1554E+03  0.8301E+03
      2.947  0.1551E+03  0.8338E+03
      2.970  0.1434E+03  0.8372E+03
      2.994  0.1286E+03  0.8402E+03
      3.018  0.1020E+03  0.8427E+03
      3.042  0.8569E+02  0.8447E+03
      3.066  0.7437E+02  0.8465E+03
      3.089  0.4669E+02  0.8476E+03
      3.113  0.2266E+02  0.8481E+03
      3.137  0.3273E+02  0.8489E+03
      3.161  0.5767E+02  0.8503E+03
      3.184  0.6000E+02  0.8517E+03
      3.208  0.6635E+02  0.8533E+03
      3.232  0.8863E+02  0.8554E+03
      3.256  0.9521E+02  0.8577E+03
      3.280  0.8902E+02  0.8598E+03
      3.303  0.8185E+02  0.8617E+03
      3.327  0.7780E+02  0.8636E+03
      3.351  0.6258E+02  0.8651E+03
      3.375  0.3056E+02  0.8658E+03
      3.399  0.7929E+01  0.8660E+03
      3.422  0.9069E+00  0.8660E+03
      3.446  0.3789E-01  0.8660E+03
      3.470  0.5182E-03  0.8660E+03
      3.494  0.2194E-05  0.8660E+03
      3.518  0.2790E-08  0.8660E+03
      3.541  0.1045E-11  0.8660E+03
      3.565  0.0000E+00  0.8660E+03
      3.589  0.0000E+00  0.8660E+03
      3.613  0.0000E+00  0.8660E+03
      3.637  0.0000E+00  0.8660E+03
      3.660  0.0000E+00  0.8660E+03
      3.684  0.0000E+00  0.8660E+03
