 running on   64 total cores
 distrk:  each k-point on   32 cores,    2 groups
 distr:  one band on   32 cores,    1 groups
 vasp.6.2.1 16May21 (build Nov 23 2021 15:40:41) complex                        
  
 POSCAR found type information on POSCAR Li
 POSCAR found :  1 types and     432 ions
 scaLAPACK will be used
 -----------------------------------------------------------------------------
|                                                                             |
|           W    W    AA    RRRRR   N    N  II  N    N   GGGG   !!!           |
|           W    W   A  A   R    R  NN   N  II  NN   N  G    G  !!!           |
|           W    W  A    A  R    R  N N  N  II  N N  N  G       !!!           |
|           W WW W  AAAAAA  RRRRR   N  N N  II  N  N N  G  GGG   !            |
|           WW  WW  A    A  R   R   N   NN  II  N   NN  G    G                |
|           W    W  A    A  R    R  N    N  II  N    N   GGGG   !!!           |
|                                                                             |
|     For optimal performance we recommend to set                             |
|       NCORE = 2 up to number-of-cores-per-socket                            |
|     NCORE specifies how many cores store one orbital (NPAR=cpu/NCORE).      |
|     This setting can greatly improve the performance of VASP for DFT.       |
|     The default, NCORE=1 might be grossly inefficient on modern             |
|     multi-core architectures or massively parallel machines. Do your        |
|     own testing! More info at https://www.vasp.at/wiki/index.php/NCORE      |
|     Unfortunately you need to use the default for GW and RPA                |
|     calculations (for HF NCORE is supported but not extensively tested      |
|     yet).                                                                   |
|                                                                             |
 -----------------------------------------------------------------------------

 -----------------------------------------------------------------------------
|                                                                             |
|               ----> ADVICE to this user running VASP <----                  |
|                                                                             |
|     You have a (more or less) 'large supercell' and for larger cells it     |
|     might be more efficient to use real-space projection operators.         |
|     Therefore, try LREAL= Auto in the INCAR file.                           |
|     Mind: If you want to do very accurate calculations, keep the            |
|     reciprocal projection scheme (i.e. LREAL=.FALSE.).                      |
|                                                                             |
 -----------------------------------------------------------------------------

 LDA part: xc-table for Pade appr. of Perdew
 POSCAR found type information on POSCAR Li
 POSCAR found :  1 types and     432 ions
 POSCAR, INCAR and KPOINTS ok, starting setup
 FFT: planning ...
 WAVECAR not read
 entering main loop
       N       E                     dE             d eps       ncg     rms          rms(c)
DAV:   1    -0.263106425871E+03   -0.26311E+03   -0.10472E+05  3464   0.656E+02
DAV:   2    -0.773567578594E+03   -0.51046E+03   -0.46670E+03  4004   0.669E+01
DAV:   3    -0.808906049117E+03   -0.35338E+02   -0.32195E+02  4360   0.140E+01
DAV:   4    -0.810058216945E+03   -0.11522E+01   -0.11367E+01  3904   0.277E+00
DAV:   5    -0.810083414635E+03   -0.25198E-01   -0.25171E-01  4064   0.441E-01    0.685E+00
DAV:   6    -0.807840490830E+03    0.22429E+01   -0.55378E+00  3920   0.346E+00    0.541E+00
DAV:   7    -0.804396469963E+03    0.34440E+01   -0.43798E+00  3928   0.318E+00    0.330E+00
DAV:   8    -0.803237161342E+03    0.11593E+01   -0.23263E+00  3832   0.157E+00    0.170E+00
DAV:   9    -0.803091598674E+03    0.14556E+00   -0.12310E+00  3736   0.894E-01    0.942E-01
DAV:  10    -0.803083637736E+03    0.79609E-02   -0.21657E-01  3856   0.470E-01    0.657E-01
DAV:  11    -0.803057788365E+03    0.25849E-01   -0.60275E-02  3816   0.321E-01    0.441E-01
DAV:  12    -0.803045416220E+03    0.12372E-01   -0.16826E-02  3792   0.149E-01    0.174E-01
DAV:  13    -0.803045435609E+03   -0.19388E-04   -0.76309E-03  3848   0.843E-02    0.894E-02
DAV:  14    -0.803045211730E+03    0.22388E-03   -0.19288E-03  3880   0.529E-02    0.608E-02
DAV:  15    -0.803044873430E+03    0.33830E-03   -0.50047E-04  3848   0.310E-02    0.359E-02
DAV:  16    -0.803044738575E+03    0.13486E-03   -0.30372E-04  3712   0.156E-02    0.104E-02
DAV:  17    -0.803044734254E+03    0.43202E-05   -0.61912E-05  3824   0.774E-03
   1 F= -.80304473E+03 E0= -.80300083E+03  d E =-.878109E-01
