Li                                      
           1
    20.640000    0.000000    0.000000
     0.000000   20.640000    0.000000
     0.000000    0.000000   20.640000
   Li
   432
Direct configuration=     1
   0.99234999  0.98923181  0.01988990
   0.90783946  0.09454283  0.09049964
   0.82176346  0.17606889  0.17236815
   0.73502857  0.25439151  0.25227783
   0.66559564  0.33124381  0.33657026
   0.59405627  0.42332353  0.43913682
   0.49630603  0.50048126  0.49796033
   0.41447109  0.58925580  0.57286582
   0.31718897  0.67803967  0.66490875
   0.24858508  0.75194657  0.75713819
   0.16009194  0.83633892  0.83742428
   0.07940607  0.92299260  0.92460066
   0.07625572  0.91171413  0.09370739
   0.98951965  0.01265939  0.16269256
   0.91217387  0.08535120  0.25457865
   0.82323867  0.17443173  0.34432205
   0.73936803  0.23345689  0.41919242
   0.66669567  0.31620172  0.51104320
   0.58701748  0.41827633  0.58014902
   0.50437782  0.50639715  0.64847714
   0.40909441  0.58477151  0.74120266
   0.34445796  0.66258375  0.82937044
   0.24298309  0.74561659  0.92374981
   0.16698614  0.83584164  0.01191023
   0.16972120  0.83661806  0.16399420
   0.09132278  0.91972291  0.25185992
   0.00867676  0.99253070  0.32823432
   0.90538326  0.07904191  0.40859563
   0.83488870  0.16781069  0.49494588
   0.75935374  0.24581747  0.58728184
   0.66439500  0.33664826  0.65154926
   0.57844268  0.40979072  0.73850464
   0.49739585  0.49954859  0.82708797
   0.41684734  0.59807807  0.92740695
   0.34105961  0.66653590  0.00261983
   0.23912651  0.75139539  0.08666238
   0.23873042  0.76069890  0.24364896
   0.15834376  0.84337356  0.33292068
   0.09499677  0.92228300  0.43791782
   0.99766355  0.01009759  0.49848493
   0.92832648  0.08922943  0.58314667
   0.84855528  0.16108838  0.66244240
   0.75023847  0.22371837  0.74283631
   0.68161626  0.33650842  0.82308600
   0.57994341  0.42465271  0.90603551
   0.49938467  0.48400278  0.00092394
   0.43434699  0.57631674  0.07532600
   0.34999844  0.67004671  0.17085251
   0.32635210  0.67643818  0.32458062
   0.23827344  0.75438841  0.40609639
   0.16526055  0.84369042  0.50893798
   0.08109670  0.92285141  0.57000853
   0.99155734  0.98341764  0.65182164
   0.92258010  0.08594626  0.74925254
   0.85389512  0.16719704  0.82724254
   0.75273733  0.24047992  0.89908107
   0.65748009  0.33512384  0.99272481
   0.59862726  0.41904990  0.07480826
   0.49977130  0.48702658  0.16237729
   0.43069822  0.58133516  0.26586427
   0.40165314  0.59321968  0.41393681
   0.33284680  0.67552791  0.48534173
   0.23615787  0.74116442  0.57015264
   0.16644421  0.83544003  0.68123915
   0.07967843  0.91241674  0.75629342
   0.99730974  0.98759349  0.83258166
   0.93116743  0.09233467  0.91646348
   0.83787187  0.16326567  0.99911990
   0.74469097  0.26464802  0.08450340
   0.67601491  0.34296659  0.15808848
   0.58623946  0.42007599  0.26918156
   0.50823585  0.50646635  0.34752413
   0.05204395  0.09009328  0.92288576
   0.99262877  0.16489363  0.02104942
   0.91473637  0.24398310  0.10603984
   0.83601633  0.33308812  0.17724621
   0.73379349  0.40947293  0.25549414
   0.67585493  0.51682767  0.33918304
   0.58300423  0.58172278  0.42158149
   0.49978721  0.67030652  0.50923753
   0.41254213  0.75946177  0.58490901
   0.31521920  0.83710152  0.66671276
   0.25211040  0.91276899  0.75958203
   0.15639474  0.00133855  0.84276348
   0.16383906  0.00058914  0.98532124
   0.07594987  0.07978664  0.08972136
   0.99721320  0.16677575  0.18172634
   0.91510798  0.25202876  0.26194388
   0.82487807  0.33284916  0.34599245
   0.73197003  0.40748941  0.42848190
   0.67502680  0.50887984  0.50166098
   0.58616400  0.58583095  0.59972306
   0.49242642  0.66691118  0.66341319
   0.40979411  0.75345625  0.74645910
   0.31747115  0.83162260  0.82512369
   0.23470569  0.92586465  0.91084365
   0.25925019  0.93771209  0.09168792
   0.16437212  0.00953529  0.17435981
   0.06838663  0.07645870  0.25812383
   0.00232080  0.17188106  0.34437616
   0.91763947  0.25854957  0.42195635
   0.81397314  0.32738192  0.49325821
   0.78058378  0.41891025  0.58465345
   0.67389533  0.49145756  0.66675173
   0.58296635  0.56954657  0.74247787
   0.49666356  0.68049139  0.81875758
   0.41306825  0.75827934  0.91718947
   0.32252803  0.83359971  0.99639806
   0.32247266  0.84432431  0.15949754
   0.23341385  0.91677140  0.25407264
   0.16740095  0.01421883  0.34591225
   0.06778659  0.08603535  0.42740150
   0.98497411  0.16355187  0.50354576
   0.91986476  0.25822883  0.57723767
   0.83376432  0.32947034  0.66914968
   0.75444524  0.41134816  0.74312500
   0.67035520  0.50448322  0.81470490
   0.57298908  0.58652813  0.91997429
   0.48987386  0.69384494  0.97078091
   0.40836380  0.75745641  0.08091264
   0.41739770  0.76840577  0.25454893
   0.32866385  0.84622448  0.34514055
   0.25306466  0.91666506  0.41386309
   0.18547610  0.99403353  0.50082819
   0.09452859  0.07919060  0.57067482
   0.00556606  0.16774370  0.65722006
   0.92934365  0.26072439  0.74904539
   0.82420570  0.33601716  0.83098779
   0.75528844  0.43224109  0.91589775
   0.66994379  0.50507467  0.00167355
   0.57934732  0.57888911  0.07924854
   0.49448190  0.67441758  0.16949086
   0.50578952  0.67103486  0.33492382
   0.42621337  0.76852778  0.40826951
   0.33492154  0.82470009  0.49821169
   0.26162427  0.92136911  0.59443267
   0.18034339  0.00233401  0.69013219
   0.08852632  0.07461552  0.73858019
   0.00139395  0.16425599  0.83252007
   0.92775348  0.25427589  0.91235232
   0.82313533  0.32672780  0.00081654
   0.74935337  0.42231914  0.08611011
   0.66567628  0.50039358  0.17219308
   0.57687194  0.56488443  0.23871824
   0.16072583  0.15394546  0.85346496
   0.06860201  0.25720887  0.92223687
   0.99762118  0.31919433  0.00061304
   0.90552769  0.41553189  0.08410883
   0.83109324  0.49815985  0.16228866
   0.74657205  0.58076838  0.25039476
   0.65715749  0.66604303  0.32817011
   0.58480355  0.75483775  0.40816703
   0.50634720  0.83383601  0.51285633
   0.41455254  0.91199991  0.60030566
   0.33254429  0.99359542  0.66126050
   0.27086418  0.09667389  0.74584802
   0.26145343  0.08602140  0.91024154
   0.15568425  0.16730804  0.99137430
   0.09187622  0.24911799  0.08557305
   0.00317744  0.33141940  0.16957778
   0.91105861  0.42434165  0.26366473
   0.81240515  0.48995656  0.34968311
   0.74927448  0.58739397  0.42217890
   0.65741313  0.66437802  0.49744224
   0.59246143  0.74041097  0.61034045
   0.49258627  0.82797767  0.67718032
   0.40704260  0.92217190  0.74176149
   0.33510992  0.00458436  0.82571180
   0.34161306  0.01302250  0.00750784
   0.24401807  0.10123147  0.08343061
   0.14661743  0.16136983  0.18120921
   0.08654007  0.26853107  0.25223189
   0.99906630  0.33080467  0.33065779
   0.91966843  0.39664091  0.39941456
   0.83435387  0.49192862  0.48573646
   0.76485134  0.58499279  0.58251975
   0.66443912  0.65948756  0.67398269
   0.59096559  0.75911853  0.74387260
   0.50449012  0.85203838  0.81829927
   0.41150540  0.91360515  0.93262511
   0.41917608  0.90874489  0.08809922
   0.33719429  0.02061413  0.18708304
   0.23322583  0.10641617  0.26840137
   0.15399098  0.17513722  0.33606744
   0.07487637  0.25520672  0.40516569
   0.99414506  0.33565314  0.50285366
   0.90065818  0.41204763  0.58170511
   0.83252160  0.50261486  0.66881846
   0.76857157  0.57212554  0.73990465
   0.67808871  0.65798612  0.82909197
   0.59713949  0.75868481  0.90956024
   0.50802501  0.84008982  0.00914708
   0.50978613  0.84829194  0.15783345
   0.41316458  0.92145749  0.24863268
   0.32826886  0.02202641  0.32016047
   0.24784420  0.08999330  0.41217358
   0.17110993  0.16442620  0.48545451
   0.08619072  0.24810461  0.57642846
   0.01195000  0.34805120  0.65475009
   0.91123104  0.41398269  0.73501471
   0.83469747  0.49459255  0.83590625
   0.73945887  0.58750574  0.92507464
   0.66906066  0.66802970  0.98993347
   0.58155994  0.74923333  0.09791553
   0.57651566  0.77692277  0.25158052
   0.50159507  0.84602383  0.32891300
   0.40821153  0.91267852  0.42129265
   0.32552996  0.00505441  0.50142877
   0.25779458  0.10090040  0.58760650
   0.16397802  0.17856726  0.66358646
   0.08743928  0.26291130  0.75132117
   0.00308130  0.35539957  0.81602330
   0.89895998  0.41150684  0.93110500
   0.82825976  0.50499018  0.00655797
   0.74367897  0.59263645  0.08617173
   0.65989987  0.65820724  0.16853316
   0.23584040  0.25784228  0.75815966
   0.15956319  0.34254751  0.83818611
   0.07617829  0.41840022  0.93241037
   0.00718872  0.50024417  0.00709562
   0.92835504  0.57397308  0.08356433
   0.83824965  0.65459841  0.17872635
   0.73297091  0.75171838  0.23143172
   0.66153316  0.83780661  0.33360115
   0.56473229  0.92484946  0.40183131
   0.49964286  0.99790495  0.51451464
   0.40640946  0.08830217  0.60396679
   0.33264679  0.19107579  0.67547238
   0.32847338  0.17998143  0.82827584
   0.24099264  0.24919932  0.90565958
   0.17686822  0.33296590  0.99783338
   0.08144352  0.40011472  0.08353918
   0.99095573  0.48211699  0.17633679
   0.91945013  0.56688536  0.26909596
   0.82058051  0.67681464  0.33036055
   0.73687648  0.75170364  0.40975090
   0.65735787  0.83482392  0.49088035
   0.57281221  0.90487519  0.58657456
   0.49884163  0.01622147  0.67248454
   0.41289002  0.09470730  0.74228358
   0.40748682  0.08938847  0.92012457
   0.32865586  0.18636341  0.01293134
   0.24094137  0.26009736  0.09111078
   0.17620334  0.35054583  0.16126936
   0.07852441  0.40390684  0.27258898
   0.00455137  0.49950031  0.34902327
   0.91340988  0.58569950  0.40706689
   0.83726086  0.67468180  0.49019500
   0.74856618  0.74998436  0.58330923
   0.67518902  0.83533731  0.67804893
   0.58491185  0.93483000  0.74852517
   0.49030808  0.01639875  0.83654053
   0.50054524  0.99178149  0.98899914
   0.42130519  0.09167580  0.07015364
   0.33171163  0.17685894  0.15834341
   0.25393801  0.25614225  0.25377211
   0.18169548  0.33548845  0.33259441
   0.07926922  0.41175916  0.41655094
   0.98606588  0.48674008  0.50180096
   0.91562931  0.59707056  0.57030352
   0.84537034  0.66754755  0.67891262
   0.75682395  0.75011834  0.74463690
   0.68606804  0.83242138  0.82274643
   0.59233648  0.91245417  0.89394189
   0.58929120  0.93096098  0.08957371
   0.49695166  0.00817818  0.16771451
   0.42430274  0.10067683  0.23740763
   0.34733903  0.16381210  0.33203489
   0.25803051  0.24163055  0.40105164
   0.16088025  0.33982829  0.50764499
   0.06909766  0.42286996  0.56770972
   0.00201311  0.50029254  0.66003651
   0.92021173  0.58869728  0.75034371
   0.83591823  0.65461372  0.82610557
   0.76461899  0.73976678  0.91218939
   0.67588273  0.83519683  0.00399354
   0.66613803  0.83857823  0.14612999
   0.59755392  0.91325558  0.23062309
   0.51262886  0.00034253  0.30093876
   0.42012503  0.06538644  0.41862858
   0.32595755  0.15620264  0.51022586
   0.23009445  0.23633292  0.57308164
   0.16337548  0.32568902  0.66448407
   0.07975781  0.42374177  0.75308790
   0.98413648  0.49444227  0.83745308
   0.90848147  0.59013466  0.92951829
   0.83219676  0.67149333  0.00726947
   0.75416992  0.75485106  0.08823516
   0.32443582  0.33313907  0.66721899
   0.23960966  0.42027864  0.74914634
   0.17723736  0.49818327  0.85239337
   0.08601307  0.56043314  0.92132482
   0.00337785  0.66635106  0.00424787
   0.91563294  0.73968203  0.09938580
   0.81305057  0.82065299  0.16102353
   0.75046593  0.92222291  0.24204262
   0.63973698  0.00436693  0.32614432
   0.56188157  0.07852204  0.41550074
   0.48689259  0.16285948  0.50471254
   0.40599974  0.25595560  0.56202450
   0.42886533  0.25651611  0.74887824
   0.31933727  0.33347525  0.83242344
   0.24784456  0.42371185  0.91872378
   0.17704679  0.49726430  0.01201083
   0.08704539  0.56923605  0.08184185
   0.00174065  0.65039284  0.17479390
   0.92902216  0.74745635  0.25589008
   0.83233487  0.82691891  0.32918656
   0.75730894  0.90809354  0.40453197
   0.66513187  0.99002114  0.52481705
   0.57002167  0.07390833  0.59023017
   0.50450739  0.16815111  0.65063842
   0.51316498  0.16407505  0.82219108
   0.40127551  0.25635548  0.92124218
   0.32273493  0.34033415  0.00746979
   0.26053471  0.42303524  0.09511899
   0.15586496  0.48176734  0.17683942
   0.07485198  0.56245137  0.24777824
   0.99961031  0.66108879  0.32745097
   0.92856591  0.74897749  0.39744319
   0.83869317  0.81710596  0.49458716
   0.77109158  0.91606481  0.59131555
   0.67653474  0.99276572  0.66035324
   0.58901251  0.07813571  0.74939782
   0.59989087  0.08999830  0.90504610
   0.50768478  0.17075175  0.99324295
   0.41241462  0.25482318  0.08714026
   0.34074239  0.33199236  0.16066628
   0.27508418  0.41496813  0.24275484
   0.17404701  0.48867149  0.34322586
   0.09197706  0.58031923  0.40668846
   0.99962244  0.65582427  0.48522902
   0.92510775  0.74226825  0.58231991
   0.86258549  0.81987631  0.66898368
   0.77559524  0.91583449  0.74551009
   0.67273092  0.99158756  0.82906595
   0.67518788  0.00087694  0.99305898
   0.57142260  0.08898065  0.06845115
   0.51351612  0.17183798  0.15254792
   0.42312190  0.24031730  0.24094106
   0.34102481  0.33157693  0.33014578
   0.25617412  0.40696352  0.43269967
   0.16397067  0.49586479  0.49975668
   0.08034705  0.58505056  0.57231814
   0.01262735  0.65820518  0.67616003
   0.93248452  0.72860752  0.76091041
   0.84972248  0.80992548  0.83080072
   0.75782582  0.90293303  0.90182119
   0.75132735  0.91118366  0.09209389
   0.67384567  0.01438462  0.15686750
   0.57567817  0.10060558  0.24269291
   0.49629923  0.18265709  0.34173138
   0.41271924  0.24704659  0.42227955
   0.32436826  0.31505462  0.49953184
   0.24285836  0.41829675  0.57998987
   0.15607961  0.49955739  0.65298566
   0.08971586  0.55961194  0.75822006
   0.00598954  0.64360943  0.84898271
   0.90911627  0.73518004  0.90328561
   0.82906915  0.83888451  0.99315487
   0.42385566  0.41430893  0.57337313
   0.33602008  0.50473399  0.66580816
   0.25193677  0.58423619  0.74963424
   0.15588854  0.65393668  0.84216164
   0.08268241  0.74900819  0.92377104
   0.99621205  0.82179781  0.99572337
   0.90109129  0.91404977  0.08898122
   0.82576784  0.01001363  0.17796400
   0.75689388  0.08427389  0.26505334
   0.65746571  0.17806390  0.33213219
   0.58869702  0.24689219  0.43819748
   0.49237079  0.32961987  0.49496031
   0.48672724  0.33183580  0.65163957
   0.42307756  0.41058156  0.75272680
   0.33415084  0.49922386  0.84415935
   0.25280483  0.58358767  0.92348224
   0.17388312  0.65194128  0.01838045
   0.07913714  0.73963044  0.09707063
   0.99601638  0.84221630  0.16757873
   0.91997751  0.91364871  0.24445737
   0.83817523  0.99395398  0.33262582
   0.73933203  0.05897036  0.42347204
   0.66860385  0.15019389  0.50977438
   0.56587076  0.24416598  0.56832831
   0.59558939  0.24653860  0.74276415
   0.50687392  0.32310689  0.83120112
   0.41344802  0.40868087  0.91650865
   0.34411411  0.49295507  0.99385563
   0.27286191  0.59004690  0.09742048
   0.16786488  0.64897368  0.17516849
   0.08786300  0.74602587  0.23154429
   0.01917202  0.83370914  0.33427672
   0.93654082  0.91220417  0.41162238
   0.83257651  0.00059149  0.49440616
   0.75565601  0.07045363  0.58966200
   0.66944305  0.15524708  0.66524912
   0.66580855  0.15319900  0.82971174
   0.59017432  0.24516614  0.90118715
   0.50297281  0.32133067  0.00978379
   0.42115615  0.41792013  0.07941308
   0.34226637  0.49196397  0.16378582
   0.25708078  0.57722834  0.24482341
   0.15473867  0.65158599  0.32158703
   0.09539274  0.74707386  0.40070019
   0.00647862  0.83067266  0.48563508
   0.92173524  0.90312503  0.57179884
   0.84690147  0.99274760  0.66569193
   0.76984342  0.06948371  0.75710985
   0.76443293  0.08211507  0.91019450
   0.66861072  0.16380825  0.99926705
   0.58729345  0.24165725  0.08822169
   0.50341358  0.33872058  0.16195480
   0.43216498  0.42621028  0.24932933
   0.34030632  0.49696356  0.32672095
   0.24902625  0.58578106  0.40731926
   0.16379406  0.64713965  0.50021563
   0.08586162  0.73967310  0.57949158
   0.00958291  0.82570858  0.66250450
   0.91830792  0.90000997  0.73692791
   0.85260836  0.00117826  0.84248886
   0.83505606  0.01390572  0.99855606
   0.75272316  0.09909419  0.07923419
   0.66166242  0.16420243  0.17459580
   0.58629411  0.26183447  0.24722118
   0.50073935  0.32232902  0.35184357
   0.40590113  0.41718246  0.41210636
   0.33705609  0.51463022  0.49682223
   0.23106347  0.58948172  0.58008637
   0.15929064  0.66516212  0.66180704
   0.09220143  0.72684934  0.75593361
   0.01612568  0.83453479  0.84528789
   0.90791393  0.90587980  0.91874688
