 504 504   0   0
  0.2106490E+02  0.2170700E-08  0.2148436E-08  0.2276500E-08  0.5000000E-15
  1.000000000000000E-004
  CAR 
 Li                                      
      3.17952442     -3.47049535  301      0.28755125      1.00000000
     -3.470  0.0000E+00  0.0000E+00
     -3.448  0.0000E+00  0.0000E+00
     -3.426  0.0000E+00  0.0000E+00
     -3.404  0.0000E+00  0.0000E+00
     -3.382  0.0000E+00  0.0000E+00
     -3.360  0.0000E+00  0.0000E+00
     -3.337  0.6010E-13  0.1332E-14
     -3.315  0.1684E-09  0.3733E-11
     -3.293  0.1618E-06  0.3590E-08
     -3.271  0.5355E-04  0.1191E-05
     -3.249  0.6157E-02  0.1377E-03
     -3.227  0.2487E+00  0.5650E-02
     -3.204  0.3578E+01  0.8497E-01
     -3.182  0.1863E+02  0.4980E+00
     -3.160  0.3558E+02  0.1287E+01
     -3.138  0.2518E+02  0.1845E+01
     -3.116  0.8609E+01  0.2036E+01
     -3.094  0.1558E+02  0.2381E+01
     -3.071  0.4686E+02  0.3420E+01
     -3.049  0.7734E+02  0.5134E+01
     -3.027  0.7633E+02  0.6826E+01
     -3.005  0.4214E+02  0.7760E+01
     -2.983  0.1825E+02  0.8165E+01
     -2.961  0.3555E+02  0.8953E+01
     -2.938  0.7227E+02  0.1055E+02
     -2.916  0.8208E+02  0.1237E+02
     -2.894  0.5524E+02  0.1360E+02
     -2.872  0.3160E+02  0.1430E+02
     -2.850  0.4374E+02  0.1527E+02
     -2.828  0.7185E+02  0.1686E+02
     -2.805  0.9547E+02  0.1898E+02
     -2.783  0.8671E+02  0.2090E+02
     -2.761  0.5552E+02  0.2213E+02
     -2.739  0.6157E+02  0.2350E+02
     -2.717  0.1006E+03  0.2573E+02
     -2.695  0.1255E+03  0.2851E+02
     -2.672  0.1219E+03  0.3121E+02
     -2.650  0.8656E+02  0.3313E+02
     -2.628  0.4141E+02  0.3405E+02
     -2.606  0.4225E+02  0.3498E+02
     -2.584  0.7747E+02  0.3670E+02
     -2.562  0.8594E+02  0.3861E+02
     -2.539  0.6563E+02  0.4006E+02
     -2.517  0.6021E+02  0.4140E+02
     -2.495  0.7531E+02  0.4307E+02
     -2.473  0.9551E+02  0.4518E+02
     -2.451  0.1129E+03  0.4769E+02
     -2.429  0.1214E+03  0.5038E+02
     -2.406  0.1149E+03  0.5292E+02
     -2.384  0.1136E+03  0.5544E+02
     -2.362  0.1275E+03  0.5827E+02
     -2.340  0.1481E+03  0.6155E+02
     -2.318  0.1525E+03  0.6493E+02
     -2.296  0.1318E+03  0.6785E+02
     -2.273  0.1012E+03  0.7010E+02
     -2.251  0.6623E+02  0.7157E+02
     -2.229  0.4889E+02  0.7265E+02
     -2.207  0.6650E+02  0.7412E+02
     -2.185  0.7761E+02  0.7584E+02
     -2.163  0.8331E+02  0.7769E+02
     -2.140  0.1053E+03  0.8003E+02
     -2.118  0.1287E+03  0.8288E+02
     -2.096  0.1403E+03  0.8599E+02
     -2.074  0.1319E+03  0.8891E+02
     -2.052  0.1208E+03  0.9159E+02
     -2.030  0.1203E+03  0.9426E+02
     -2.007  0.1296E+03  0.9713E+02
     -1.985  0.1479E+03  0.1004E+03
     -1.963  0.1677E+03  0.1041E+03
     -1.941  0.1669E+03  0.1078E+03
     -1.919  0.1229E+03  0.1105E+03
     -1.897  0.6773E+02  0.1120E+03
     -1.874  0.6758E+02  0.1135E+03
     -1.852  0.1121E+03  0.1160E+03
     -1.830  0.1375E+03  0.1191E+03
     -1.808  0.1379E+03  0.1221E+03
     -1.786  0.1376E+03  0.1252E+03
     -1.764  0.1432E+03  0.1284E+03
     -1.741  0.1580E+03  0.1319E+03
     -1.719  0.1705E+03  0.1356E+03
     -1.697  0.1657E+03  0.1393E+03
     -1.675  0.1412E+03  0.1424E+03
     -1.653  0.1303E+03  0.1453E+03
     -1.631  0.1345E+03  0.1483E+03
     -1.608  0.1410E+03  0.1514E+03
     -1.586  0.1539E+03  0.1549E+03
     -1.564  0.1510E+03  0.1582E+03
     -1.542  0.1214E+03  0.1609E+03
     -1.520  0.1006E+03  0.1631E+03
     -1.498  0.1079E+03  0.1655E+03
     -1.475  0.1176E+03  0.1681E+03
     -1.453  0.1182E+03  0.1707E+03
     -1.431  0.1294E+03  0.1736E+03
     -1.409  0.1461E+03  0.1768E+03
     -1.387  0.1521E+03  0.1802E+03
     -1.365  0.1502E+03  0.1835E+03
     -1.342  0.1538E+03  0.1870E+03
     -1.320  0.1625E+03  0.1906E+03
     -1.298  0.1697E+03  0.1943E+03
     -1.276  0.1895E+03  0.1985E+03
     -1.254  0.2039E+03  0.2030E+03
     -1.232  0.2052E+03  0.2076E+03
     -1.209  0.2114E+03  0.2123E+03
     -1.187  0.2104E+03  0.2169E+03
     -1.165  0.1887E+03  0.2211E+03
     -1.143  0.1591E+03  0.2246E+03
     -1.121  0.1331E+03  0.2276E+03
     -1.099  0.1136E+03  0.2301E+03
     -1.076  0.1155E+03  0.2327E+03
     -1.054  0.1390E+03  0.2358E+03
     -1.032  0.1631E+03  0.2394E+03
     -1.010  0.1708E+03  0.2432E+03
     -0.988  0.1681E+03  0.2469E+03
     -0.966  0.1689E+03  0.2506E+03
     -0.943  0.1763E+03  0.2545E+03
     -0.921  0.1862E+03  0.2587E+03
     -0.899  0.1793E+03  0.2626E+03
     -0.877  0.1613E+03  0.2662E+03
     -0.855  0.1530E+03  0.2696E+03
     -0.833  0.1496E+03  0.2729E+03
     -0.810  0.1554E+03  0.2764E+03
     -0.788  0.1667E+03  0.2801E+03
     -0.766  0.1626E+03  0.2837E+03
     -0.744  0.1584E+03  0.2872E+03
     -0.722  0.1698E+03  0.2909E+03
     -0.700  0.1898E+03  0.2951E+03
     -0.677  0.2120E+03  0.2998E+03
     -0.655  0.2212E+03  0.3047E+03
     -0.633  0.2172E+03  0.3096E+03
     -0.611  0.2179E+03  0.3144E+03
     -0.589  0.2199E+03  0.3193E+03
     -0.567  0.2185E+03  0.3241E+03
     -0.544  0.2191E+03  0.3290E+03
     -0.522  0.2106E+03  0.3336E+03
     -0.500  0.1897E+03  0.3378E+03
     -0.478  0.1744E+03  0.3417E+03
     -0.456  0.1758E+03  0.3456E+03
     -0.434  0.1828E+03  0.3497E+03
     -0.411  0.1782E+03  0.3536E+03
     -0.389  0.1690E+03  0.3574E+03
     -0.367  0.1745E+03  0.3612E+03
     -0.345  0.1888E+03  0.3654E+03
     -0.323  0.1988E+03  0.3698E+03
     -0.301  0.2008E+03  0.3743E+03
     -0.278  0.1980E+03  0.3786E+03
     -0.256  0.2062E+03  0.3832E+03
     -0.234  0.2222E+03  0.3881E+03
     -0.212  0.2256E+03  0.3931E+03
     -0.190  0.2242E+03  0.3981E+03
     -0.168  0.2357E+03  0.4033E+03
     -0.145  0.2447E+03  0.4088E+03
     -0.123  0.2325E+03  0.4139E+03
     -0.101  0.2208E+03  0.4188E+03
     -0.079  0.2173E+03  0.4236E+03
     -0.057  0.2175E+03  0.4285E+03
     -0.035  0.2123E+03  0.4332E+03
     -0.012  0.2069E+03  0.4377E+03
      0.010  0.2081E+03  0.4424E+03
      0.032  0.2032E+03  0.4469E+03
      0.054  0.1959E+03  0.4512E+03
      0.076  0.1968E+03  0.4556E+03
      0.098  0.2014E+03  0.4600E+03
      0.121  0.2050E+03  0.4646E+03
      0.143  0.2090E+03  0.4692E+03
      0.165  0.2151E+03  0.4740E+03
      0.187  0.2194E+03  0.4788E+03
      0.209  0.2316E+03  0.4840E+03
      0.231  0.2517E+03  0.4895E+03
      0.254  0.2585E+03  0.4953E+03
      0.276  0.2553E+03  0.5009E+03
      0.298  0.2601E+03  0.5067E+03
      0.320  0.2665E+03  0.5126E+03
      0.342  0.2665E+03  0.5185E+03
      0.364  0.2672E+03  0.5244E+03
      0.387  0.2633E+03  0.5303E+03
      0.409  0.2636E+03  0.5361E+03
      0.431  0.2690E+03  0.5421E+03
      0.453  0.2612E+03  0.5479E+03
      0.475  0.2485E+03  0.5534E+03
      0.497  0.2488E+03  0.5589E+03
      0.520  0.2530E+03  0.5645E+03
      0.542  0.2418E+03  0.5699E+03
      0.564  0.2287E+03  0.5749E+03
      0.586  0.2276E+03  0.5800E+03
      0.608  0.2311E+03  0.5851E+03
      0.630  0.2372E+03  0.5904E+03
      0.653  0.2335E+03  0.5955E+03
      0.675  0.2128E+03  0.6003E+03
      0.697  0.2006E+03  0.6047E+03
      0.719  0.2042E+03  0.6092E+03
      0.741  0.2060E+03  0.6138E+03
      0.763  0.2072E+03  0.6184E+03
      0.786  0.2169E+03  0.6232E+03
      0.808  0.2235E+03  0.6281E+03
      0.830  0.2242E+03  0.6331E+03
      0.852  0.2277E+03  0.6382E+03
      0.874  0.2316E+03  0.6433E+03
      0.896  0.2236E+03  0.6483E+03
      0.919  0.2167E+03  0.6531E+03
      0.941  0.2202E+03  0.6579E+03
      0.963  0.2241E+03  0.6629E+03
      0.985  0.2230E+03  0.6679E+03
      1.007  0.2240E+03  0.6728E+03
      1.029  0.2304E+03  0.6779E+03
      1.052  0.2331E+03  0.6831E+03
      1.074  0.2274E+03  0.6881E+03
      1.096  0.2207E+03  0.6930E+03
      1.118  0.2141E+03  0.6978E+03
      1.140  0.2136E+03  0.7025E+03
      1.162  0.2151E+03  0.7073E+03
      1.185  0.2135E+03  0.7120E+03
      1.207  0.2107E+03  0.7167E+03
      1.229  0.2141E+03  0.7214E+03
      1.251  0.2205E+03  0.7263E+03
      1.273  0.2157E+03  0.7311E+03
      1.295  0.2173E+03  0.7359E+03
      1.318  0.2230E+03  0.7408E+03
      1.340  0.2250E+03  0.7458E+03
      1.362  0.2150E+03  0.7506E+03
      1.384  0.2001E+03  0.7550E+03
      1.406  0.2071E+03  0.7596E+03
      1.428  0.2275E+03  0.7647E+03
      1.451  0.2335E+03  0.7698E+03
      1.473  0.2291E+03  0.7749E+03
      1.495  0.2253E+03  0.7799E+03
      1.517  0.2142E+03  0.7847E+03
      1.539  0.2176E+03  0.7895E+03
      1.561  0.2250E+03  0.7945E+03
      1.584  0.2204E+03  0.7994E+03
      1.606  0.2163E+03  0.8042E+03
      1.628  0.2202E+03  0.8090E+03
      1.650  0.2255E+03  0.8140E+03
      1.672  0.2203E+03  0.8189E+03
      1.694  0.2189E+03  0.8238E+03
      1.717  0.2130E+03  0.8285E+03
      1.739  0.2028E+03  0.8330E+03
      1.761  0.1974E+03  0.8374E+03
      1.783  0.1913E+03  0.8416E+03
      1.805  0.1946E+03  0.8459E+03
      1.827  0.2056E+03  0.8505E+03
      1.850  0.2015E+03  0.8549E+03
      1.872  0.1971E+03  0.8593E+03
      1.894  0.1945E+03  0.8636E+03
      1.916  0.1907E+03  0.8679E+03
      1.938  0.1922E+03  0.8721E+03
      1.960  0.1907E+03  0.8763E+03
      1.983  0.1831E+03  0.8804E+03
      2.005  0.1696E+03  0.8842E+03
      2.027  0.1649E+03  0.8878E+03
      2.049  0.1737E+03  0.8917E+03
      2.071  0.1765E+03  0.8956E+03
      2.093  0.1723E+03  0.8994E+03
      2.116  0.1741E+03  0.9033E+03
      2.138  0.1731E+03  0.9071E+03
      2.160  0.1681E+03  0.9108E+03
      2.182  0.1571E+03  0.9143E+03
      2.204  0.1464E+03  0.9175E+03
      2.226  0.1510E+03  0.9209E+03
      2.249  0.1593E+03  0.9244E+03
      2.271  0.1583E+03  0.9279E+03
      2.293  0.1530E+03  0.9313E+03
      2.315  0.1467E+03  0.9346E+03
      2.337  0.1515E+03  0.9379E+03
      2.359  0.1576E+03  0.9414E+03
      2.382  0.1503E+03  0.9448E+03
      2.404  0.1433E+03  0.9479E+03
      2.426  0.1497E+03  0.9513E+03
      2.448  0.1607E+03  0.9548E+03
      2.470  0.1609E+03  0.9584E+03
      2.492  0.1434E+03  0.9616E+03
      2.515  0.1320E+03  0.9645E+03
      2.537  0.1396E+03  0.9676E+03
      2.559  0.1485E+03  0.9709E+03
      2.581  0.1511E+03  0.9742E+03
      2.603  0.1504E+03  0.9776E+03
      2.625  0.1425E+03  0.9807E+03
      2.648  0.1311E+03  0.9836E+03
      2.670  0.1310E+03  0.9865E+03
      2.692  0.1341E+03  0.9895E+03
      2.714  0.1194E+03  0.9921E+03
      2.736  0.1043E+03  0.9945E+03
      2.758  0.1033E+03  0.9968E+03
      2.781  0.1089E+03  0.9992E+03
      2.803  0.1108E+03  0.1002E+04
      2.825  0.1084E+03  0.1004E+04
      2.847  0.1044E+03  0.1006E+04
      2.869  0.8862E+02  0.1008E+04
      2.891  0.5482E+02  0.1010E+04
      2.914  0.1875E+02  0.1010E+04
      2.936  0.2864E+01  0.1010E+04
      2.958  0.1745E+00  0.1010E+04
      2.980  0.3985E-02  0.1010E+04
      3.002  0.3292E-04  0.1010E+04
      3.024  0.9616E-07  0.1010E+04
      3.047  0.9786E-10  0.1010E+04
      3.069  0.3256E-13  0.1010E+04
      3.091  0.0000E+00  0.1010E+04
      3.113  0.0000E+00  0.1010E+04
      3.135  0.0000E+00  0.1010E+04
      3.157  0.0000E+00  0.1010E+04
      3.180  0.0000E+00  0.1010E+04
