       N       E                     dE             d eps       ncg     rms          rms(c)
DAV:   1    -0.265042189410E+03   -0.26504E+03   -0.12122E+05  4040   0.652E+02
DAV:   2    -0.867653310926E+03   -0.60261E+03   -0.55098E+03  4644   0.667E+01
DAV:   3    -0.912245226900E+03   -0.44592E+02   -0.40847E+02  5272   0.143E+01
DAV:   4    -0.913814985147E+03   -0.15698E+01   -0.15456E+01  4816   0.292E+00
DAV:   5    -0.913853581239E+03   -0.38596E-01   -0.38517E-01  4936   0.479E-01    0.115E+01
DAV:   6    -0.910637463303E+03    0.32161E+01   -0.16249E+01  4888   0.596E+00    0.990E+00
DAV:   7    -0.897929094629E+03    0.12708E+02   -0.15507E+01  4952   0.565E+00    0.578E+00
DAV:   8    -0.894298540577E+03    0.36306E+01   -0.84385E+00  4752   0.303E+00    0.323E+00
DAV:   9    -0.893546534726E+03    0.75201E+00   -0.47049E+00  4544   0.179E+00    0.173E+00
DAV:  10    -0.893625718249E+03   -0.79184E-01   -0.12595E+00  4832   0.116E+00    0.157E+00
DAV:  11    -0.893355781834E+03    0.26994E+00   -0.51435E-01  4736   0.720E-01    0.712E-01
DAV:  12    -0.893353284709E+03    0.24971E-02   -0.14519E-01  4664   0.336E-01    0.463E-01
DAV:  13    -0.893348759208E+03    0.45255E-02   -0.55402E-02  4704   0.256E-01    0.345E-01
DAV:  14    -0.893339087585E+03    0.96716E-02   -0.18199E-02  4680   0.156E-01    0.187E-01
DAV:  15    -0.893339199635E+03   -0.11205E-03   -0.64326E-03  4712   0.931E-02    0.138E-01
DAV:  16    -0.893337256617E+03    0.19430E-02   -0.37852E-03  4816   0.715E-02    0.747E-02
DAV:  17    -0.893336935235E+03    0.32138E-03   -0.13555E-03  4504   0.343E-02    0.333E-02
DAV:  18    -0.893336929303E+03    0.59327E-05   -0.39383E-04  4600   0.202E-02    0.248E-02
DAV:  19    -0.893336891850E+03    0.37453E-04   -0.14988E-04  4704   0.140E-02    0.169E-02
DAV:  20    -0.893336858421E+03    0.33428E-04   -0.53431E-05  4608   0.793E-03    0.779E-03
DAV:  21    -0.893336857114E+03    0.13067E-05   -0.18545E-05  3056   0.467E-03
   1 F= -.89333686E+03 E0= -.89327828E+03  d E =-.117164E+00
