Li                                      
           1
   -10.853500   18.798813    0.000000
   -18.606000  -10.742179    0.000000
     0.000000    0.000000   22.765000
   Li
   504
Direct configuration=     1
   0.99461737  0.01461353  0.00827952
   0.93821214  0.02871927  0.69417971
   0.86991794  0.07171133  0.32319400
   0.79929724  0.10779728  0.00553975
   0.71773085  0.16837582  0.65913865
   0.64362569  0.22719903  0.32320569
   0.59527391  0.27003587  0.98811972
   0.48289770  0.25692013  0.66240045
   0.40372539  0.32797747  0.35272453
   0.38992377  0.38351695  0.00812805
   0.28204468  0.42915714  0.67300912
   0.23078650  0.46658093  0.33703830
   0.06100511  0.03520422  0.66540671
   0.98960740  0.06868340  0.34244095
   0.90283879  0.13603609  0.02668535
   0.85874330  0.15737935  0.69482615
   0.77729785  0.20333950  0.32452003
   0.75809119  0.23168450  0.99535566
   0.63985690  0.29892203  0.65286359
   0.55268298  0.31869089  0.33197797
   0.50629423  0.37682507  0.00610870
   0.42471845  0.42869538  0.64982194
   0.35786241  0.46888025  0.33429083
   0.29029099  0.46741262  0.97560288
   0.15977242  0.07705435  0.33193644
   0.05573648  0.12744252  0.01143344
   0.00991939  0.15772097  0.69012737
   0.93496128  0.20647555  0.34134841
   0.88792085  0.25463070  0.00821219
   0.79104270  0.29590226  0.66655325
   0.75324226  0.32819318  0.32188854
   0.65324002  0.39554613  0.01163205
   0.56706073  0.40455763  0.64730586
   0.50206200  0.45234333  0.33696741
   0.44092560  0.51554275  0.00991904
   0.37360523  0.52740542  0.65359415
   0.22603483  0.11064528  0.00572525
   0.14725502  0.16661513  0.64743184
   0.05352914  0.21314637  0.33439160
   0.01992479  0.24645239  0.00474835
   0.94099337  0.29575670  0.67443127
   0.85411601  0.35709929  0.34215922
   0.79939171  0.35285034  0.01793134
   0.72054387  0.41639106  0.67380049
   0.64397429  0.42009539  0.34345014
   0.59176564  0.49174996  0.01858883
   0.50170660  0.52535724  0.65905257
   0.41994216  0.57804444  0.34270774
   0.28814263  0.17800633  0.67355010
   0.19836677  0.23013192  0.32240535
   0.14921365  0.24868187  0.02235609
   0.07578225  0.28274208  0.66223176
   0.99422171  0.34854617  0.33693494
   0.93920871  0.36536122  0.97248116
   0.86835718  0.43226141  0.68085163
   0.79151257  0.46413870  0.34688940
   0.69413730  0.49023839  0.00953411
   0.65197946  0.53687697  0.64664395
   0.58854334  0.56018030  0.35398503
   0.51891875  0.65653491  0.00664761
   0.33519874  0.20981156  0.35695729
   0.29565935  0.22891169  0.01393840
   0.22769189  0.30343897  0.67880021
   0.14296131  0.32839313  0.34594877
   0.08045131  0.37615560  0.03040097
   0.99735408  0.40952244  0.66548609
   0.92039364  0.48598032  0.36295612
   0.86342654  0.50610124  0.98040296
   0.80526027  0.54215482  0.66931239
   0.73158826  0.58442604  0.33180392
   0.66201306  0.62332180  0.00049528
   0.58887934  0.65362526  0.66656154
   0.46005719  0.24052160  0.98365017
   0.36517605  0.28517348  0.65582201
   0.29087936  0.35095014  0.33879387
   0.23651021  0.35681032  0.99116769
   0.12728964  0.38249314  0.67069414
   0.05369604  0.47915730  0.32867468
   0.01510012  0.50994752  0.99326189
   0.93156312  0.54271089  0.66527417
   0.86693571  0.59884098  0.33947533
   0.78450650  0.60911008  0.02725170
   0.71772312  0.66461892  0.68249803
   0.65468027  0.69397241  0.34724893
   0.15781795  0.48535274  0.98591384
   0.07814817  0.54722836  0.62932483
   0.99415457  0.60142038  0.34693178
   0.93494695  0.61787102  0.00674365
   0.86823534  0.67836601  0.65557367
   0.77516114  0.70600147  0.33186042
   0.71928039  0.75423609  0.99380443
   0.21529171  0.51779926  0.64660604
   0.15827074  0.60877170  0.33721974
   0.06808198  0.61963421  0.99402323
   0.97150741  0.67389634  0.65818619
   0.92806652  0.71714323  0.31748346
   0.84679723  0.77761129  0.98207875
   0.79950566  0.80803302  0.69039118
   0.28729239  0.58866673  0.34225691
   0.23105522  0.62142093  0.99674233
   0.14298778  0.69046496  0.65061406
   0.06248400  0.71237831  0.31792381
   0.99347438  0.74266553  0.98153990
   0.91463293  0.81053762  0.67456106
   0.84595757  0.84394373  0.32829330
   0.34733877  0.61116944  0.00828462
   0.29255753  0.64676615  0.67753886
   0.21563612  0.71316021  0.32052779
   0.09936471  0.75703920  0.99014739
   0.07831694  0.81799313  0.66064032
   0.97238866  0.84469889  0.31580639
   0.91374710  0.88769017  0.00838280
   0.45516957  0.64887174  0.64994328
   0.34073606  0.72244813  0.34285343
   0.29373156  0.73876099  0.99490737
   0.21258195  0.78703878  0.66002108
   0.13267655  0.83348770  0.31562376
   0.05952911  0.90129556  0.99182854
   0.99878361  0.91461786  0.67236206
   0.91074338  0.97426769  0.34263601
   0.86157275  0.99193817  0.00986526
   0.78957662  0.06899595  0.69386414
   0.70542438  0.08906795  0.33356409
   0.64034708  0.14308789  0.00542744
   0.57719753  0.15321566  0.64490597
   0.48438892  0.20171761  0.32394510
   0.06778668  0.96206073  0.32521509
   0.13520329  0.00800662  0.98890314
   0.20476085  0.02675386  0.67532288
   0.29509204  0.06306237  0.30850422
   0.37516337  0.13039362  0.98520362
   0.43884696  0.11088425  0.66233276
   0.84849944  0.93898535  0.65186385
   0.75239739  0.94894985  0.33029580
   0.71520338  0.01311912  0.02749029
   0.65113378  0.06041191  0.66804562
   0.55824437  0.07883875  0.33763466
   0.52846229  0.14228067  0.96591593
   0.15456818  0.89453152  0.66743077
   0.19772684  0.95773416  0.33673255
   0.28191883  0.99063319  0.00953440
   0.35368739  0.00975087  0.65146812
   0.42291114  0.09485180  0.34788437
   0.76922092  0.89560826  0.99186993
   0.70332024  0.92866928  0.67840176
   0.60230445  0.93204001  0.32783190
   0.57759373  0.98716666  0.98905187
   0.49969756  0.00928537  0.64314497
   0.20445820  0.88067882  0.97578115
   0.27252152  0.93132762  0.68055676
   0.35181686  0.93523436  0.33527162
   0.44084108  0.00373147  0.00651761
   0.70808304  0.83727589  0.31391924
   0.64840597  0.89214771  0.01852947
   0.57432882  0.89880907  0.64827264
   0.48401663  0.97278181  0.33375856
   0.26827897  0.83152044  0.30706170
   0.35912914  0.87659791  0.98934287
   0.42325691  0.88661585  0.67502490
   0.65876498  0.77755886  0.65036850
   0.56350190  0.82672714  0.34355152
   0.49232800  0.85393948  0.99751920
   0.34778547  0.78396305  0.65750969
   0.45201853  0.79320987  0.32355754
   0.58224678  0.74526498  0.99491818
   0.49395327  0.78272613  0.68555397
   0.44617769  0.73220851  0.99605677
   0.50788993  0.67071987  0.33831892
   0.99667897  0.00099787  0.81923670
   0.96141764  0.04260243  0.44485387
   0.84468786  0.06991972  0.12558974
   0.77885433  0.11521046  0.80490948
   0.69896852  0.18162923  0.42709269
   0.65062971  0.19212205  0.11561055
   0.58641129  0.23959024  0.76638978
   0.48464034  0.28242187  0.42753143
   0.43220341  0.33142295  0.11322179
   0.34904711  0.36024429  0.73918244
   0.27773599  0.38690201  0.45152042
   0.21000394  0.46009816  0.10549126
   0.08126207  0.03508025  0.43280759
   0.96944548  0.09440512  0.10177593
   0.92971005  0.12066706  0.79307582
   0.85459678  0.16121249  0.42900685
   0.78898615  0.20417672  0.11203648
   0.73474859  0.23195408  0.79204709
   0.63224639  0.33111179  0.42423000
   0.56943080  0.32549921  0.10506122
   0.51075996  0.36762669  0.76671376
   0.44241310  0.39841206  0.44943501
   0.33731369  0.44814527  0.12025216
   0.31361733  0.49468844  0.78011783
   0.11297971  0.08604019  0.09789432
   0.06350610  0.14323434  0.77349150
   0.99176864  0.18310744  0.45022682
   0.91573484  0.21850692  0.13820101
   0.85257495  0.22050980  0.78566650
   0.79513279  0.29809733  0.44629925
   0.70623491  0.32992423  0.10180501
   0.67060349  0.36549351  0.77166808
   0.57106911  0.43225260  0.44712914
   0.49881625  0.45987073  0.10945784
   0.44232831  0.51951024  0.78281086
   0.35968050  0.53930046  0.44670811
   0.22309113  0.13735797  0.77391492
   0.13444238  0.19420547  0.44559274
   0.06489466  0.20522017  0.11860848
   0.01840828  0.25596521  0.80567489
   0.88981929  0.29131964  0.44800376
   0.85565376  0.33356895  0.10028267
   0.78701847  0.35904731  0.78211309
   0.75013865  0.39710741  0.42258883
   0.63572506  0.46787131  0.11833456
   0.58266277  0.47607414  0.73560232
   0.49962987  0.51187579  0.46582199
   0.44149103  0.58928222  0.12059966
   0.27131070  0.16964543  0.43926061
   0.21479999  0.20741723  0.11193125
   0.14176743  0.26516957  0.77889586
   0.04850370  0.30754329  0.43028571
   0.98558068  0.34583949  0.12042177
   0.91350407  0.37378033  0.77757480
   0.87393300  0.43931419  0.46782032
   0.79313687  0.48985363  0.10699541
   0.71335428  0.51289016  0.77000218
   0.65731169  0.54955116  0.44551828
   0.57044663  0.58151332  0.11434746
   0.50813881  0.61518209  0.77196231
   0.35771697  0.21389283  0.11839838
   0.31477210  0.24985693  0.79411034
   0.21795471  0.30093218  0.43295362
   0.13335588  0.33538914  0.11532393
   0.06489211  0.35249495  0.78489664
   0.00004486  0.41461029  0.44992042
   0.93302903  0.46496084  0.10688730
   0.83216758  0.50930882  0.78055458
   0.78638502  0.55615550  0.44441725
   0.70524479  0.58372717  0.12803038
   0.63689994  0.61615282  0.78077135
   0.56400965  0.66770021  0.44753973
   0.45245169  0.21103030  0.79164332
   0.35986376  0.27001567  0.47773075
   0.27957701  0.31619750  0.11878910
   0.21235985  0.39544868  0.79465968
   0.10977312  0.40724275  0.41127224
   0.06254109  0.45594745  0.12215885
   0.99220176  0.50803369  0.76884651
   0.92657576  0.54953819  0.45712121
   0.87423410  0.59265117  0.12979970
   0.78622601  0.62016277  0.78817507
   0.70301391  0.67843821  0.45486353
   0.62940350  0.71096639  0.12485354
   0.11956508  0.46919452  0.76830175
   0.07912638  0.55973318  0.44806030
   0.01053821  0.59237974  0.11840378
   0.90460781  0.60321043  0.77489472
   0.86478064  0.70319033  0.44471239
   0.77716016  0.69157146  0.11194274
   0.70469752  0.75598759  0.79306917
   0.21599482  0.52467525  0.43649854
   0.11154789  0.56651181  0.09278241
   0.04693387  0.64311351  0.75951609
   0.98432418  0.68027611  0.43596111
   0.91245218  0.70452806  0.08449983
   0.84017010  0.73726792  0.80442314
   0.79816767  0.80583110  0.44428170
   0.31403370  0.58880355  0.12422578
   0.18598187  0.59199781  0.76064831
   0.14388110  0.69606447  0.44208583
   0.06258181  0.68893891  0.10595298
   0.97479193  0.75705356  0.76989265
   0.92526590  0.81653264  0.45317219
   0.85033642  0.85758450  0.08803249
   0.37040792  0.61530532  0.78710403
   0.27507853  0.65707070  0.44604071
   0.19953032  0.69326224  0.10470684
   0.14758828  0.75175074  0.77187273
   0.06009834  0.80716993  0.44089331
   0.00130487  0.83043613  0.11405050
   0.92094867  0.89733722  0.76085940
   0.41085133  0.67123210  0.46352717
   0.33584443  0.70731517  0.12125372
   0.26344281  0.75584978  0.79089914
   0.20233056  0.81681633  0.42469603
   0.14634352  0.86003252  0.11367545
   0.04739263  0.86888072  0.76441652
   0.99625894  0.90109936  0.42029743
   0.93565727  0.95011385  0.09015998
   0.88243034  0.00323765  0.80035522
   0.81931203  0.03248108  0.45300728
   0.69929748  0.11723952  0.13067140
   0.67957694  0.11929400  0.76494935
   0.58327368  0.17067394  0.41143067
   0.50400134  0.20660621  0.09075825
   0.04164963  0.96519127  0.10169848
   0.14044497  0.01030504  0.78368270
   0.22483936  0.06260001  0.43069335
   0.28617516  0.10208956  0.11876986
   0.37628514  0.10052274  0.73459934
   0.42368955  0.16560046  0.45572592
   0.84711132  0.91105990  0.45639177
   0.76735544  0.95729042  0.11980151
   0.73434629  0.00405989  0.79122415
   0.65468998  0.04213943  0.42139912
   0.55740239  0.09843547  0.09899093
   0.52104655  0.11063913  0.76713391
   0.13005968  0.93771604  0.43351736
   0.19751314  0.96968863  0.09383636
   0.26897808  0.99767431  0.77049382
   0.36901805  0.01873406  0.43969338
   0.42007778  0.11436446  0.11488158
   0.76971090  0.88915635  0.79080229
   0.69116629  0.91773202  0.45890790
   0.62253190  0.97411604  0.13147743
   0.57299492  0.99979681  0.76943257
   0.51730833  0.03830252  0.41721855
   0.19410597  0.91691457  0.77677644
   0.30216847  0.93120542  0.42045815
   0.34178256  0.97254714  0.11588475
   0.42680696  0.00062153  0.76513728
   0.72089591  0.82147404  0.11791860
   0.65777999  0.86583538  0.76460691
   0.54797104  0.89949117  0.46934744
   0.49020432  0.95123369  0.11412450
   0.25758175  0.84281426  0.10687886
   0.37022546  0.87820671  0.79123059
   0.43207761  0.89176046  0.43979509
   0.65390700  0.79403976  0.46343057
   0.56621996  0.85329932  0.10271963
   0.52699221  0.89285353  0.77289062
   0.34402394  0.78118056  0.42544435
   0.42050199  0.84306476  0.11974228
   0.57311126  0.75344353  0.77136420
   0.50611122  0.77377584  0.45337629
   0.41562030  0.74901860  0.76910289
   0.48119669  0.70352308  0.15019955
   0.96445217  0.01683250  0.21282068
   0.93343057  0.06047065  0.92175785
   0.89477261  0.08565990  0.54888276
   0.78880801  0.12450855  0.25046914
   0.74450481  0.16175189  0.89229308
   0.61164916  0.20568098  0.53035259
   0.56868581  0.25797967  0.18885691
   0.53427538  0.28216798  0.89359748
   0.42262212  0.34487624  0.53501597
   0.38708423  0.37031196  0.22673882
   0.28558688  0.41474434  0.88717047
   0.21405573  0.44296162  0.54706543
   0.08486409  0.04354250  0.90708908
   0.00539426  0.12192444  0.54299296
   0.92432269  0.13408953  0.25514511
   0.86213253  0.15763205  0.91606954
   0.77967289  0.20050897  0.54878218
   0.70789859  0.23430092  0.22364447
   0.68575742  0.29176444  0.88574598
   0.51906323  0.33248459  0.56501186
   0.47915438  0.36043907  0.23300450
   0.42308138  0.42244090  0.86696738
   0.34849824  0.46858051  0.54113778
   0.29858910  0.50005542  0.23349368
   0.13692871  0.08247437  0.53560061
   0.04810870  0.13195146  0.23682693
   0.99533119  0.16873250  0.90881380
   0.91000096  0.22104812  0.56774155
   0.86461321  0.26145549  0.22182644
   0.82500007  0.30317070  0.89699566
   0.70588950  0.32629236  0.56301581
   0.62255003  0.37153441  0.22247637
   0.60120978  0.42564694  0.89836166
   0.49196012  0.45193176  0.55763495
   0.40950306  0.47379656  0.21126367
   0.36436554  0.53491587  0.89429243
   0.18428476  0.13669999  0.18879188
   0.14464234  0.16975839  0.90701976
   0.05985293  0.22841668  0.55347804
   0.97733421  0.29209141  0.22276692
   0.94884869  0.31706509  0.89620575
   0.83915769  0.35201383  0.57946786
   0.80647820  0.37316698  0.20346484
   0.72249278  0.42538483  0.89124370
   0.65648240  0.44387472  0.53092395
   0.57879794  0.46993653  0.22556259
   0.51852860  0.52637250  0.87830466
   0.41866437  0.56772321  0.55486549
   0.30464421  0.15660928  0.88517223
   0.22022247  0.20643055  0.55572037
   0.12751477  0.25310092  0.21385930
   0.10656553  0.31778057  0.90727033
   0.00154644  0.34752345  0.53967671
   0.93533313  0.39274647  0.23049957
   0.85081152  0.43730358  0.90068032
   0.76318102  0.49497271  0.58025422
   0.70637674  0.47869679  0.25751727
   0.63760352  0.54944854  0.87825587
   0.58359622  0.57039496  0.55259783
   0.50394670  0.56012056  0.23943970
   0.35875034  0.17847572  0.56490373
   0.27754576  0.24563460  0.24721053
   0.21752581  0.28102007  0.90258863
   0.12963788  0.32942162  0.52976277
   0.07853772  0.39012540  0.22665310
   0.01722414  0.42664195  0.88369737
   0.90007888  0.47510747  0.56925546
   0.84271720  0.48511758  0.24066871
   0.75551751  0.56407003  0.88408362
   0.71128284  0.58423358  0.56580754
   0.63648446  0.61856262  0.22773850
   0.60972466  0.67130558  0.88956416
   0.43950596  0.24554379  0.23168265
   0.38315017  0.29122056  0.89249264
   0.29135858  0.33095852  0.57278852
   0.22383995  0.37273099  0.22185117
   0.17194395  0.41159879  0.90493813
   0.06569671  0.44723171  0.54354634
   0.98407951  0.52398036  0.24300251
   0.91936728  0.54276180  0.89292950
   0.84202011  0.61543424  0.55440005
   0.78228221  0.60032835  0.20500422
   0.71301494  0.67720676  0.89278246
   0.66825771  0.70360541  0.56364426
   0.15469657  0.52545497  0.19507994
   0.07348000  0.53565167  0.86962610
   0.00333441  0.57531430  0.54055546
   0.91604561  0.62187966  0.23246324
   0.85235018  0.65751838  0.92356991
   0.77243888  0.73765866  0.57028595
   0.73359947  0.72022784  0.20530542
   0.20179039  0.53258687  0.90128656
   0.16194969  0.60370102  0.56107608
   0.05240239  0.62732037  0.22434562
   0.99685146  0.64480970  0.88031470
   0.93376232  0.69506434  0.55129671
   0.86745939  0.75422827  0.19655548
   0.76911490  0.80285978  0.87697403
   0.28357749  0.59103712  0.55382047
   0.21683980  0.64964819  0.21255530
   0.13621512  0.65104657  0.87243413
   0.05625284  0.70753227  0.55682242
   0.00282204  0.74926483  0.19092050
   0.94170062  0.80129934  0.87404386
   0.87081986  0.84934591  0.56557112
   0.36920665  0.63229305  0.24028351
   0.30055844  0.63917278  0.86581862
   0.19415055  0.69819887  0.55115251
   0.14128185  0.76782294  0.22103490
   0.08288607  0.79080617  0.87118873
   0.00732019  0.85066395  0.56727015
   0.92421190  0.87599836  0.20217683
   0.44465672  0.63198244  0.89126125
   0.36420877  0.70044833  0.57625432
   0.26942667  0.75796734  0.20509540
   0.22059600  0.76862094  0.87305624
   0.14224966  0.84434478  0.54266860
   0.09010255  0.89508085  0.22408300
   0.97301933  0.90755647  0.88334582
   0.94632063  0.96994405  0.55411857
   0.83018172  0.00987539  0.22199515
   0.78854599  0.04197599  0.87458598
   0.74710881  0.07059119  0.55769866
   0.63216324  0.12791027  0.24023021
   0.59554875  0.18171978  0.88100755
   0.49282664  0.19577248  0.56760071
   0.07771097  0.97135895  0.57470888
   0.12172693  0.00955456  0.21880394
   0.22438690  0.02854579  0.86814299
   0.27431198  0.08574519  0.55001083
   0.36261195  0.15402310  0.24462938
   0.44855776  0.15265463  0.85772454
   0.83695484  0.91618394  0.88804839
   0.79614438  0.97279669  0.56057431
   0.70474412  0.99998135  0.22141485
   0.63252911  0.05060086  0.90910638
   0.57537563  0.06436105  0.53721100
   0.51567111  0.14692821  0.21333467
   0.11670736  0.89825856  0.88651696
   0.21450014  0.95849010  0.55166282
   0.28284865  0.00637243  0.21838265
   0.35086147  0.03098841  0.89279063
   0.42308009  0.05051428  0.54885792
   0.81169520  0.88310410  0.21101725
   0.69175475  0.93484555  0.89899444
   0.62711258  0.97882355  0.54969149
   0.57090845  0.00129710  0.22680766
   0.51738044  0.04303918  0.89209971
   0.23005842  0.87201658  0.22790949
   0.27650329  0.88621156  0.88009247
   0.35708670  0.95415249  0.52993472
   0.43301772  0.02452736  0.22026667
   0.72530130  0.85742224  0.58558395
   0.67170117  0.88771599  0.21296315
   0.55242425  0.87014953  0.89062515
   0.47944791  0.92068449  0.55986622
   0.27443013  0.83466194  0.55761817
   0.38779079  0.87084964  0.23331549
   0.43641716  0.91425293  0.88401509
   0.62794283  0.79510090  0.87956050
   0.59242982  0.83182044  0.57987851
   0.52428489  0.87782276  0.24455335
   0.34093602  0.77839444  0.88185562
   0.42574840  0.81181444  0.54717018
   0.58814231  0.73867500  0.22606449
   0.50295829  0.77528952  0.88295387
   0.44224492  0.73530529  0.22711093
   0.52403593  0.67419593  0.57190508
