 432 432   0   0
  0.1915683E+02  0.2022720E-08  0.2022720E-08  0.2022720E-08  0.5000000E-15
  1.000000000000000E-004
  CAR 
 Li                                      
      3.85449999     -3.36653626  301      0.54455167      1.00000000
     -3.367  0.0000E+00  0.0000E+00
     -3.342  0.0000E+00  0.0000E+00
     -3.318  0.0000E+00  0.0000E+00
     -3.294  0.0000E+00  0.0000E+00
     -3.270  0.0000E+00  0.0000E+00
     -3.246  0.0000E+00  0.0000E+00
     -3.222  0.0000E+00  0.0000E+00
     -3.198  0.1974E-11  0.4752E-13
     -3.174  0.6289E-08  0.1514E-09
     -3.150  0.5684E-05  0.1370E-06
     -3.126  0.1471E-02  0.3555E-04
     -3.102  0.1107E+00  0.2700E-02
     -3.078  0.2469E+01  0.6213E-01
     -3.054  0.1674E+02  0.4650E+00
     -3.030  0.3526E+02  0.1314E+01
     -3.005  0.2336E+02  0.1876E+01
     -2.981  0.4936E+01  0.1995E+01
     -2.957  0.2977E+01  0.2067E+01
     -2.933  0.2392E+02  0.2642E+01
     -2.909  0.7683E+02  0.4492E+01
     -2.885  0.9306E+02  0.6732E+01
     -2.861  0.4400E+02  0.7791E+01
     -2.837  0.8638E+01  0.7999E+01
     -2.813  0.8707E+01  0.8208E+01
     -2.789  0.4529E+02  0.9298E+01
     -2.765  0.9318E+02  0.1154E+02
     -2.741  0.7488E+02  0.1334E+02
     -2.717  0.2426E+02  0.1393E+02
     -2.693  0.6620E+01  0.1409E+02
     -2.669  0.2792E+02  0.1476E+02
     -2.644  0.8634E+02  0.1684E+02
     -2.620  0.1193E+03  0.1971E+02
     -2.596  0.7409E+02  0.2149E+02
     -2.572  0.2070E+02  0.2199E+02
     -2.548  0.1944E+02  0.2246E+02
     -2.524  0.7596E+02  0.2429E+02
     -2.500  0.1482E+03  0.2785E+02
     -2.476  0.1564E+03  0.3162E+02
     -2.452  0.8106E+02  0.3357E+02
     -2.428  0.1747E+02  0.3399E+02
     -2.404  0.1251E+02  0.3429E+02
     -2.380  0.5540E+02  0.3562E+02
     -2.356  0.9865E+02  0.3800E+02
     -2.332  0.6566E+02  0.3958E+02
     -2.307  0.1662E+02  0.3998E+02
     -2.283  0.1083E+02  0.4024E+02
     -2.259  0.5797E+02  0.4164E+02
     -2.235  0.1455E+03  0.4514E+02
     -2.211  0.1679E+03  0.4918E+02
     -2.187  0.9305E+02  0.5142E+02
     -2.163  0.2940E+02  0.5213E+02
     -2.139  0.4861E+02  0.5330E+02
     -2.115  0.1343E+03  0.5653E+02
     -2.091  0.2117E+03  0.6163E+02
     -2.067  0.2061E+03  0.6659E+02
     -2.043  0.1116E+03  0.6927E+02
     -2.019  0.2950E+02  0.6998E+02
     -1.995  0.2073E+02  0.7048E+02
     -1.970  0.6325E+02  0.7201E+02
     -1.946  0.9122E+02  0.7420E+02
     -1.922  0.5766E+02  0.7559E+02
     -1.898  0.1761E+02  0.7601E+02
     -1.874  0.2538E+02  0.7662E+02
     -1.850  0.1007E+03  0.7905E+02
     -1.826  0.1886E+03  0.8359E+02
     -1.802  0.1740E+03  0.8778E+02
     -1.778  0.7735E+02  0.8964E+02
     -1.754  0.2329E+02  0.9020E+02
     -1.730  0.5718E+02  0.9158E+02
     -1.706  0.1561E+03  0.9533E+02
     -1.682  0.2272E+03  0.1008E+03
     -1.658  0.1911E+03  0.1054E+03
     -1.633  0.8833E+02  0.1075E+03
     -1.609  0.2441E+02  0.1081E+03
     -1.585  0.4463E+02  0.1092E+03
     -1.561  0.1262E+03  0.1122E+03
     -1.537  0.1706E+03  0.1163E+03
     -1.513  0.1138E+03  0.1191E+03
     -1.489  0.4306E+02  0.1201E+03
     -1.465  0.6041E+02  0.1216E+03
     -1.441  0.1585E+03  0.1254E+03
     -1.417  0.2287E+03  0.1309E+03
     -1.393  0.1890E+03  0.1354E+03
     -1.369  0.8797E+02  0.1375E+03
     -1.345  0.3933E+02  0.1385E+03
     -1.321  0.9330E+02  0.1407E+03
     -1.297  0.1886E+03  0.1453E+03
     -1.272  0.2233E+03  0.1507E+03
     -1.248  0.1586E+03  0.1545E+03
     -1.224  0.5782E+02  0.1559E+03
     -1.200  0.3023E+02  0.1566E+03
     -1.176  0.8550E+02  0.1587E+03
     -1.152  0.1518E+03  0.1623E+03
     -1.128  0.1479E+03  0.1659E+03
     -1.104  0.7312E+02  0.1676E+03
     -1.080  0.2146E+02  0.1681E+03
     -1.056  0.4402E+02  0.1692E+03
     -1.032  0.1106E+03  0.1719E+03
     -1.008  0.1452E+03  0.1754E+03
     -0.984  0.1242E+03  0.1783E+03
     -0.960  0.7876E+02  0.1802E+03
     -0.935  0.1115E+03  0.1829E+03
     -0.911  0.2229E+03  0.1883E+03
     -0.887  0.2961E+03  0.1954E+03
     -0.863  0.2915E+03  0.2024E+03
     -0.839  0.2103E+03  0.2075E+03
     -0.815  0.1026E+03  0.2100E+03
     -0.791  0.9668E+02  0.2123E+03
     -0.767  0.1831E+03  0.2167E+03
     -0.743  0.2187E+03  0.2220E+03
     -0.719  0.1630E+03  0.2259E+03
     -0.695  0.7276E+02  0.2276E+03
     -0.671  0.3044E+02  0.2284E+03
     -0.647  0.7895E+02  0.2303E+03
     -0.623  0.1683E+03  0.2343E+03
     -0.598  0.1837E+03  0.2387E+03
     -0.574  0.1086E+03  0.2414E+03
     -0.550  0.6555E+02  0.2429E+03
     -0.526  0.1307E+03  0.2461E+03
     -0.502  0.2256E+03  0.2515E+03
     -0.478  0.2627E+03  0.2578E+03
     -0.454  0.2161E+03  0.2630E+03
     -0.430  0.1308E+03  0.2662E+03
     -0.406  0.9998E+02  0.2686E+03
     -0.382  0.8937E+02  0.2707E+03
     -0.358  0.4450E+02  0.2718E+03
     -0.334  0.2278E+02  0.2724E+03
     -0.310  0.6692E+02  0.2740E+03
     -0.286  0.1572E+03  0.2778E+03
     -0.261  0.2275E+03  0.2832E+03
     -0.237  0.2462E+03  0.2892E+03
     -0.213  0.2049E+03  0.2941E+03
     -0.189  0.1476E+03  0.2976E+03
     -0.165  0.1546E+03  0.3014E+03
     -0.141  0.1867E+03  0.3059E+03
     -0.117  0.2118E+03  0.3110E+03
     -0.093  0.2315E+03  0.3165E+03
     -0.069  0.2362E+03  0.3222E+03
     -0.045  0.2138E+03  0.3274E+03
     -0.021  0.1528E+03  0.3310E+03
      0.003  0.1128E+03  0.3338E+03
      0.027  0.1205E+03  0.3367E+03
      0.051  0.1338E+03  0.3399E+03
      0.075  0.1418E+03  0.3433E+03
      0.100  0.1519E+03  0.3469E+03
      0.124  0.2025E+03  0.3518E+03
      0.148  0.2548E+03  0.3579E+03
      0.172  0.2691E+03  0.3644E+03
      0.196  0.2551E+03  0.3706E+03
      0.220  0.2189E+03  0.3758E+03
      0.244  0.1528E+03  0.3795E+03
      0.268  0.1328E+03  0.3827E+03
      0.292  0.1799E+03  0.3870E+03
      0.316  0.2085E+03  0.3921E+03
      0.340  0.2050E+03  0.3970E+03
      0.364  0.1705E+03  0.4011E+03
      0.388  0.1253E+03  0.4041E+03
      0.412  0.1181E+03  0.4070E+03
      0.437  0.1464E+03  0.4105E+03
      0.461  0.1792E+03  0.4148E+03
      0.485  0.2041E+03  0.4197E+03
      0.509  0.2099E+03  0.4248E+03
      0.533  0.2044E+03  0.4297E+03
      0.557  0.1951E+03  0.4344E+03
      0.581  0.1833E+03  0.4388E+03
      0.605  0.1871E+03  0.4433E+03
      0.629  0.2013E+03  0.4481E+03
      0.653  0.1897E+03  0.4527E+03
      0.677  0.1710E+03  0.4568E+03
      0.701  0.1663E+03  0.4608E+03
      0.725  0.1667E+03  0.4648E+03
      0.749  0.1676E+03  0.4689E+03
      0.774  0.1787E+03  0.4732E+03
      0.798  0.1878E+03  0.4777E+03
      0.822  0.1950E+03  0.4824E+03
      0.846  0.2057E+03  0.4873E+03
      0.870  0.2153E+03  0.4925E+03
      0.894  0.2262E+03  0.4980E+03
      0.918  0.2326E+03  0.5036E+03
      0.942  0.2349E+03  0.5092E+03
      0.966  0.2457E+03  0.5151E+03
      0.990  0.2555E+03  0.5213E+03
      1.014  0.2482E+03  0.5272E+03
      1.038  0.2398E+03  0.5330E+03
      1.062  0.2352E+03  0.5387E+03
      1.086  0.2329E+03  0.5443E+03
      1.111  0.2267E+03  0.5497E+03
      1.135  0.2159E+03  0.5549E+03
      1.159  0.2086E+03  0.5600E+03
      1.183  0.2059E+03  0.5649E+03
      1.207  0.2111E+03  0.5700E+03
      1.231  0.2211E+03  0.5753E+03
      1.255  0.2177E+03  0.5806E+03
      1.279  0.2095E+03  0.5856E+03
      1.303  0.2061E+03  0.5906E+03
      1.327  0.1962E+03  0.5953E+03
      1.351  0.1871E+03  0.5998E+03
      1.375  0.1853E+03  0.6043E+03
      1.399  0.1885E+03  0.6088E+03
      1.423  0.1897E+03  0.6134E+03
      1.447  0.1900E+03  0.6179E+03
      1.472  0.1917E+03  0.6225E+03
      1.496  0.1936E+03  0.6272E+03
      1.520  0.2011E+03  0.6320E+03
      1.544  0.1895E+03  0.6366E+03
      1.568  0.1656E+03  0.6406E+03
      1.592  0.1582E+03  0.6444E+03
      1.616  0.1557E+03  0.6481E+03
      1.640  0.1395E+03  0.6515E+03
      1.664  0.1214E+03  0.6544E+03
      1.688  0.1242E+03  0.6574E+03
      1.712  0.1333E+03  0.6606E+03
      1.736  0.1371E+03  0.6639E+03
      1.760  0.1415E+03  0.6673E+03
      1.784  0.1556E+03  0.6711E+03
      1.809  0.1723E+03  0.6752E+03
      1.833  0.1786E+03  0.6795E+03
      1.857  0.1719E+03  0.6837E+03
      1.881  0.1703E+03  0.6878E+03
      1.905  0.1676E+03  0.6918E+03
      1.929  0.1563E+03  0.6956E+03
      1.953  0.1494E+03  0.6991E+03
      1.977  0.1558E+03  0.7029E+03
      2.001  0.1685E+03  0.7070E+03
      2.025  0.1791E+03  0.7113E+03
      2.049  0.1820E+03  0.7156E+03
      2.073  0.1722E+03  0.7198E+03
      2.097  0.1675E+03  0.7238E+03
      2.121  0.1749E+03  0.7280E+03
      2.146  0.1813E+03  0.7324E+03
      2.170  0.1833E+03  0.7368E+03
      2.194  0.1847E+03  0.7412E+03
      2.218  0.1749E+03  0.7455E+03
      2.242  0.1566E+03  0.7492E+03
      2.266  0.1408E+03  0.7526E+03
      2.290  0.1315E+03  0.7558E+03
      2.314  0.1348E+03  0.7590E+03
      2.338  0.1387E+03  0.7624E+03
      2.362  0.1386E+03  0.7657E+03
      2.386  0.1378E+03  0.7690E+03
      2.410  0.1268E+03  0.7721E+03
      2.434  0.1154E+03  0.7749E+03
      2.458  0.1170E+03  0.7777E+03
      2.483  0.1153E+03  0.7804E+03
      2.507  0.1101E+03  0.7831E+03
      2.531  0.1146E+03  0.7859E+03
      2.555  0.1152E+03  0.7886E+03
      2.579  0.9731E+02  0.7910E+03
      2.603  0.8225E+02  0.7929E+03
      2.627  0.7073E+02  0.7946E+03
      2.651  0.4221E+02  0.7957E+03
      2.675  0.1381E+02  0.7960E+03
      2.699  0.1435E+02  0.7963E+03
      2.723  0.4564E+02  0.7974E+03
      2.747  0.7090E+02  0.7991E+03
      2.771  0.6386E+02  0.8007E+03
      2.795  0.4167E+02  0.8017E+03
      2.819  0.2401E+02  0.8023E+03
      2.844  0.3391E+02  0.8031E+03
      2.868  0.5546E+02  0.8044E+03
      2.892  0.6232E+02  0.8059E+03
      2.916  0.6845E+02  0.8076E+03
      2.940  0.8275E+02  0.8096E+03
      2.964  0.9549E+02  0.8119E+03
      2.988  0.1046E+03  0.8144E+03
      3.012  0.1159E+03  0.8172E+03
      3.036  0.1179E+03  0.8200E+03
      3.060  0.1148E+03  0.8228E+03
      3.084  0.1228E+03  0.8257E+03
      3.108  0.1268E+03  0.8288E+03
      3.132  0.1225E+03  0.8317E+03
      3.156  0.1217E+03  0.8346E+03
      3.181  0.1215E+03  0.8376E+03
      3.205  0.1131E+03  0.8403E+03
      3.229  0.1022E+03  0.8428E+03
      3.253  0.8485E+02  0.8448E+03
      3.277  0.8095E+02  0.8467E+03
      3.301  0.7397E+02  0.8485E+03
      3.325  0.6278E+02  0.8500E+03
      3.349  0.6318E+02  0.8516E+03
      3.373  0.6088E+02  0.8530E+03
      3.397  0.7071E+02  0.8547E+03
      3.421  0.8825E+02  0.8568E+03
      3.445  0.9724E+02  0.8592E+03
      3.469  0.9775E+02  0.8615E+03
      3.493  0.9105E+02  0.8637E+03
      3.518  0.6104E+02  0.8652E+03
      3.542  0.2591E+02  0.8658E+03
      3.566  0.6437E+01  0.8660E+03
      3.590  0.7321E+00  0.8660E+03
      3.614  0.3002E-01  0.8660E+03
      3.638  0.3889E-03  0.8660E+03
      3.662  0.1498E-05  0.8660E+03
      3.686  0.1666E-08  0.8660E+03
      3.710  0.5258E-12  0.8660E+03
      3.734  0.0000E+00  0.8660E+03
      3.758  0.0000E+00  0.8660E+03
      3.782  0.0000E+00  0.8660E+03
      3.806  0.0000E+00  0.8660E+03
      3.830  0.0000E+00  0.8660E+03
      3.854  0.0000E+00  0.8660E+03
