       N       E                     dE             d eps       ncg     rms          rms(c)
DAV:   1    -0.228052057164E+03   -0.22805E+03   -0.10644E+05  3464   0.661E+02
DAV:   2    -0.758968070571E+03   -0.53092E+03   -0.48541E+03  3980   0.687E+01
DAV:   3    -0.795991208923E+03   -0.37023E+02   -0.33782E+02  4384   0.144E+01
DAV:   4    -0.797198648256E+03   -0.12074E+01   -0.11910E+01  3968   0.285E+00
DAV:   5    -0.797226050006E+03   -0.27402E-01   -0.27364E-01  4128   0.454E-01    0.839E+00
DAV:   6    -0.792159965210E+03    0.50661E+01   -0.84757E+00  3944   0.406E+00    0.588E+00
DAV:   7    -0.789100116682E+03    0.30598E+01   -0.64063E+00  4040   0.369E+00    0.400E+00
DAV:   8    -0.787364852413E+03    0.17353E+01   -0.30893E+00  3968   0.208E+00    0.220E+00
DAV:   9    -0.787017203595E+03    0.34765E+00   -0.17970E+00  3776   0.111E+00    0.111E+00
DAV:  10    -0.787041091669E+03   -0.23888E-01   -0.34730E-01  4024   0.628E-01    0.869E-01
DAV:  11    -0.786969006553E+03    0.72085E-01   -0.13746E-01  3960   0.444E-01    0.470E-01
DAV:  12    -0.786960474511E+03    0.85320E-02   -0.34541E-02  3752   0.169E-01    0.202E-01
DAV:  13    -0.786960671212E+03   -0.19670E-03   -0.80391E-03  3984   0.104E-01    0.131E-01
DAV:  14    -0.786959470964E+03    0.12002E-02   -0.28670E-03  3944   0.731E-02    0.762E-02
DAV:  15    -0.786958975377E+03    0.49559E-03   -0.95261E-04  3928   0.372E-02    0.353E-02
DAV:  16    -0.786958896718E+03    0.78658E-04   -0.47676E-04  3696   0.187E-02    0.137E-02
DAV:  17    -0.786958892772E+03    0.39469E-05   -0.54077E-05  4112   0.906E-03
   1 F= -.78695889E+03 E0= -.78691491E+03  d E =-.879595E-01
