Li                                      
           1
    20.227200    0.000000    0.000000
     0.000000   20.227200    0.000000
     0.000000    0.000000   20.227200
   Li
   432
Direct configuration=     1
   0.01149462  0.99359926  0.99679442
   0.89456835  0.09403569  0.07479387
   0.82037554  0.18611262  0.15310333
   0.73888155  0.23337113  0.27197690
   0.66127628  0.33578200  0.34737399
   0.57794457  0.40807240  0.41670717
   0.48426539  0.49608956  0.49915221
   0.41922497  0.56739310  0.58424820
   0.32373093  0.67363647  0.66242829
   0.25561320  0.75047412  0.75750322
   0.17414013  0.84852496  0.84461676
   0.09044741  0.92598345  0.92209927
   0.08725936  0.93049128  0.06760105
   0.00130648  0.00157062  0.15655395
   0.90783366  0.10246285  0.23652094
   0.82229426  0.16380422  0.35006082
   0.72233145  0.24682807  0.43663577
   0.65856513  0.33247981  0.51780958
   0.57220601  0.42259057  0.59528289
   0.49389322  0.50095164  0.69298850
   0.40406987  0.58093716  0.75209465
   0.31981913  0.64363881  0.82932031
   0.24913833  0.73385181  0.92234194
   0.17298230  0.81880968  0.99428898
   0.15197372  0.83606951  0.16989210
   0.08694566  0.94128553  0.26561688
   0.98510028  0.02268918  0.35702541
   0.91872226  0.08922590  0.43975814
   0.81549247  0.16779931  0.50432359
   0.74026069  0.24755426  0.59513446
   0.66610267  0.35528345  0.68770115
   0.58795447  0.41662440  0.76052199
   0.49190928  0.51451956  0.85634031
   0.39420447  0.58826605  0.93090194
   0.31057251  0.66112052  0.02246989
   0.23036386  0.72595787  0.09027382
   0.22233520  0.75150452  0.24037581
   0.16292883  0.84127297  0.32604023
   0.08225275  0.93825238  0.41948654
   0.01410238  0.00433679  0.54418315
   0.91455853  0.08694932  0.59429897
   0.82643849  0.15972173  0.67211467
   0.74360520  0.25040024  0.75970120
   0.69033014  0.35979165  0.84738950
   0.58203330  0.42859218  0.92490682
   0.50142814  0.52159146  0.00798774
   0.41472689  0.59979344  0.09127607
   0.33324489  0.67505055  0.16831321
   0.32732376  0.68507169  0.29350766
   0.25987221  0.75050822  0.40651425
   0.20047283  0.83090870  0.46791923
   0.11735557  0.90545190  0.58629445
   0.02874623  0.99565672  0.66559223
   0.92975122  0.09097636  0.75321527
   0.84355237  0.14533697  0.82439682
   0.75741349  0.23801354  0.89995544
   0.70089766  0.34062493  0.96763888
   0.58965498  0.41879896  0.07361309
   0.48729419  0.47566635  0.16049943
   0.42360500  0.56196567  0.25350822
   0.40529385  0.58961218  0.39582185
   0.33455784  0.64978252  0.48834464
   0.26203555  0.74901496  0.56284741
   0.17610665  0.80720184  0.68401579
   0.11065934  0.91793946  0.74232751
   0.01640164  0.00393623  0.80851370
   0.92091628  0.07027482  0.90518552
   0.83424904  0.16615650  0.97898392
   0.73806522  0.25002534  0.07629084
   0.68841378  0.33032921  0.15421124
   0.59672876  0.41521126  0.24486455
   0.50588296  0.48594487  0.32836173
   0.09481861  0.07133657  0.91032587
   0.99483377  0.16736460  0.97785872
   0.93460365  0.26341632  0.09024301
   0.81442692  0.32423144  0.17701550
   0.75482088  0.38434505  0.27471006
   0.68330076  0.47661059  0.33241907
   0.58879768  0.56370580  0.39559510
   0.50235388  0.66462222  0.47196159
   0.43084968  0.75405188  0.55436972
   0.34635884  0.82771716  0.64556976
   0.26912153  0.91006735  0.76915179
   0.19868325  0.98813112  0.86389376
   0.18929779  0.00113797  0.00861802
   0.07831395  0.08239918  0.07057158
   0.00570333  0.15482942  0.15964665
   0.90911966  0.24047593  0.27879597
   0.82387043  0.29975031  0.36043344
   0.76292988  0.39730226  0.43886471
   0.65243002  0.48774972  0.50749153
   0.58761482  0.57009358  0.57316320
   0.48728778  0.67018717  0.65503036
   0.40513238  0.75403843  0.76088271
   0.33632316  0.78272345  0.86076895
   0.28289802  0.89489562  0.92986229
   0.26184192  0.88536011  0.07079178
   0.18441950  0.01000890  0.14798976
   0.08302789  0.08359097  0.24902708
   0.01862422  0.15163881  0.33768503
   0.90441263  0.23196743  0.43998545
   0.82699771  0.31719414  0.51333272
   0.73121957  0.40562839  0.58286488
   0.68344978  0.51469227  0.65564280
   0.58778825  0.59818681  0.74992241
   0.47599340  0.66357788  0.83088735
   0.41628051  0.72127009  0.91618616
   0.32536374  0.79851290  0.99677223
   0.31575606  0.81648413  0.17581143
   0.23528500  0.92202829  0.24576533
   0.18519556  0.02484019  0.33149365
   0.09618116  0.05980059  0.43944152
   0.03610727  0.12932388  0.52049902
   0.92572778  0.22317157  0.59471423
   0.83354093  0.33697053  0.67307324
   0.74567429  0.44306141  0.77879751
   0.66218741  0.49807089  0.84786908
   0.57355274  0.60277811  0.92161800
   0.49628159  0.67093663  0.00525765
   0.42445425  0.75181544  0.08009765
   0.42696756  0.73006124  0.23451992
   0.33568911  0.83103446  0.30772079
   0.26532420  0.94586505  0.39577708
   0.20192538  0.99646771  0.50217183
   0.11813785  0.05801167  0.61332966
   0.02915941  0.15179181  0.66807760
   0.93653418  0.23771929  0.73363723
   0.85056220  0.33195382  0.79334783
   0.78780004  0.41602853  0.90490336
   0.68610202  0.49272848  0.97993437
   0.61956418  0.55857169  0.07790834
   0.51651609  0.66156755  0.15201830
   0.51607356  0.65205761  0.31746881
   0.41517145  0.73756284  0.38783278
   0.34847871  0.81972433  0.48103019
   0.25373880  0.91898217  0.59436692
   0.20376070  0.98319037  0.67068762
   0.11005425  0.07530535  0.75938959
   0.02974487  0.15624586  0.83647587
   0.90702451  0.25345967  0.89602815
   0.82537542  0.32927416  0.02266343
   0.75352399  0.42942807  0.07001101
   0.70117102  0.50386549  0.16457162
   0.59717702  0.58250713  0.24577653
   0.17555211  0.16710062  0.83874427
   0.09782802  0.26996399  0.92763144
   0.99122521  0.33004387  0.97539609
   0.91624848  0.39539742  0.08436561
   0.83499007  0.48327623  0.20603116
   0.76723516  0.59339364  0.25945535
   0.69103254  0.66194562  0.32960520
   0.59080668  0.74173573  0.40250271
   0.49665912  0.84046201  0.46730746
   0.42769337  0.90942098  0.58724554
   0.34214966  0.00127418  0.68152526
   0.24675048  0.09558532  0.76270345
   0.27597826  0.08259666  0.93260895
   0.15270526  0.16300083  0.00027257
   0.05050484  0.22615289  0.07606378
   0.98376440  0.31644062  0.19054117
   0.89812389  0.38447372  0.26451642
   0.82758919  0.48624385  0.35077272
   0.75662692  0.57540774  0.42625188
   0.67802743  0.66459982  0.50050093
   0.57512901  0.75436727  0.57291464
   0.50650696  0.82819800  0.64930630
   0.42406041  0.89072031  0.75819847
   0.35111195  0.00091950  0.84258131
   0.34116166  0.99638841  0.99834592
   0.24885513  0.08819620  0.08052536
   0.13032260  0.14302956  0.16029307
   0.06263015  0.24624727  0.24797299
   0.98879595  0.32174732  0.33868770
   0.89331120  0.41731812  0.42122907
   0.83371347  0.50191566  0.52177045
   0.75189651  0.59499437  0.57951947
   0.67491566  0.66421829  0.64927108
   0.58210189  0.72610949  0.73745040
   0.50364011  0.83819563  0.83117325
   0.38753898  0.90283029  0.91604352
   0.40741568  0.89354385  0.09243133
   0.33059677  0.00678871  0.17592089
   0.25248268  0.11322988  0.23082909
   0.14165575  0.16974287  0.33050227
   0.05226016  0.25608596  0.41339903
   0.98808575  0.33519670  0.49842647
   0.89814688  0.40849149  0.58542093
   0.82397892  0.51217646  0.66684711
   0.75928749  0.59498264  0.74365355
   0.65707257  0.65672590  0.82112883
   0.59171228  0.74680994  0.92065409
   0.49347109  0.83388798  0.00077660
   0.51213529  0.82257081  0.19089773
   0.41572117  0.91644157  0.22702364
   0.33770937  0.99651658  0.29670894
   0.25043397  0.10488052  0.40830311
   0.15688597  0.17841371  0.50582725
   0.06978941  0.24781531  0.58495629
   0.00042783  0.35331839  0.66831616
   0.92203568  0.42053471  0.73700828
   0.86073242  0.52516842  0.81749053
   0.77419728  0.58577328  0.91221828
   0.68363171  0.65195874  0.00484576
   0.58021803  0.76039483  0.07935946
   0.62886238  0.74414246  0.24202243
   0.51852476  0.82519134  0.31811355
   0.40523807  0.92079267  0.40600373
   0.33048676  0.98726881  0.49419274
   0.26675149  0.09301883  0.57700801
   0.19271245  0.18931066  0.67133694
   0.07864750  0.25917022  0.75209373
   0.00067699  0.33902841  0.83405607
   0.91207669  0.42850270  0.91761631
   0.84255810  0.49848914  0.99445957
   0.76469497  0.57796188  0.06111434
   0.69008499  0.65308817  0.16308992
   0.26191787  0.25906893  0.75391973
   0.17123686  0.33285750  0.82553748
   0.07507760  0.41446644  0.90732535
   0.00198904  0.49890450  0.00862594
   0.89561865  0.56135729  0.11758813
   0.85819803  0.66807503  0.17249842
   0.76874454  0.76239992  0.27084045
   0.69048461  0.84737923  0.33711931
   0.58373755  0.92079507  0.39203442
   0.48515730  0.00456148  0.49101954
   0.43777364  0.08797289  0.58655170
   0.33134474  0.17291017  0.68233508
   0.33267839  0.17293184  0.84130985
   0.24906169  0.24860914  0.91740880
   0.15273988  0.32178285  0.00690639
   0.05617571  0.39860515  0.09446610
   0.99795956  0.47266382  0.19481673
   0.93220651  0.56456306  0.28226925
   0.86434854  0.66869090  0.32763922
   0.77422330  0.76323145  0.39666815
   0.66749706  0.81536981  0.49512845
   0.57915544  0.89729924  0.56811886
   0.49351509  0.97138394  0.67587126
   0.42928140  0.09166910  0.76575683
   0.43984061  0.10711252  0.91353312
   0.34498407  0.18181446  0.99791602
   0.21999152  0.24736881  0.08473812
   0.14380228  0.31068604  0.15356677
   0.08038175  0.39562501  0.25432101
   0.99593038  0.47617507  0.34293231
   0.93412935  0.60066609  0.43441977
   0.83976047  0.67801334  0.48777931
   0.75616672  0.73133111  0.56769604
   0.66357628  0.80176614  0.67334958
   0.57661313  0.88744982  0.74573693
   0.49023257  0.97443186  0.83995841
   0.50054277  0.98596044  0.00334896
   0.41993637  0.08341258  0.07798248
   0.32802702  0.17029878  0.15823511
   0.23003200  0.23377596  0.23300716
   0.14704353  0.31847135  0.33066827
   0.09442215  0.42581856  0.42069277
   0.99412274  0.50544372  0.49203029
   0.91854493  0.61410234  0.56929266
   0.83285556  0.68105074  0.66447060
   0.74209543  0.74304949  0.77606901
   0.66624515  0.82937047  0.83798857
   0.57740440  0.92274061  0.94876921
   0.58940837  0.89906848  0.06934381
   0.50595666  0.98858584  0.14203625
   0.42579831  0.08132423  0.22312461
   0.33544362  0.15965600  0.31713575
   0.23521918  0.23461060  0.40872724
   0.16027852  0.32826443  0.50698168
   0.07585998  0.42919686  0.56550680
   0.98597410  0.50650169  0.63487249
   0.91930421  0.60209075  0.72532287
   0.84734634  0.66464174  0.83617359
   0.76194169  0.72831372  0.92500135
   0.67438662  0.83124662  0.99995431
   0.68011341  0.84650663  0.15547433
   0.62348123  0.91360726  0.24194263
   0.50460208  0.00688201  0.31187825
   0.41758342  0.08147964  0.39094492
   0.34961656  0.15541161  0.49641065
   0.27841849  0.24877566  0.57036867
   0.17496859  0.34955199  0.64786244
   0.08720743  0.41484308  0.75008003
   0.98309257  0.51319366  0.82132247
   0.92453737  0.59105963  0.93953093
   0.85850411  0.68720178  0.02555970
   0.75892584  0.74853800  0.09319519
   0.32165874  0.34120659  0.66866612
   0.24506392  0.43830126  0.73323762
   0.16159488  0.48883756  0.84076998
   0.07813686  0.57924514  0.91260123
   0.01041053  0.66646913  0.03370086
   0.93390078  0.77069049  0.09555776
   0.84513723  0.85192338  0.18466835
   0.75095239  0.93880270  0.24133001
   0.66967661  0.01906839  0.33028105
   0.57050779  0.07071181  0.44409616
   0.51604918  0.15838494  0.50947749
   0.41879595  0.24548932  0.57984686
   0.41791441  0.25464253  0.75674293
   0.31952743  0.33962024  0.83840389
   0.22615965  0.42077294  0.91795772
   0.14567205  0.48144515  0.00319728
   0.07069212  0.56052755  0.08752993
   0.99553191  0.65489610  0.16851945
   0.93851548  0.76750618  0.24351066
   0.84889623  0.86486690  0.34204713
   0.74760064  0.91392769  0.41736301
   0.65358058  0.97599253  0.50573365
   0.58503767  0.07219237  0.59223095
   0.50380894  0.15052481  0.68860857
   0.52072362  0.18882473  0.85050376
   0.42544726  0.27319660  0.92095871
   0.31075557  0.33542202  0.00794892
   0.22735668  0.41235557  0.08005638
   0.12748635  0.49269870  0.17569017
   0.08946649  0.58348285  0.26787172
   0.99472474  0.68874714  0.32768183
   0.92590399  0.77598284  0.41079676
   0.82118425  0.84920404  0.51026263
   0.72027949  0.90244162  0.59347125
   0.65191117  0.96857026  0.67027513
   0.56728540  0.07508727  0.77576978
   0.57852127  0.06861169  0.91844830
   0.50671451  0.18718462  0.00313798
   0.41426257  0.25240923  0.08930968
   0.30612752  0.32840560  0.15776779
   0.23094611  0.41246616  0.23472836
   0.16005520  0.48451833  0.33823142
   0.07466006  0.60357523  0.40259363
   0.02026121  0.68696538  0.47323330
   0.91889942  0.76599220  0.59134930
   0.81449160  0.81483441  0.68242369
   0.75780665  0.91930288  0.75143808
   0.64648168  0.98012352  0.84790753
   0.64875607  0.01032032  0.02255303
   0.57353100  0.08828653  0.06490571
   0.51236401  0.18879310  0.16665575
   0.42284514  0.25644541  0.25524307
   0.33336846  0.33210697  0.31292377
   0.25006455  0.39279002  0.42016440
   0.17411563  0.52181821  0.47601003
   0.06942484  0.60693731  0.56255728
   0.00807865  0.68481960  0.65367758
   0.89624372  0.76647587  0.77105646
   0.83402980  0.84055457  0.85045376
   0.73525610  0.91654600  0.91950676
   0.76611846  0.91420185  0.06826185
   0.66587310  0.00423518  0.14719980
   0.58739669  0.08459166  0.22907312
   0.52595681  0.16305113  0.32515683
   0.41975357  0.23164239  0.40476342
   0.35219480  0.31492470  0.48428133
   0.24864818  0.41539052  0.55619364
   0.14943034  0.50581324  0.62877456
   0.06736299  0.56124748  0.73255538
   0.97475125  0.66780467  0.82808429
   0.92904441  0.75577760  0.91552392
   0.85276135  0.81906732  0.00700938
   0.40292843  0.42024614  0.59044952
   0.32224511  0.50912439  0.67195772
   0.21850324  0.59463701  0.72628977
   0.15523211  0.64859323  0.82839599
   0.08544793  0.72564021  0.92646014
   0.01411826  0.85626247  0.00070843
   0.90504691  0.95248525  0.08852708
   0.83052804  0.01557975  0.16355349
   0.73037267  0.10696960  0.23954075
   0.65298125  0.16756886  0.35690932
   0.57505086  0.26330139  0.43660088
   0.48697988  0.35261039  0.52209555
   0.49369339  0.34259926  0.69778098
   0.40657839  0.42663995  0.75193931
   0.31388516  0.51575926  0.81764505
   0.23896389  0.56392714  0.93498009
   0.16122832  0.65978657  0.99027869
   0.07174685  0.75029305  0.08358119
   0.01470375  0.86784947  0.16587162
   0.90838320  0.95498631  0.25672962
   0.80543082  0.02551326  0.32838309
   0.72802816  0.09958626  0.43673976
   0.66413444  0.17261859  0.52156100
   0.56397421  0.25871429  0.61183608
   0.59208776  0.27661342  0.77156931
   0.49480978  0.36306995  0.82086001
   0.40131679  0.41730925  0.90651209
   0.32418349  0.49731685  0.99997222
   0.23591100  0.57598153  0.09486677
   0.16087925  0.65592493  0.15061384
   0.07060186  0.74409436  0.24066727
   0.01090551  0.87162493  0.33461888
   0.89941084  0.93389732  0.42160790
   0.81994613  0.99754326  0.50434045
   0.74695562  0.08537836  0.58388075
   0.65606472  0.17083616  0.69401217
   0.65501487  0.17167275  0.84208735
   0.58381281  0.30010896  0.91860808
   0.48902543  0.36816990  0.99606321
   0.40032426  0.42565536  0.09617530
   0.32364405  0.50196710  0.18395589
   0.23893843  0.58023737  0.24686447
   0.16855820  0.67381752  0.33545389
   0.07790361  0.75289633  0.42556517
   0.98713225  0.87325169  0.48978512
   0.91028982  0.90003831  0.61910171
   0.81813828  0.99658652  0.65980034
   0.72777727  0.06615031  0.76547148
   0.73248858  0.08823598  0.91387900
   0.65385824  0.16890258  0.98364664
   0.58048133  0.30091183  0.05269865
   0.48804245  0.34775259  0.16289382
   0.39008249  0.42718533  0.22692798
   0.31799436  0.47706520  0.33738098
   0.24879307  0.58367158  0.38900606
   0.16701240  0.67068954  0.48667774
   0.09209116  0.77032183  0.55897199
   0.00198997  0.82089959  0.66843747
   0.92328241  0.92124658  0.74603927
   0.83516259  0.00158643  0.83300896
   0.80117769  0.98344867  0.96880771
   0.73864874  0.11098745  0.08368886
   0.65699688  0.18983995  0.17132724
   0.59281702  0.26491346  0.25715019
   0.48823012  0.34301257  0.34637484
   0.40587162  0.40679520  0.41096326
   0.33610473  0.51737116  0.50396348
   0.23266867  0.60302618  0.58704216
   0.15487526  0.69118462  0.65011875
   0.07121797  0.72942587  0.75145667
   0.01499315  0.84727113  0.82670125
   0.92867227  0.92231689  0.91548913
