 432 432   0   0
  0.1857636E+02  0.2002080E-08  0.2002080E-08  0.2002080E-08  0.5000000E-15
  1.000000000000000E-004
  CAR 
 Li                                      
      3.95340509     -3.31687729  301      0.63445435      1.00000000
     -3.317  0.0000E+00  0.0000E+00
     -3.293  0.0000E+00  0.0000E+00
     -3.268  0.0000E+00  0.0000E+00
     -3.244  0.0000E+00  0.0000E+00
     -3.220  0.0000E+00  0.0000E+00
     -3.196  0.0000E+00  0.0000E+00
     -3.171  0.0000E+00  0.0000E+00
     -3.147  0.1301E-11  0.3153E-13
     -3.123  0.4631E-08  0.1123E-09
     -3.099  0.4593E-05  0.1114E-06
     -3.075  0.1282E-02  0.3118E-04
     -3.050  0.1022E+00  0.2509E-02
     -3.026  0.2377E+01  0.6012E-01
     -3.002  0.1653E+02  0.4608E+00
     -2.978  0.3522E+02  0.1314E+01
     -2.953  0.2326E+02  0.1878E+01
     -2.929  0.4835E+01  0.1995E+01
     -2.905  0.3033E+01  0.2069E+01
     -2.881  0.2400E+02  0.2651E+01
     -2.856  0.7558E+02  0.4482E+01
     -2.832  0.9187E+02  0.6709E+01
     -2.808  0.4443E+02  0.7785E+01
     -2.784  0.8774E+01  0.7998E+01
     -2.759  0.8098E+01  0.8194E+01
     -2.735  0.4181E+02  0.9207E+01
     -2.711  0.8865E+02  0.1136E+02
     -2.687  0.7740E+02  0.1323E+02
     -2.663  0.2791E+02  0.1391E+02
     -2.638  0.7165E+01  0.1408E+02
     -2.614  0.2698E+02  0.1473E+02
     -2.590  0.8383E+02  0.1677E+02
     -2.566  0.1168E+03  0.1960E+02
     -2.541  0.7570E+02  0.2143E+02
     -2.517  0.2234E+02  0.2197E+02
     -2.493  0.1728E+02  0.2239E+02
     -2.469  0.7051E+02  0.2410E+02
     -2.444  0.1450E+03  0.2761E+02
     -2.420  0.1534E+03  0.3133E+02
     -2.396  0.8502E+02  0.3339E+02
     -2.372  0.2303E+02  0.3395E+02
     -2.348  0.1165E+02  0.3423E+02
     -2.323  0.5116E+02  0.3547E+02
     -2.299  0.9920E+02  0.3788E+02
     -2.275  0.6900E+02  0.3955E+02
     -2.251  0.1792E+02  0.3998E+02
     -2.226  0.1324E+02  0.4031E+02
     -2.202  0.6072E+02  0.4178E+02
     -2.178  0.1345E+03  0.4504E+02
     -2.154  0.1547E+03  0.4878E+02
     -2.129  0.9852E+02  0.5117E+02
     -2.105  0.3875E+02  0.5211E+02
     -2.081  0.5155E+02  0.5336E+02
     -2.057  0.1272E+03  0.5644E+02
     -2.032  0.1925E+03  0.6111E+02
     -2.008  0.1945E+03  0.6582E+02
     -1.984  0.1256E+03  0.6886E+02
     -1.960  0.4218E+02  0.6989E+02
     -1.936  0.1788E+02  0.7032E+02
     -1.911  0.5406E+02  0.7163E+02
     -1.887  0.9208E+02  0.7386E+02
     -1.863  0.6649E+02  0.7547E+02
     -1.839  0.2267E+02  0.7602E+02
     -1.814  0.2937E+02  0.7673E+02
     -1.790  0.9677E+02  0.7908E+02
     -1.766  0.1668E+03  0.8312E+02
     -1.742  0.1643E+03  0.8710E+02
     -1.717  0.9258E+02  0.8935E+02
     -1.693  0.3343E+02  0.9016E+02
     -1.669  0.5657E+02  0.9153E+02
     -1.645  0.1463E+03  0.9507E+02
     -1.620  0.2121E+03  0.1002E+03
     -1.596  0.1896E+03  0.1048E+03
     -1.572  0.1013E+03  0.1073E+03
     -1.548  0.3254E+02  0.1080E+03
     -1.524  0.4197E+02  0.1091E+03
     -1.499  0.1194E+03  0.1120E+03
     -1.475  0.1657E+03  0.1160E+03
     -1.451  0.1175E+03  0.1188E+03
     -1.427  0.5159E+02  0.1201E+03
     -1.402  0.6410E+02  0.1216E+03
     -1.378  0.1438E+03  0.1251E+03
     -1.354  0.1951E+03  0.1298E+03
     -1.330  0.1832E+03  0.1343E+03
     -1.305  0.1137E+03  0.1370E+03
     -1.281  0.5273E+02  0.1383E+03
     -1.257  0.8517E+02  0.1404E+03
     -1.233  0.1837E+03  0.1448E+03
     -1.208  0.2231E+03  0.1502E+03
     -1.184  0.1580E+03  0.1541E+03
     -1.160  0.6697E+02  0.1557E+03
     -1.136  0.3010E+02  0.1564E+03
     -1.112  0.7244E+02  0.1582E+03
     -1.087  0.1405E+03  0.1616E+03
     -1.063  0.1475E+03  0.1651E+03
     -1.039  0.8835E+02  0.1673E+03
     -1.015  0.3305E+02  0.1681E+03
     -0.990  0.4591E+02  0.1692E+03
     -0.966  0.1077E+03  0.1718E+03
     -0.942  0.1381E+03  0.1752E+03
     -0.918  0.1224E+03  0.1781E+03
     -0.893  0.9449E+02  0.1804E+03
     -0.869  0.1297E+03  0.1836E+03
     -0.845  0.2116E+03  0.1887E+03
     -0.821  0.2521E+03  0.1948E+03
     -0.797  0.2529E+03  0.2009E+03
     -0.772  0.2188E+03  0.2062E+03
     -0.748  0.1373E+03  0.2096E+03
     -0.724  0.1127E+03  0.2123E+03
     -0.700  0.1730E+03  0.2165E+03
     -0.675  0.1926E+03  0.2211E+03
     -0.651  0.1525E+03  0.2248E+03
     -0.627  0.9377E+02  0.2271E+03
     -0.603  0.4892E+02  0.2283E+03
     -0.578  0.7770E+02  0.2302E+03
     -0.554  0.1525E+03  0.2339E+03
     -0.530  0.1727E+03  0.2381E+03
     -0.506  0.1212E+03  0.2410E+03
     -0.481  0.8745E+02  0.2431E+03
     -0.457  0.1374E+03  0.2465E+03
     -0.433  0.1973E+03  0.2512E+03
     -0.409  0.2221E+03  0.2566E+03
     -0.385  0.2058E+03  0.2616E+03
     -0.360  0.1552E+03  0.2654E+03
     -0.336  0.1243E+03  0.2684E+03
     -0.312  0.9807E+02  0.2708E+03
     -0.288  0.4628E+02  0.2719E+03
     -0.263  0.3460E+02  0.2727E+03
     -0.239  0.9839E+02  0.2751E+03
     -0.215  0.1839E+03  0.2796E+03
     -0.191  0.2140E+03  0.2847E+03
     -0.166  0.1891E+03  0.2893E+03
     -0.142  0.1701E+03  0.2934E+03
     -0.118  0.1618E+03  0.2974E+03
     -0.094  0.1694E+03  0.3015E+03
     -0.069  0.1908E+03  0.3061E+03
     -0.045  0.2040E+03  0.3110E+03
     -0.021  0.2099E+03  0.3161E+03
      0.003  0.2140E+03  0.3213E+03
      0.027  0.1992E+03  0.3261E+03
      0.052  0.1586E+03  0.3300E+03
      0.076  0.1264E+03  0.3330E+03
      0.100  0.1307E+03  0.3362E+03
      0.124  0.1516E+03  0.3399E+03
      0.149  0.1562E+03  0.3437E+03
      0.173  0.1641E+03  0.3477E+03
      0.197  0.1995E+03  0.3525E+03
      0.221  0.2271E+03  0.3580E+03
      0.246  0.2372E+03  0.3637E+03
      0.270  0.2312E+03  0.3693E+03
      0.294  0.2058E+03  0.3743E+03
      0.318  0.1750E+03  0.3786E+03
      0.342  0.1619E+03  0.3825E+03
      0.367  0.1728E+03  0.3867E+03
      0.391  0.1868E+03  0.3912E+03
      0.415  0.1870E+03  0.3957E+03
      0.439  0.1682E+03  0.3998E+03
      0.464  0.1379E+03  0.4032E+03
      0.488  0.1302E+03  0.4063E+03
      0.512  0.1540E+03  0.4100E+03
      0.536  0.1708E+03  0.4142E+03
      0.561  0.1767E+03  0.4185E+03
      0.585  0.1810E+03  0.4229E+03
      0.609  0.1826E+03  0.4273E+03
      0.633  0.1859E+03  0.4318E+03
      0.658  0.1946E+03  0.4365E+03
      0.682  0.1989E+03  0.4413E+03
      0.706  0.2002E+03  0.4462E+03
      0.730  0.1998E+03  0.4510E+03
      0.754  0.1924E+03  0.4557E+03
      0.779  0.1889E+03  0.4603E+03
      0.803  0.1779E+03  0.4646E+03
      0.827  0.1595E+03  0.4684E+03
      0.851  0.1637E+03  0.4724E+03
      0.876  0.1793E+03  0.4767E+03
      0.900  0.1883E+03  0.4813E+03
      0.924  0.2028E+03  0.4862E+03
      0.948  0.2181E+03  0.4915E+03
      0.973  0.2275E+03  0.4970E+03
      0.997  0.2295E+03  0.5026E+03
      1.021  0.2229E+03  0.5080E+03
      1.045  0.2206E+03  0.5133E+03
      1.070  0.2179E+03  0.5186E+03
      1.094  0.2245E+03  0.5241E+03
      1.118  0.2285E+03  0.5296E+03
      1.142  0.2213E+03  0.5350E+03
      1.166  0.2239E+03  0.5404E+03
      1.191  0.2168E+03  0.5456E+03
      1.215  0.2033E+03  0.5506E+03
      1.239  0.2001E+03  0.5554E+03
      1.263  0.2100E+03  0.5605E+03
      1.288  0.2121E+03  0.5656E+03
      1.312  0.2058E+03  0.5706E+03
      1.336  0.2141E+03  0.5758E+03
      1.360  0.2231E+03  0.5812E+03
      1.385  0.2090E+03  0.5863E+03
      1.409  0.1960E+03  0.5910E+03
      1.433  0.1899E+03  0.5956E+03
      1.457  0.1830E+03  0.6001E+03
      1.482  0.1749E+03  0.6043E+03
      1.506  0.1752E+03  0.6086E+03
      1.530  0.1808E+03  0.6129E+03
      1.554  0.1731E+03  0.6171E+03
      1.578  0.1769E+03  0.6214E+03
      1.603  0.1918E+03  0.6261E+03
      1.627  0.1893E+03  0.6307E+03
      1.651  0.1792E+03  0.6350E+03
      1.675  0.1742E+03  0.6392E+03
      1.700  0.1600E+03  0.6431E+03
      1.724  0.1476E+03  0.6467E+03
      1.748  0.1390E+03  0.6500E+03
      1.772  0.1279E+03  0.6531E+03
      1.797  0.1311E+03  0.6563E+03
      1.821  0.1411E+03  0.6597E+03
      1.845  0.1454E+03  0.6633E+03
      1.869  0.1467E+03  0.6668E+03
      1.893  0.1459E+03  0.6704E+03
      1.918  0.1477E+03  0.6739E+03
      1.942  0.1536E+03  0.6777E+03
      1.966  0.1633E+03  0.6816E+03
      1.990  0.1639E+03  0.6856E+03
      2.015  0.1574E+03  0.6894E+03
      2.039  0.1476E+03  0.6930E+03
      2.063  0.1491E+03  0.6966E+03
      2.087  0.1683E+03  0.7007E+03
      2.112  0.1832E+03  0.7051E+03
      2.136  0.1768E+03  0.7094E+03
      2.160  0.1664E+03  0.7134E+03
      2.184  0.1686E+03  0.7175E+03
      2.209  0.1823E+03  0.7219E+03
      2.233  0.1836E+03  0.7264E+03
      2.257  0.1743E+03  0.7306E+03
      2.281  0.1626E+03  0.7345E+03
      2.305  0.1553E+03  0.7383E+03
      2.330  0.1476E+03  0.7419E+03
      2.354  0.1453E+03  0.7454E+03
      2.378  0.1501E+03  0.7491E+03
      2.402  0.1396E+03  0.7524E+03
      2.427  0.1304E+03  0.7556E+03
      2.451  0.1384E+03  0.7589E+03
      2.475  0.1414E+03  0.7624E+03
      2.499  0.1307E+03  0.7655E+03
      2.524  0.1217E+03  0.7685E+03
      2.548  0.1166E+03  0.7713E+03
      2.572  0.1151E+03  0.7741E+03
      2.596  0.1228E+03  0.7771E+03
      2.621  0.1165E+03  0.7799E+03
      2.645  0.1097E+03  0.7826E+03
      2.669  0.1059E+03  0.7851E+03
      2.693  0.9952E+02  0.7875E+03
      2.717  0.9714E+02  0.7899E+03
      2.742  0.9608E+02  0.7922E+03
      2.766  0.7513E+02  0.7940E+03
      2.790  0.5077E+02  0.7953E+03
      2.814  0.2819E+02  0.7960E+03
      2.839  0.2246E+02  0.7965E+03
      2.863  0.4260E+02  0.7975E+03
      2.887  0.6746E+02  0.7992E+03
      2.911  0.6598E+02  0.8008E+03
      2.936  0.4832E+02  0.8019E+03
      2.960  0.4306E+02  0.8030E+03
      2.984  0.4207E+02  0.8040E+03
      3.008  0.4539E+02  0.8051E+03
      3.033  0.6574E+02  0.8067E+03
      3.057  0.8693E+02  0.8088E+03
      3.081  0.1020E+03  0.8113E+03
      3.105  0.1038E+03  0.8138E+03
      3.129  0.1079E+03  0.8164E+03
      3.154  0.1120E+03  0.8191E+03
      3.178  0.1075E+03  0.8217E+03
      3.202  0.1051E+03  0.8243E+03
      3.226  0.1113E+03  0.8270E+03
      3.251  0.1179E+03  0.8298E+03
      3.275  0.1262E+03  0.8329E+03
      3.299  0.1374E+03  0.8362E+03
      3.323  0.1300E+03  0.8394E+03
      3.348  0.1057E+03  0.8419E+03
      3.372  0.9579E+02  0.8443E+03
      3.396  0.8427E+02  0.8463E+03
      3.420  0.7494E+02  0.8481E+03
      3.444  0.7195E+02  0.8499E+03
      3.469  0.7898E+02  0.8518E+03
      3.493  0.9387E+02  0.8540E+03
      3.517  0.1035E+03  0.8565E+03
      3.541  0.1075E+03  0.8592E+03
      3.566  0.1058E+03  0.8617E+03
      3.590  0.9194E+02  0.8639E+03
      3.614  0.5614E+02  0.8653E+03
      3.638  0.2224E+02  0.8658E+03
      3.663  0.5609E+01  0.8660E+03
      3.687  0.6615E+00  0.8660E+03
      3.711  0.2709E-01  0.8660E+03
      3.735  0.3378E-03  0.8660E+03
      3.760  0.1218E-05  0.8660E+03
      3.784  0.1241E-08  0.8660E+03
      3.808  0.3528E-12  0.8660E+03
      3.832  0.0000E+00  0.8660E+03
      3.856  0.0000E+00  0.8660E+03
      3.881  0.0000E+00  0.8660E+03
      3.905  0.0000E+00  0.8660E+03
      3.929  0.0000E+00  0.8660E+03
      3.953  0.0000E+00  0.8660E+03
