 running on   64 total cores
 distrk:  each k-point on   32 cores,    2 groups
 distr:  one band on   32 cores,    1 groups
 vasp.6.2.1 16May21 (build Nov 23 2021 15:40:41) complex                        
  
 POSCAR found type information on POSCAR Li
 POSCAR found :  1 types and     432 ions
 scaLAPACK will be used
 -----------------------------------------------------------------------------
|                                                                             |
|           W    W    AA    RRRRR   N    N  II  N    N   GGGG   !!!           |
|           W    W   A  A   R    R  NN   N  II  NN   N  G    G  !!!           |
|           W    W  A    A  R    R  N N  N  II  N N  N  G       !!!           |
|           W WW W  AAAAAA  RRRRR   N  N N  II  N  N N  G  GGG   !            |
|           WW  WW  A    A  R   R   N   NN  II  N   NN  G    G                |
|           W    W  A    A  R    R  N    N  II  N    N   GGGG   !!!           |
|                                                                             |
|     For optimal performance we recommend to set                             |
|       NCORE = 2 up to number-of-cores-per-socket                            |
|     NCORE specifies how many cores store one orbital (NPAR=cpu/NCORE).      |
|     This setting can greatly improve the performance of VASP for DFT.       |
|     The default, NCORE=1 might be grossly inefficient on modern             |
|     multi-core architectures or massively parallel machines. Do your        |
|     own testing! More info at https://www.vasp.at/wiki/index.php/NCORE      |
|     Unfortunately you need to use the default for GW and RPA                |
|     calculations (for HF NCORE is supported but not extensively tested      |
|     yet).                                                                   |
|                                                                             |
 -----------------------------------------------------------------------------

 -----------------------------------------------------------------------------
|                                                                             |
|               ----> ADVICE to this user running VASP <----                  |
|                                                                             |
|     You have a (more or less) 'large supercell' and for larger cells it     |
|     might be more efficient to use real-space projection operators.         |
|     Therefore, try LREAL= Auto in the INCAR file.                           |
|     Mind: If you want to do very accurate calculations, keep the            |
|     reciprocal projection scheme (i.e. LREAL=.FALSE.).                      |
|                                                                             |
 -----------------------------------------------------------------------------

 LDA part: xc-table for Pade appr. of Perdew
 POSCAR found type information on POSCAR Li
 POSCAR found :  1 types and     432 ions
 POSCAR, INCAR and KPOINTS ok, starting setup
 FFT: planning ...
 WAVECAR not read
 entering main loop
       N       E                     dE             d eps       ncg     rms          rms(c)
DAV:   1    -0.197040694971E+03   -0.19704E+03   -0.10734E+05  3464   0.664E+02
DAV:   2    -0.745378393921E+03   -0.54834E+03   -0.49983E+03  3996   0.702E+01
DAV:   3    -0.784115660163E+03   -0.38737E+02   -0.35465E+02  4432   0.148E+01
DAV:   4    -0.785374242739E+03   -0.12586E+01   -0.12418E+01  4016   0.293E+00
DAV:   5    -0.785403803617E+03   -0.29561E-01   -0.29518E-01  4144   0.469E-01    0.107E+01
DAV:   6    -0.778442079592E+03    0.69617E+01   -0.14817E+01  3984   0.573E+00    0.818E+00
DAV:   7    -0.771338884332E+03    0.71032E+01   -0.13296E+01  4056   0.526E+00    0.498E+00
DAV:   8    -0.768496170790E+03    0.28427E+01   -0.56441E+00  3992   0.267E+00    0.249E+00
DAV:   9    -0.768150569594E+03    0.34560E+00   -0.27596E+00  3792   0.140E+00    0.136E+00
DAV:  10    -0.768181129413E+03   -0.30560E-01   -0.55937E-01  4040   0.818E-01    0.111E+00
DAV:  11    -0.768061899093E+03    0.11923E+00   -0.21549E-01  3944   0.552E-01    0.594E-01
DAV:  12    -0.768047554826E+03    0.14344E-01   -0.63183E-02  3752   0.220E-01    0.256E-01
DAV:  13    -0.768048963861E+03   -0.14090E-02   -0.13937E-02  4096   0.138E-01    0.184E-01
DAV:  14    -0.768046109110E+03    0.28548E-02   -0.51717E-03  3992   0.972E-02    0.957E-02
DAV:  15    -0.768045584157E+03    0.52495E-03   -0.15457E-03  3952   0.456E-02    0.487E-02
DAV:  16    -0.768045562393E+03    0.21763E-04   -0.64064E-04  3984   0.277E-02    0.304E-02
DAV:  17    -0.768045462801E+03    0.99592E-04   -0.24659E-04  3936   0.186E-02    0.152E-02
DAV:  18    -0.768045438661E+03    0.24141E-04   -0.61422E-05  3744   0.757E-03    0.687E-03
DAV:  19    -0.768045431984E+03    0.66766E-05   -0.13510E-05  2176   0.385E-03
   1 F= -.76804543E+03 E0= -.76800255E+03  d E =-.857642E-01
