Li                                      
           1
    20.020800    0.000000    0.000000
     0.000000   20.020800    0.000000
     0.000000    0.000000   20.020800
   Li
   432
Direct configuration=     1
   0.96136913  0.02911474  0.02761256
   0.86935984  0.10520914  0.08817416
   0.77776295  0.17625390  0.17398520
   0.73510895  0.29638431  0.23719892
   0.66512755  0.36740740  0.34910663
   0.58289524  0.42483528  0.43925123
   0.49807191  0.51593531  0.53662494
   0.38623435  0.58256085  0.58828538
   0.32993396  0.65877920  0.67971306
   0.25271259  0.74229315  0.74001738
   0.16875121  0.83026101  0.86584341
   0.05584054  0.91517788  0.94702840
   0.07979011  0.93159890  0.10153426
   0.96638067  0.03169116  0.16392329
   0.88373253  0.08873444  0.23807548
   0.83634098  0.17502719  0.35898427
   0.76779397  0.25010977  0.41484423
   0.70090445  0.35773530  0.51252719
   0.58836977  0.41824848  0.59240866
   0.51695847  0.50919567  0.64497240
   0.43298379  0.56179315  0.75633156
   0.32424451  0.67027332  0.83250090
   0.25725710  0.75595850  0.93133936
   0.16086403  0.81953660  0.98834972
   0.15672175  0.83625560  0.18050439
   0.07643812  0.92144601  0.23572517
   0.99777112  0.02061619  0.29722457
   0.93520192  0.09796461  0.42336314
   0.86232365  0.15609295  0.48875725
   0.77262594  0.25616659  0.58227574
   0.66220542  0.32925499  0.66615001
   0.59352298  0.40884741  0.72849620
   0.51776416  0.49738344  0.82549983
   0.40347829  0.59722417  0.91447494
   0.33573906  0.64983747  0.00449777
   0.24333562  0.76132621  0.07633274
   0.22704675  0.75499281  0.25106791
   0.16442940  0.84823755  0.34443442
   0.05924192  0.92764321  0.40794825
   0.00293797  0.01732335  0.49766404
   0.93242243  0.08818564  0.58080937
   0.85411944  0.15469365  0.66156725
   0.76213607  0.24000039  0.75460592
   0.68076159  0.36189556  0.78739872
   0.59689711  0.41644408  0.87934636
   0.49130314  0.50108243  0.99243299
   0.43634276  0.56888281  0.06787169
   0.32828547  0.66902807  0.18919405
   0.31754833  0.66496373  0.33071261
   0.23700840  0.72808128  0.39570962
   0.14901471  0.84124953  0.47861663
   0.05321078  0.94133247  0.60183771
   0.98937801  0.00182131  0.68223465
   0.92414435  0.07222000  0.78521854
   0.81773631  0.17797818  0.82710646
   0.72170710  0.26991351  0.89025174
   0.67006915  0.35468010  0.96786883
   0.57724428  0.42182840  0.06539932
   0.50972524  0.51603087  0.17296236
   0.42924195  0.58522475  0.25370214
   0.42482832  0.55981981  0.42038291
   0.32024736  0.66287456  0.51115575
   0.23481587  0.75111348  0.57120951
   0.15824423  0.83314749  0.68019634
   0.07574364  0.91383114  0.75870294
   0.97948878  0.01151249  0.85790902
   0.88320029  0.09947308  0.93548191
   0.79131231  0.20676006  0.97494791
   0.72255819  0.24808028  0.07686891
   0.65126894  0.36334432  0.16416531
   0.56525442  0.41075819  0.25688665
   0.52656410  0.50901099  0.35006946
   0.08235826  0.09688301  0.94596819
   0.97870044  0.14407348  0.99659826
   0.90067018  0.25766038  0.06533552
   0.84012806  0.35510715  0.16342014
   0.75699353  0.45029048  0.24925055
   0.65629814  0.52091724  0.34260569
   0.60095008  0.60194710  0.43491005
   0.50233596  0.64785120  0.53139239
   0.38812961  0.75316684  0.56614310
   0.33138542  0.85569136  0.65193630
   0.25308639  0.92724039  0.76929103
   0.15668995  0.97668073  0.87343483
   0.16593798  0.98166351  0.00637295
   0.09594273  0.08543244  0.09123663
   0.98067795  0.15714627  0.16182717
   0.90185247  0.24037729  0.23855693
   0.84083418  0.35791519  0.32965848
   0.78045513  0.42388693  0.42412396
   0.68187331  0.50709021  0.51628161
   0.62478025  0.61327143  0.61720642
   0.47687772  0.68368189  0.66353494
   0.40281162  0.74945488  0.73564804
   0.33941913  0.83100936  0.83853146
   0.26688225  0.89613751  0.94121523
   0.24982834  0.88824158  0.11096203
   0.18509219  0.00712740  0.19115202
   0.09668753  0.11785605  0.24201493
   0.98204875  0.17826100  0.32059547
   0.95335196  0.25501038  0.41220184
   0.85123707  0.32224684  0.51493344
   0.78381895  0.40504964  0.60319935
   0.68877462  0.49283572  0.67710001
   0.56941923  0.61431806  0.72614410
   0.48633797  0.66810963  0.82278573
   0.40329326  0.74278438  0.90771489
   0.35454323  0.82636140  0.02862297
   0.35370269  0.81085116  0.15980490
   0.25988859  0.90961326  0.25319597
   0.16267886  0.97242964  0.34389847
   0.06935427  0.08964378  0.40259271
   0.01469526  0.17802149  0.50302742
   0.93359973  0.26264134  0.59432723
   0.83145394  0.31154222  0.69125753
   0.76575524  0.41616639  0.74903784
   0.66679528  0.52931890  0.81903696
   0.57855669  0.57260328  0.91083274
   0.51071753  0.67075530  0.99990818
   0.43272646  0.72286427  0.10024854
   0.40967327  0.75779313  0.28353463
   0.32650471  0.82528325  0.35195388
   0.23751350  0.94433587  0.42796481
   0.13290327  0.98476167  0.52902909
   0.05832330  0.07502269  0.60437112
   0.00919309  0.15540592  0.68033906
   0.89584961  0.24785014  0.77002808
   0.82028743  0.33652592  0.84640862
   0.71898518  0.43690411  0.90382212
   0.67186856  0.50877611  0.99433788
   0.60664378  0.59060695  0.09056307
   0.50585057  0.66079201  0.17500275
   0.49003665  0.67742470  0.33141441
   0.42699256  0.73260315  0.45488407
   0.29501312  0.85310965  0.48527043
   0.21836897  0.93256868  0.58882584
   0.15855725  0.97966649  0.68239539
   0.08196678  0.06787711  0.77357837
   0.00240113  0.14831239  0.85158558
   0.89867832  0.25169670  0.90759880
   0.81354170  0.31403986  0.99556367
   0.76969632  0.43499030  0.07598598
   0.64378843  0.48958288  0.16861137
   0.60148509  0.60141611  0.25094538
   0.15880825  0.13770799  0.84707522
   0.05217591  0.22600462  0.94851142
   0.98604249  0.30823206  0.01453365
   0.90677256  0.42615837  0.06869615
   0.85035098  0.51841011  0.17930766
   0.76221560  0.59509347  0.23508785
   0.66512347  0.69415504  0.34341770
   0.59375377  0.74750942  0.42970729
   0.49210838  0.83766713  0.51843919
   0.41091032  0.90063762  0.56612823
   0.33642393  0.99319184  0.67355776
   0.25472932  0.06512228  0.76806722
   0.23988851  0.03585220  0.90905644
   0.18580168  0.13868899  0.99763737
   0.08040019  0.22079607  0.08840424
   0.99232075  0.33968807  0.14978803
   0.91083229  0.44720517  0.24783641
   0.82919844  0.50353980  0.34276324
   0.75506833  0.59435455  0.42755291
   0.69232286  0.67802068  0.50797313
   0.59594102  0.75121978  0.57015214
   0.49189119  0.80636208  0.65721206
   0.42910247  0.91504601  0.74995025
   0.35534733  0.97860373  0.81692468
   0.36173215  0.97699568  0.01436722
   0.27372937  0.04965870  0.08282743
   0.20401859  0.15243066  0.14181333
   0.09019652  0.25407986  0.23237728
   0.00803742  0.32878853  0.30819273
   0.93466051  0.42169421  0.41275797
   0.87620403  0.52096004  0.49467809
   0.76992267  0.59827551  0.58727781
   0.69251837  0.69375011  0.67053786
   0.58752154  0.73292861  0.74224900
   0.51046488  0.82233978  0.80081215
   0.44811962  0.91161304  0.92083288
   0.43522481  0.92759285  0.11002217
   0.34947154  0.00892991  0.20000987
   0.25484190  0.08568642  0.26141108
   0.17001848  0.16141872  0.32718253
   0.10674921  0.23887590  0.40521969
   0.02146067  0.33838401  0.49359645
   0.93062766  0.41736343  0.61245053
   0.83901786  0.51494361  0.67023941
   0.76175632  0.61278089  0.72552002
   0.66306045  0.67824390  0.82476584
   0.55818982  0.72268502  0.91282462
   0.48847663  0.81956496  0.01722419
   0.48767193  0.84028761  0.18044271
   0.44631305  0.90943998  0.26460814
   0.36120880  0.99680111  0.34386451
   0.23067149  0.08657242  0.41541576
   0.14637437  0.17143750  0.50160980
   0.09310603  0.25720671  0.60207299
   0.99420800  0.33855724  0.67608935
   0.91556679  0.42265019  0.75690316
   0.84880718  0.51009386  0.82378622
   0.75656335  0.59327530  0.88963078
   0.67151136  0.65028901  0.98138811
   0.58455900  0.73412435  0.09473587
   0.56696498  0.75288895  0.25119382
   0.48582672  0.83102673  0.35690647
   0.40188293  0.90416354  0.41513195
   0.32686305  0.00814127  0.51420195
   0.19550669  0.08370330  0.59548067
   0.15002844  0.13676651  0.67345794
   0.07919310  0.22470903  0.77446559
   0.00080448  0.32464510  0.84653085
   0.90120610  0.43021848  0.93419479
   0.82700065  0.52964105  0.97559317
   0.75298847  0.58586440  0.09491009
   0.66388234  0.65873014  0.19174112
   0.22929804  0.24042109  0.74377513
   0.17007861  0.34113658  0.87408171
   0.07816046  0.38733803  0.95488658
   0.00548647  0.49991005  0.00704774
   0.91516453  0.59913609  0.05597661
   0.81458162  0.69444666  0.15599187
   0.71946503  0.74422452  0.26205916
   0.66052342  0.82935734  0.34807164
   0.57967809  0.89271670  0.41600501
   0.49988491  0.97720772  0.47383868
   0.42317491  0.07694632  0.59364626
   0.33302722  0.16212151  0.68273703
   0.32703668  0.12768076  0.83003532
   0.26218919  0.22689576  0.87992753
   0.19088014  0.30308914  0.99786660
   0.08332079  0.40418930  0.07802843
   0.00515459  0.49489763  0.14399661
   0.90568533  0.58127760  0.23803117
   0.82052652  0.67382643  0.31927214
   0.76778634  0.74677090  0.42288740
   0.66032795  0.84285648  0.48519477
   0.57276698  0.91309059  0.56824684
   0.49142922  0.01093961  0.64525254
   0.44752474  0.08116548  0.74973602
   0.42199732  0.08111296  0.91006267
   0.32493486  0.14794140  0.99011331
   0.27285434  0.23668058  0.07103463
   0.17711005  0.28975949  0.12976080
   0.10269606  0.40785238  0.21337467
   0.00592006  0.50314158  0.30093806
   0.93758652  0.60754906  0.39866116
   0.86664532  0.67762051  0.49812954
   0.75878823  0.77132639  0.55162773
   0.66762833  0.82285686  0.65796033
   0.57513130  0.93013099  0.73612612
   0.52384957  0.01631260  0.83926714
   0.52146963  0.98734381  0.00496241
   0.41663100  0.08250096  0.09398747
   0.34911982  0.14665616  0.15893196
   0.26406877  0.22326763  0.22716580
   0.21440389  0.34096621  0.32511653
   0.08507609  0.43049938  0.38061348
   0.00154727  0.50573317  0.47279160
   0.94909956  0.61285014  0.58543512
   0.84291977  0.71921025  0.65269291
   0.76752024  0.73489337  0.75675978
   0.66947134  0.82644350  0.84348176
   0.57616325  0.87813797  0.89934764
   0.56835630  0.89985920  0.08583211
   0.51107595  0.01169008  0.16945410
   0.44099678  0.09398957  0.27688916
   0.32886719  0.18622701  0.33482560
   0.22913968  0.25619126  0.41191264
   0.16215237  0.32957686  0.47230516
   0.07412680  0.41585561  0.57709923
   0.00208272  0.50959723  0.68628790
   0.94066762  0.61559639  0.74180573
   0.86489533  0.66122534  0.83964320
   0.74938928  0.76537775  0.90975559
   0.64877302  0.81548428  0.00128390
   0.66547437  0.82948697  0.18667567
   0.57259431  0.89272827  0.27182301
   0.48993874  0.98375898  0.34587126
   0.41024527  0.10816278  0.42965707
   0.31937065  0.15882717  0.51423837
   0.23963143  0.24606239  0.62016490
   0.14979837  0.34101132  0.67189248
   0.05814638  0.42283166  0.79273575
   0.00062420  0.50382592  0.86410392
   0.93733004  0.58326044  0.92749489
   0.83857379  0.65823247  0.99537037
   0.73196018  0.72849160  0.06825224
   0.31007846  0.34175267  0.66706321
   0.23627900  0.43258880  0.74668842
   0.15744278  0.49558032  0.85067476
   0.08962152  0.57927828  0.93060710
   0.00479350  0.66541232  0.99151412
   0.91078682  0.75873546  0.06029327
   0.80177364  0.82367907  0.16326612
   0.72983528  0.89816997  0.25776847
   0.66013139  0.99355337  0.33157329
   0.57805126  0.08860411  0.43538046
   0.49434915  0.17261574  0.49658595
   0.40971171  0.24964301  0.60523631
   0.39117952  0.22179130  0.77676186
   0.32771566  0.32027659  0.81287152
   0.25648192  0.40366753  0.91862113
   0.17009939  0.46839229  0.97233929
   0.11288357  0.57164169  0.05161620
   0.01726060  0.66336727  0.15516804
   0.91011602  0.73842608  0.23819720
   0.82724271  0.82779874  0.33997115
   0.75340670  0.92538181  0.42272745
   0.66341467  0.01052500  0.49380087
   0.57718256  0.10596382  0.58896021
   0.49427712  0.15089623  0.64942154
   0.51327146  0.16093951  0.82975050
   0.42314122  0.20682263  0.87709948
   0.34373578  0.29380130  0.96351382
   0.27776982  0.38625357  0.06514694
   0.19295964  0.48900100  0.14829595
   0.09191190  0.56962617  0.22441425
   0.01414268  0.67037558  0.30732174
   0.93697451  0.76272149  0.39368649
   0.84261515  0.85714517  0.48339605
   0.76000006  0.90610847  0.57452485
   0.66490461  0.99724941  0.63344460
   0.62585717  0.06250796  0.73876789
   0.58952491  0.06133002  0.90928147
   0.49892427  0.16403364  0.02088260
   0.43194038  0.25971678  0.07452404
   0.33462077  0.32603184  0.15719941
   0.27134860  0.40011948  0.22442923
   0.16981673  0.48192856  0.30775720
   0.07649221  0.58470203  0.40430874
   0.00464455  0.68413498  0.46116709
   0.93961478  0.74748468  0.55520003
   0.84918289  0.82906177  0.66766523
   0.76476021  0.90278228  0.75013270
   0.69828775  0.97774996  0.82811163
   0.65134104  0.98181721  0.98712640
   0.60522372  0.08819441  0.08653543
   0.51414556  0.17045192  0.19040713
   0.41080813  0.23657662  0.25512525
   0.32704369  0.35331189  0.32458559
   0.24383498  0.43617847  0.41965294
   0.15961097  0.50699015  0.51521588
   0.07732806  0.57476841  0.56412204
   0.00339273  0.67384138  0.66170787
   0.91459750  0.76219395  0.73893544
   0.86517572  0.84419586  0.83724885
   0.71868960  0.89795775  0.92528249
   0.69777421  0.89851002  0.08292396
   0.65477545  0.97089064  0.18640426
   0.57789119  0.08622462  0.28187328
   0.51970217  0.20533733  0.35951292
   0.39606970  0.26221225  0.44246619
   0.32615490  0.33568831  0.49841077
   0.22335356  0.41576371  0.57972649
   0.14809461  0.50633866  0.68901665
   0.09052095  0.57150867  0.77024364
   0.02507341  0.68756910  0.85376522
   0.93990924  0.75621722  0.92348795
   0.81754638  0.82760372  0.00825608
   0.40906331  0.38806726  0.58680614
   0.33630974  0.48648855  0.66489654
   0.24487894  0.57028384  0.75168913
   0.17885391  0.65575924  0.84455118
   0.10111335  0.75464554  0.92418961
   0.99989164  0.83304961  0.00211027
   0.87784505  0.91230811  0.09435671
   0.78394511  0.99314841  0.16087362
   0.73303142  0.09350678  0.25788407
   0.65470838  0.17939753  0.34923793
   0.59870907  0.27233401  0.43261082
   0.51257385  0.32778991  0.51797771
   0.49344942  0.30096650  0.67910765
   0.41595601  0.41553736  0.73720744
   0.34969984  0.49456836  0.82584311
   0.24441219  0.58943181  0.90919337
   0.17557886  0.66962193  0.99289852
   0.08844057  0.75016648  0.07574577
   0.99522348  0.84133586  0.15448179
   0.88816768  0.91107402  0.25116086
   0.83334578  0.99498281  0.32793968
   0.75957680  0.08546424  0.41578779
   0.67187141  0.17196615  0.50591494
   0.61514931  0.25216168  0.57783100
   0.58597465  0.26269952  0.75629527
   0.49792233  0.34204257  0.82574291
   0.45064222  0.39783292  0.90300042
   0.34775603  0.49679141  0.98254208
   0.25360544  0.57144786  0.06696905
   0.15780504  0.65611668  0.16231286
   0.07911958  0.77779663  0.23184678
   0.00588126  0.83564598  0.30506028
   0.94278477  0.92155660  0.39776831
   0.83075399  0.02083474  0.50458100
   0.75947956  0.08006537  0.56409150
   0.67929782  0.16684823  0.66391572
   0.66062495  0.17796651  0.83807859
   0.58075286  0.27771043  0.89316172
   0.49955178  0.31078497  0.96764384
   0.41533177  0.40492597  0.07037718
   0.34981919  0.49768145  0.16071256
   0.23671346  0.59424767  0.26024710
   0.15345126  0.65205183  0.32392767
   0.08487844  0.74416300  0.39142695
   0.01603987  0.83081628  0.47481234
   0.93650198  0.93604820  0.58240386
   0.83664821  0.00884165  0.64603970
   0.76801283  0.07902120  0.74871782
   0.72002657  0.08349701  0.92402184
   0.64602989  0.20227704  0.99287634
   0.58867405  0.24836800  0.09989231
   0.49466317  0.34746347  0.16207093
   0.42822233  0.41908348  0.25036202
   0.33415109  0.49807020  0.29263283
   0.23326602  0.55880907  0.42930366
   0.14638363  0.69200268  0.49480664
   0.08183121  0.76533463  0.56952867
   0.00235977  0.82749860  0.66160387
   0.91353698  0.92016521  0.74591016
   0.82400723  0.98756196  0.83935260
   0.80210682  0.00021485  0.98663002
   0.68884976  0.07933509  0.06616127
   0.65026771  0.15899163  0.18514280
   0.58325558  0.27320757  0.26569342
   0.47216496  0.33565655  0.35183456
   0.40351581  0.43079402  0.41751445
   0.34020821  0.49238549  0.50814964
   0.24783173  0.58463896  0.58065964
   0.14755797  0.67828102  0.65701434
   0.07881749  0.75037948  0.74555924
   0.01669844  0.82933870  0.82588230
   0.90761248  0.90210920  0.92566463
