 500 500   0   0
  0.1910214E+02  0.2121700E-08  0.2121700E-08  0.2121700E-08  0.5000000E-15
  1.000000000000000E-004
  CAR 
 Li                                      
      3.74235819     -3.36003816  301      0.55195613      1.00000000
     -3.360  0.0000E+00  0.0000E+00
     -3.336  0.0000E+00  0.0000E+00
     -3.313  0.0000E+00  0.0000E+00
     -3.289  0.0000E+00  0.0000E+00
     -3.265  0.0000E+00  0.0000E+00
     -3.242  0.0000E+00  0.0000E+00
     -3.218  0.0000E+00  0.0000E+00
     -3.194  0.5236E-11  0.1240E-12
     -3.171  0.1286E-07  0.3045E-09
     -3.147  0.9337E-05  0.2214E-06
     -3.123  0.2025E-02  0.4815E-04
     -3.100  0.1329E+00  0.3194E-02
     -3.076  0.2691E+01  0.6690E-01
     -3.052  0.1719E+02  0.4738E+00
     -3.029  0.3535E+02  0.1311E+01
     -3.005  0.2366E+02  0.1871E+01
     -2.981  0.5852E+01  0.2009E+01
     -2.958  0.1000E+02  0.2246E+01
     -2.934  0.4678E+02  0.3354E+01
     -2.910  0.9165E+02  0.5523E+01
     -2.887  0.7579E+02  0.7318E+01
     -2.863  0.2599E+02  0.7933E+01
     -2.839  0.1072E+02  0.8187E+01
     -2.816  0.4098E+02  0.9157E+01
     -2.792  0.8917E+02  0.1127E+02
     -2.768  0.8129E+02  0.1319E+02
     -2.744  0.3033E+02  0.1391E+02
     -2.721  0.1162E+02  0.1419E+02
     -2.697  0.4502E+02  0.1525E+02
     -2.673  0.1087E+03  0.1782E+02
     -2.650  0.1143E+03  0.2053E+02
     -2.626  0.5266E+02  0.2178E+02
     -2.602  0.1988E+02  0.2225E+02
     -2.579  0.5845E+02  0.2363E+02
     -2.555  0.1382E+03  0.2690E+02
     -2.531  0.1635E+03  0.3077E+02
     -2.508  0.1019E+03  0.3319E+02
     -2.484  0.3246E+02  0.3396E+02
     -2.460  0.2320E+02  0.3450E+02
     -2.437  0.6965E+02  0.3615E+02
     -2.413  0.9602E+02  0.3843E+02
     -2.389  0.5371E+02  0.3970E+02
     -2.366  0.1663E+02  0.4009E+02
     -2.342  0.3749E+02  0.4098E+02
     -2.318  0.1168E+03  0.4375E+02
     -2.295  0.1722E+03  0.4782E+02
     -2.271  0.1258E+03  0.5080E+02
     -2.247  0.5248E+02  0.5204E+02
     -2.224  0.5771E+02  0.5341E+02
     -2.200  0.1451E+03  0.5684E+02
     -2.176  0.2196E+03  0.6204E+02
     -2.153  0.1986E+03  0.6675E+02
     -2.129  0.1062E+03  0.6926E+02
     -2.105  0.3521E+02  0.7009E+02
     -2.082  0.4037E+02  0.7105E+02
     -2.058  0.8345E+02  0.7303E+02
     -2.034  0.8342E+02  0.7500E+02
     -2.011  0.3835E+02  0.7591E+02
     -1.987  0.2953E+02  0.7661E+02
     -1.963  0.9504E+02  0.7886E+02
     -1.940  0.1772E+03  0.8305E+02
     -1.916  0.1742E+03  0.8718E+02
     -1.892  0.9489E+02  0.8942E+02
     -1.869  0.4740E+02  0.9054E+02
     -1.845  0.9920E+02  0.9289E+02
     -1.821  0.1933E+03  0.9747E+02
     -1.798  0.2183E+03  0.1026E+03
     -1.774  0.1528E+03  0.1063E+03
     -1.750  0.6621E+02  0.1078E+03
     -1.726  0.4643E+02  0.1089E+03
     -1.703  0.1089E+03  0.1115E+03
     -1.679  0.1634E+03  0.1154E+03
     -1.655  0.1316E+03  0.1185E+03
     -1.632  0.6806E+02  0.1201E+03
     -1.608  0.8850E+02  0.1222E+03
     -1.584  0.1878E+03  0.1266E+03
     -1.561  0.2297E+03  0.1321E+03
     -1.537  0.1668E+03  0.1360E+03
     -1.513  0.7617E+02  0.1378E+03
     -1.490  0.6222E+02  0.1393E+03
     -1.466  0.1455E+03  0.1427E+03
     -1.442  0.2190E+03  0.1479E+03
     -1.419  0.2003E+03  0.1527E+03
     -1.395  0.1109E+03  0.1553E+03
     -1.371  0.5282E+02  0.1565E+03
     -1.348  0.8738E+02  0.1586E+03
     -1.324  0.1495E+03  0.1622E+03
     -1.300  0.1471E+03  0.1656E+03
     -1.277  0.8326E+02  0.1676E+03
     -1.253  0.5811E+02  0.1690E+03
     -1.229  0.1095E+03  0.1716E+03
     -1.206  0.1477E+03  0.1751E+03
     -1.182  0.1306E+03  0.1782E+03
     -1.158  0.7685E+02  0.1800E+03
     -1.135  0.8659E+02  0.1820E+03
     -1.111  0.1900E+03  0.1865E+03
     -1.087  0.2856E+03  0.1933E+03
     -1.064  0.3072E+03  0.2006E+03
     -1.040  0.2380E+03  0.2062E+03
     -1.016  0.1398E+03  0.2095E+03
     -0.993  0.1215E+03  0.2124E+03
     -0.969  0.1981E+03  0.2171E+03
     -0.945  0.2265E+03  0.2224E+03
     -0.922  0.1615E+03  0.2263E+03
     -0.898  0.8518E+02  0.2283E+03
     -0.874  0.7027E+02  0.2300E+03
     -0.851  0.1186E+03  0.2328E+03
     -0.827  0.1766E+03  0.2369E+03
     -0.803  0.1614E+03  0.2408E+03
     -0.780  0.1373E+03  0.2440E+03
     -0.756  0.1867E+03  0.2484E+03
     -0.732  0.2344E+03  0.2540E+03
     -0.708  0.2276E+03  0.2594E+03
     -0.685  0.1708E+03  0.2634E+03
     -0.661  0.8821E+02  0.2655E+03
     -0.637  0.4336E+02  0.2665E+03
     -0.614  0.6412E+02  0.2680E+03
     -0.590  0.8683E+02  0.2701E+03
     -0.566  0.7249E+02  0.2718E+03
     -0.543  0.9071E+02  0.2740E+03
     -0.519  0.1806E+03  0.2782E+03
     -0.495  0.2531E+03  0.2842E+03
     -0.472  0.2784E+03  0.2908E+03
     -0.448  0.2721E+03  0.2973E+03
     -0.424  0.2487E+03  0.3031E+03
     -0.401  0.2158E+03  0.3083E+03
     -0.377  0.2032E+03  0.3131E+03
     -0.353  0.2423E+03  0.3188E+03
     -0.330  0.2751E+03  0.3253E+03
     -0.306  0.2401E+03  0.3310E+03
     -0.282  0.1587E+03  0.3348E+03
     -0.259  0.1089E+03  0.3373E+03
     -0.235  0.1134E+03  0.3400E+03
     -0.211  0.1443E+03  0.3434E+03
     -0.188  0.1610E+03  0.3472E+03
     -0.164  0.1787E+03  0.3515E+03
     -0.140  0.1728E+03  0.3556E+03
     -0.117  0.1574E+03  0.3593E+03
     -0.093  0.1649E+03  0.3632E+03
     -0.069  0.1766E+03  0.3674E+03
     -0.046  0.1882E+03  0.3718E+03
     -0.022  0.2205E+03  0.3771E+03
      0.002  0.2530E+03  0.3830E+03
      0.025  0.2630E+03  0.3893E+03
      0.049  0.2373E+03  0.3949E+03
      0.073  0.2093E+03  0.3998E+03
      0.096  0.2189E+03  0.4050E+03
      0.120  0.2145E+03  0.4101E+03
      0.144  0.1639E+03  0.4140E+03
      0.167  0.1097E+03  0.4166E+03
      0.191  0.1321E+03  0.4197E+03
      0.215  0.2039E+03  0.4245E+03
      0.239  0.2471E+03  0.4304E+03
      0.262  0.2481E+03  0.4363E+03
      0.286  0.2305E+03  0.4417E+03
      0.310  0.2117E+03  0.4467E+03
      0.333  0.2007E+03  0.4515E+03
      0.357  0.2002E+03  0.4562E+03
      0.381  0.2011E+03  0.4610E+03
      0.404  0.2010E+03  0.4657E+03
      0.428  0.2065E+03  0.4706E+03
      0.452  0.2226E+03  0.4759E+03
      0.475  0.2384E+03  0.4816E+03
      0.499  0.2436E+03  0.4873E+03
      0.523  0.2426E+03  0.4931E+03
      0.546  0.2371E+03  0.4987E+03
      0.570  0.2335E+03  0.5042E+03
      0.594  0.2361E+03  0.5098E+03
      0.617  0.2401E+03  0.5155E+03
      0.641  0.2317E+03  0.5210E+03
      0.665  0.2203E+03  0.5262E+03
      0.688  0.2395E+03  0.5318E+03
      0.712  0.2655E+03  0.5381E+03
      0.736  0.2843E+03  0.5449E+03
      0.759  0.3005E+03  0.5520E+03
      0.783  0.2988E+03  0.5591E+03
      0.807  0.2895E+03  0.5659E+03
      0.830  0.2876E+03  0.5727E+03
      0.854  0.2791E+03  0.5793E+03
      0.878  0.2608E+03  0.5855E+03
      0.901  0.2426E+03  0.5912E+03
      0.925  0.2283E+03  0.5966E+03
      0.949  0.2268E+03  0.6020E+03
      0.972  0.2212E+03  0.6073E+03
      0.996  0.1935E+03  0.6118E+03
      1.020  0.1465E+03  0.6153E+03
      1.043  0.1254E+03  0.6183E+03
      1.067  0.1400E+03  0.6216E+03
      1.091  0.1557E+03  0.6253E+03
      1.114  0.1774E+03  0.6295E+03
      1.138  0.1781E+03  0.6337E+03
      1.162  0.1783E+03  0.6379E+03
      1.185  0.2054E+03  0.6428E+03
      1.209  0.2323E+03  0.6483E+03
      1.233  0.2362E+03  0.6539E+03
      1.257  0.2280E+03  0.6593E+03
      1.280  0.2333E+03  0.6648E+03
      1.304  0.2506E+03  0.6707E+03
      1.328  0.2569E+03  0.6768E+03
      1.351  0.2480E+03  0.6827E+03
      1.375  0.2499E+03  0.6886E+03
      1.399  0.2491E+03  0.6945E+03
      1.422  0.2463E+03  0.7003E+03
      1.446  0.2416E+03  0.7060E+03
      1.470  0.2194E+03  0.7112E+03
      1.493  0.1965E+03  0.7159E+03
      1.517  0.1940E+03  0.7205E+03
      1.541  0.1934E+03  0.7251E+03
      1.564  0.1954E+03  0.7297E+03
      1.588  0.1984E+03  0.7344E+03
      1.612  0.1969E+03  0.7390E+03
      1.635  0.1990E+03  0.7438E+03
      1.659  0.2050E+03  0.7486E+03
      1.683  0.2074E+03  0.7535E+03
      1.706  0.1974E+03  0.7582E+03
      1.730  0.1835E+03  0.7625E+03
      1.754  0.1766E+03  0.7667E+03
      1.777  0.1564E+03  0.7704E+03
      1.801  0.1403E+03  0.7737E+03
      1.825  0.1429E+03  0.7771E+03
      1.848  0.1534E+03  0.7807E+03
      1.872  0.1529E+03  0.7844E+03
      1.896  0.1387E+03  0.7877E+03
      1.919  0.1420E+03  0.7910E+03
      1.943  0.1482E+03  0.7945E+03
      1.967  0.1537E+03  0.7982E+03
      1.990  0.1717E+03  0.8022E+03
      2.014  0.1823E+03  0.8065E+03
      2.038  0.1924E+03  0.8111E+03
      2.061  0.2046E+03  0.8159E+03
      2.085  0.2067E+03  0.8208E+03
      2.109  0.2094E+03  0.8258E+03
      2.132  0.2134E+03  0.8308E+03
      2.156  0.2165E+03  0.8360E+03
      2.180  0.2165E+03  0.8411E+03
      2.204  0.2008E+03  0.8458E+03
      2.227  0.1836E+03  0.8502E+03
      2.251  0.1680E+03  0.8542E+03
      2.275  0.1565E+03  0.8579E+03
      2.298  0.1595E+03  0.8617E+03
      2.322  0.1553E+03  0.8653E+03
      2.346  0.1320E+03  0.8685E+03
      2.369  0.1208E+03  0.8713E+03
      2.393  0.1236E+03  0.8742E+03
      2.417  0.1375E+03  0.8775E+03
      2.440  0.1497E+03  0.8810E+03
      2.464  0.1439E+03  0.8844E+03
      2.488  0.1356E+03  0.8877E+03
      2.511  0.1458E+03  0.8911E+03
      2.535  0.1621E+03  0.8949E+03
      2.559  0.1520E+03  0.8985E+03
      2.582  0.1289E+03  0.9016E+03
      2.606  0.1337E+03  0.9048E+03
      2.630  0.1391E+03  0.9081E+03
      2.653  0.1254E+03  0.9110E+03
      2.677  0.1156E+03  0.9138E+03
      2.701  0.1226E+03  0.9167E+03
      2.724  0.1451E+03  0.9201E+03
      2.748  0.1563E+03  0.9238E+03
      2.772  0.1595E+03  0.9276E+03
      2.795  0.1626E+03  0.9314E+03
      2.819  0.1641E+03  0.9353E+03
      2.843  0.1552E+03  0.9390E+03
      2.866  0.1380E+03  0.9423E+03
      2.890  0.1103E+03  0.9449E+03
      2.914  0.9162E+02  0.9470E+03
      2.937  0.1049E+03  0.9495E+03
      2.961  0.1231E+03  0.9524E+03
      2.985  0.1306E+03  0.9555E+03
      3.008  0.1400E+03  0.9588E+03
      3.032  0.1490E+03  0.9624E+03
      3.056  0.1532E+03  0.9660E+03
      3.079  0.1587E+03  0.9698E+03
      3.103  0.1529E+03  0.9734E+03
      3.127  0.1479E+03  0.9769E+03
      3.150  0.1444E+03  0.9803E+03
      3.174  0.1327E+03  0.9834E+03
      3.198  0.1073E+03  0.9860E+03
      3.222  0.6384E+02  0.9875E+03
      3.245  0.1985E+02  0.9880E+03
      3.269  0.8967E+01  0.9882E+03
      3.293  0.2973E+02  0.9889E+03
      3.316  0.5989E+02  0.9903E+03
      3.340  0.8533E+02  0.9923E+03
      3.364  0.1073E+03  0.9949E+03
      3.387  0.1132E+03  0.9975E+03
      3.411  0.9954E+02  0.9999E+03
      3.435  0.6477E+02  0.1001E+04
      3.458  0.2149E+02  0.1002E+04
      3.482  0.2761E+01  0.1002E+04
      3.506  0.1212E+00  0.1002E+04
      3.529  0.1707E-02  0.1002E+04
      3.553  0.7432E-05  0.1002E+04
      3.577  0.9782E-08  0.1002E+04
      3.600  0.3834E-11  0.1002E+04
      3.624  0.0000E+00  0.1002E+04
      3.648  0.0000E+00  0.1002E+04
      3.671  0.0000E+00  0.1002E+04
      3.695  0.0000E+00  0.1002E+04
      3.719  0.0000E+00  0.1002E+04
      3.742  0.0000E+00  0.1002E+04
