 running on   64 total cores
 distrk:  each k-point on   32 cores,    2 groups
 distr:  one band on   32 cores,    1 groups
 vasp.6.2.1 16May21 (build Nov 23 2021 15:40:41) complex                        
  
 POSCAR found type information on POSCAR Li
 POSCAR found :  1 types and     500 ions
 scaLAPACK will be used
 -----------------------------------------------------------------------------
|                                                                             |
|           W    W    AA    RRRRR   N    N  II  N    N   GGGG   !!!           |
|           W    W   A  A   R    R  NN   N  II  NN   N  G    G  !!!           |
|           W    W  A    A  R    R  N N  N  II  N N  N  G       !!!           |
|           W WW W  AAAAAA  RRRRR   N  N N  II  N  N N  G  GGG   !            |
|           WW  WW  A    A  R   R   N   NN  II  N   NN  G    G                |
|           W    W  A    A  R    R  N    N  II  N    N   GGGG   !!!           |
|                                                                             |
|     For optimal performance we recommend to set                             |
|       NCORE = 2 up to number-of-cores-per-socket                            |
|     NCORE specifies how many cores store one orbital (NPAR=cpu/NCORE).      |
|     This setting can greatly improve the performance of VASP for DFT.       |
|     The default, NCORE=1 might be grossly inefficient on modern             |
|     multi-core architectures or massively parallel machines. Do your        |
|     own testing! More info at https://www.vasp.at/wiki/index.php/NCORE      |
|     Unfortunately you need to use the default for GW and RPA                |
|     calculations (for HF NCORE is supported but not extensively tested      |
|     yet).                                                                   |
|                                                                             |
 -----------------------------------------------------------------------------

 -----------------------------------------------------------------------------
|                                                                             |
|               ----> ADVICE to this user running VASP <----                  |
|                                                                             |
|     You have a (more or less) 'large supercell' and for larger cells it     |
|     might be more efficient to use real-space projection operators.         |
|     Therefore, try LREAL= Auto in the INCAR file.                           |
|     Mind: If you want to do very accurate calculations, keep the            |
|     reciprocal projection scheme (i.e. LREAL=.FALSE.).                      |
|                                                                             |
 -----------------------------------------------------------------------------

 LDA part: xc-table for Pade appr. of Perdew
 POSCAR found type information on POSCAR Li
 POSCAR found :  1 types and     500 ions
 POSCAR, INCAR and KPOINTS ok, starting setup
 FFT: planning ...
 WAVECAR not read
 entering main loop
       N       E                     dE             d eps       ncg     rms          rms(c)
DAV:   1    -0.257752159349E+03   -0.25775E+03   -0.12348E+05  4008   0.662E+02
DAV:   2    -0.876176541808E+03   -0.61842E+03   -0.56562E+03  4596   0.689E+01
DAV:   3    -0.920114869083E+03   -0.43938E+02   -0.40060E+02  5184   0.145E+01
DAV:   4    -0.921576637041E+03   -0.14618E+01   -0.14396E+01  4664   0.290E+00
DAV:   5    -0.921610953848E+03   -0.34317E-01   -0.34253E-01  4848   0.466E-01    0.102E+01
DAV:   6    -0.916642877152E+03    0.49681E+01   -0.13638E+01  4584   0.517E+00    0.820E+00
DAV:   7    -0.910436377076E+03    0.62065E+01   -0.10635E+01  4712   0.484E+00    0.558E+00
DAV:   8    -0.906544048189E+03    0.38923E+01   -0.50455E+00  4696   0.275E+00    0.288E+00
DAV:   9    -0.905876796575E+03    0.66725E+00   -0.29959E+00  4480   0.143E+00    0.143E+00
DAV:  10    -0.906028148490E+03   -0.15135E+00   -0.73192E-01  4736   0.883E-01    0.142E+00
DAV:  11    -0.905796588639E+03    0.23156E+00   -0.35529E-01  4592   0.645E-01    0.633E-01
DAV:  12    -0.905789875395E+03    0.67132E-02   -0.82058E-02  4520   0.258E-01    0.376E-01
DAV:  13    -0.905786713603E+03    0.31618E-02   -0.33026E-02  4672   0.204E-01    0.283E-01
DAV:  14    -0.905780288896E+03    0.64247E-02   -0.10525E-02  4560   0.120E-01    0.135E-01
DAV:  15    -0.905779479631E+03    0.80927E-03   -0.33159E-03  4544   0.618E-02    0.753E-02
DAV:  16    -0.905779602085E+03   -0.12245E-03   -0.13587E-03  4784   0.451E-02    0.678E-02
DAV:  17    -0.905779055627E+03    0.54646E-03   -0.70207E-04  4608   0.292E-02    0.203E-02
DAV:  18    -0.905779040740E+03    0.14887E-04   -0.24934E-04  4376   0.129E-02    0.117E-02
DAV:  19    -0.905779032659E+03    0.80808E-05   -0.43806E-05  3912   0.694E-03
   1 F= -.90577903E+03 E0= -.90572654E+03  d E =-.104994E+00
