Li                                      
           1
    21.217000    0.000000    0.000000
     0.000000   21.217000    0.000000
    -0.000000   -0.000000   21.217000
   Li
   500
Direct configuration=     1
   0.99120935  0.99302831  0.00828332
   0.98366013  0.07884157  0.10338982
   0.00899218  0.18108069  0.19888383
   0.00308493  0.29184652  0.31419624
   0.98586272  0.38422543  0.40988034
   0.01082942  0.49916039  0.50180960
   0.01359518  0.61741446  0.59966366
   0.99672815  0.71597597  0.66978462
   0.98973181  0.80021650  0.78569836
   0.99839561  0.90900595  0.90547349
   0.08197623  0.00623081  0.10436588
   0.11163984  0.10553233  0.20581774
   0.11522519  0.18082386  0.29842426
   0.10145293  0.28563358  0.40547971
   0.09485750  0.40941441  0.50086723
   0.10961294  0.49422393  0.60354997
   0.09758859  0.58281524  0.71713471
   0.07631838  0.70014482  0.79927400
   0.09355427  0.82214541  0.88998168
   0.08991008  0.92504956  0.00934623
   0.18865584  0.00625683  0.18852266
   0.21731022  0.09227432  0.30612821
   0.22336592  0.21035931  0.39459911
   0.19749083  0.31036363  0.50721745
   0.19915679  0.40874229  0.59849898
   0.23072416  0.47436782  0.70323308
   0.20881444  0.57447006  0.77632098
   0.19259611  0.69365416  0.88875497
   0.18996673  0.79641335  0.98553691
   0.16561038  0.89211948  0.08725277
   0.30878587  0.97072881  0.29635266
   0.31365940  0.09346806  0.41331299
   0.32411878  0.20678189  0.49496919
   0.31640794  0.32385067  0.58565381
   0.29940157  0.39250876  0.69092963
   0.29018943  0.46870885  0.78752407
   0.28981643  0.58878472  0.89875309
   0.32435450  0.69589751  0.99173885
   0.30032520  0.79345572  0.07741316
   0.30167042  0.88755953  0.16830590
   0.40201217  0.00691261  0.38146658
   0.41001378  0.09395476  0.51905949
   0.40844498  0.20797516  0.62022963
   0.38101508  0.30723959  0.72074199
   0.42732564  0.38320739  0.79343481
   0.39121311  0.50392123  0.88760610
   0.37967099  0.58348016  0.02887791
   0.40001293  0.67209302  0.12163178
   0.40413792  0.77680507  0.20221624
   0.41300448  0.89417650  0.27320801
   0.49233072  0.99227071  0.49577585
   0.50253069  0.10275496  0.61255777
   0.48781359  0.21230797  0.71901924
   0.51123101  0.28552374  0.81257248
   0.50344495  0.41790225  0.89094230
   0.49359452  0.49780643  0.98967863
   0.51800865  0.59961024  0.12127203
   0.51286998  0.69000230  0.18044391
   0.50443031  0.78871623  0.28908508
   0.50969866  0.91325805  0.36560052
   0.57583156  0.01246782  0.60130909
   0.59774239  0.07716364  0.73084699
   0.60089688  0.19739628  0.81967692
   0.59721916  0.30825781  0.90444620
   0.62705846  0.40483648  0.98648575
   0.61414016  0.48230073  0.09703024
   0.61326518  0.60290731  0.17982226
   0.60485460  0.69272640  0.29542366
   0.60101820  0.80215230  0.39661599
   0.58592998  0.88805896  0.50168336
   0.71135353  0.01726446  0.70501890
   0.69412592  0.09532378  0.79564388
   0.69078114  0.19170895  0.88697549
   0.71962737  0.31485156  0.98511736
   0.72235593  0.39556880  0.10674534
   0.72595334  0.49589639  0.20847726
   0.71400823  0.58839310  0.30474414
   0.70201389  0.70604086  0.40991203
   0.69724895  0.81671337  0.50343101
   0.69162778  0.89705394  0.62491049
   0.80980125  0.00958158  0.79296082
   0.79933428  0.09441617  0.89468926
   0.79220965  0.19351139  0.98245113
   0.79630724  0.30515112  0.11342335
   0.80707412  0.38436888  0.20549563
   0.82543382  0.52367885  0.29160640
   0.80811641  0.62618992  0.41901096
   0.80025190  0.72584292  0.49996246
   0.79898091  0.80690531  0.59485653
   0.80540122  0.90294341  0.68285966
   0.89498541  0.99369019  0.91063433
   0.90864439  0.11019154  0.99228551
   0.89072457  0.21124077  0.10688447
   0.91693712  0.29842925  0.20456071
   0.90208193  0.40064443  0.28857200
   0.90900261  0.50159410  0.41032357
   0.91084138  0.60232995  0.50226831
   0.89347530  0.70243354  0.57560926
   0.89015648  0.80157397  0.69749322
   0.89829234  0.90273071  0.80017437
   0.07183359  0.09625265  0.98408031
   0.09923102  0.18694998  0.12278276
   0.09466992  0.31160078  0.20401014
   0.07523415  0.40464896  0.31117644
   0.09192483  0.50808812  0.40657817
   0.11433119  0.59146886  0.50861588
   0.10408940  0.70188780  0.60759877
   0.10031434  0.80530634  0.69905070
   0.09297962  0.90592926  0.79751956
   0.09250143  0.98709537  0.88803519
   0.18196856  0.10847867  0.08676124
   0.19819214  0.20764977  0.21560987
   0.19748504  0.30905374  0.30999895
   0.19222322  0.37572041  0.41508736
   0.22806095  0.48216234  0.50376290
   0.20995878  0.59779270  0.63369959
   0.20029782  0.68971499  0.71831071
   0.20161301  0.79914958  0.82220986
   0.19751183  0.91424604  0.89624656
   0.16797647  0.00029456  0.99406530
   0.28971862  0.09791777  0.19540701
   0.33070706  0.19000937  0.30386892
   0.30473605  0.31248425  0.40520692
   0.30325934  0.40008676  0.50407784
   0.30120348  0.51557541  0.60125934
   0.32665066  0.60305665  0.72426967
   0.30897851  0.71342249  0.81707549
   0.30591302  0.80254695  0.91890573
   0.29316375  0.91031829  0.00959024
   0.29413500  0.01116275  0.09086960
   0.38120535  0.09116642  0.28962628
   0.39924775  0.19168271  0.39236461
   0.40948490  0.30848229  0.50347938
   0.41352553  0.41462102  0.60433477
   0.41285903  0.50202273  0.72064298
   0.40486531  0.59111215  0.81081638
   0.42005929  0.68039565  0.90718917
   0.42115864  0.79476836  0.00879599
   0.41136391  0.89624634  0.08685076
   0.39060588  0.98556626  0.19799935
   0.49362283  0.09819212  0.38640670
   0.50694755  0.17403014  0.48819926
   0.49565069  0.28745305  0.60406133
   0.49982240  0.38165696  0.71191491
   0.49494685  0.51146675  0.78937726
   0.51425101  0.58918411  0.88870018
   0.50862413  0.66590128  0.00742628
   0.52459999  0.78307044  0.09740776
   0.51435452  0.87532610  0.17838786
   0.50267842  0.98100529  0.27030420
   0.57866759  0.09891828  0.49525201
   0.58101397  0.18906427  0.60500863
   0.58224107  0.29817783  0.69772109
   0.60418436  0.40654418  0.80223490
   0.61143109  0.50158653  0.89271700
   0.60930815  0.59103177  0.99200095
   0.62286106  0.68680935  0.08470875
   0.61758373  0.78882417  0.17111210
   0.60679271  0.89285350  0.26997789
   0.59497052  0.99564408  0.38831758
   0.68440929  0.09953330  0.59863937
   0.68764671  0.20731875  0.70019356
   0.68682258  0.29163537  0.79178223
   0.69698841  0.41414403  0.88916535
   0.70990705  0.50725431  0.00300424
   0.71732674  0.58411808  0.10945417
   0.72417833  0.70219022  0.19921420
   0.70564451  0.79067166  0.29698876
   0.68269889  0.91239242  0.38925877
   0.67303176  0.00083947  0.50706331
   0.79331971  0.11175150  0.69424513
   0.78978063  0.18710790  0.78820400
   0.79219677  0.28746145  0.89173297
   0.80286413  0.40271670  0.00651806
   0.82631304  0.49573410  0.11544629
   0.81698719  0.60162531  0.20786395
   0.81583411  0.69915731  0.30589278
   0.79435730  0.81104104  0.40423623
   0.78792500  0.90968348  0.49774197
   0.79497385  0.00991875  0.60364856
   0.91062765  0.10463941  0.79614414
   0.93907686  0.20778250  0.89653025
   0.88547648  0.29612364  0.99062448
   0.91752729  0.39061526  0.08956678
   0.90188363  0.52926112  0.20441231
   0.91016205  0.61898157  0.32521896
   0.90021675  0.70735897  0.43583099
   0.90806148  0.81159608  0.49621227
   0.89825387  0.90936272  0.58876338
   0.90835333  0.99798818  0.70791253
   0.00997976  0.09476244  0.89755155
   0.00243001  0.20049462  0.00645381
   0.00795383  0.29997940  0.10367146
   0.00288347  0.42445447  0.19828202
   0.97551210  0.51358899  0.30669187
   0.01527238  0.61878344  0.42424591
   0.01554784  0.70853828  0.51866856
   0.00221285  0.82591667  0.59175657
   0.98429368  0.89913815  0.69092104
   0.00359968  0.00328944  0.79915780
   0.19369512  0.19764774  0.99051319
   0.19404834  0.29747057  0.11848281
   0.19636197  0.41604547  0.19390248
   0.19436366  0.49878058  0.31426346
   0.20110685  0.60254773  0.40622936
   0.19490155  0.70303789  0.50116465
   0.20217071  0.79306128  0.57853707
   0.20346688  0.91163106  0.70202190
   0.18997776  0.99430178  0.79575176
   0.18536319  0.12703778  0.89877692
   0.30825689  0.19550507  0.11147257
   0.29364980  0.30482308  0.20936982
   0.29769007  0.40165900  0.31353722
   0.29926736  0.49765542  0.39561072
   0.28996908  0.61199552  0.51226314
   0.30439209  0.70605898  0.61789579
   0.27975861  0.82123845  0.71380896
   0.29124348  0.89779757  0.81101038
   0.29074752  0.01324629  0.90647791
   0.30922476  0.09969805  0.01390365
   0.41137972  0.22010773  0.21455260
   0.40222579  0.30862326  0.28571963
   0.40251794  0.40663972  0.40584248
   0.38056574  0.49774261  0.50361997
   0.37759170  0.60482998  0.59085964
   0.39816082  0.72171117  0.70371305
   0.39036430  0.82710582  0.81795607
   0.38375797  0.90522382  0.91569163
   0.40242387  0.01087652  0.99272475
   0.40397072  0.09628663  0.10227386
   0.48116369  0.21917603  0.29536490
   0.49378367  0.31067330  0.41335517
   0.49939513  0.41797620  0.49342199
   0.49845447  0.50179818  0.61670664
   0.48679987  0.60094987  0.70311209
   0.49612518  0.70059974  0.80804387
   0.51320976  0.78938131  0.91166069
   0.51567899  0.89894031  0.99583778
   0.51636289  0.98823469  0.10981535
   0.48598580  0.09488995  0.21177606
   0.59771266  0.21694158  0.38808757
   0.58801182  0.30714424  0.51448649
   0.60199881  0.39622416  0.60731332
   0.60420507  0.49666124  0.69246753
   0.60969505  0.61192988  0.79649594
   0.60221379  0.69177237  0.91726635
   0.61669799  0.81023475  0.00788819
   0.62214035  0.89320984  0.09923597
   0.62020293  0.01160052  0.18187036
   0.58998660  0.12658913  0.28648431
   0.68691632  0.20490345  0.50198760
   0.70252161  0.29547944  0.60443392
   0.69442362  0.40501686  0.70525684
   0.70459832  0.53917952  0.78156353
   0.71195088  0.61050708  0.89914208
   0.70991847  0.67994775  0.00679050
   0.72788040  0.79481983  0.09151655
   0.70818907  0.90091421  0.17662084
   0.68638601  0.00964159  0.28361996
   0.65810392  0.09130374  0.41340310
   0.79498018  0.19367552  0.60338293
   0.80499784  0.27626128  0.70672301
   0.80751630  0.39822104  0.79235970
   0.77557698  0.50465261  0.89203402
   0.80531987  0.59243845  0.00833665
   0.80652565  0.70542887  0.10646096
   0.81199630  0.79380114  0.18477167
   0.80525016  0.91314233  0.28866234
   0.80205014  0.98906413  0.38555785
   0.76243636  0.09651788  0.48030741
   0.89600647  0.19650619  0.68784414
   0.90419718  0.29998017  0.79973958
   0.87329318  0.40983014  0.88853633
   0.90524311  0.50008171  0.01087474
   0.91128443  0.62033999  0.09214380
   0.90520724  0.69754195  0.21577418
   0.90535897  0.77257617  0.31225040
   0.88726745  0.89176777  0.39449545
   0.89130121  0.99799330  0.48333022
   0.89689384  0.07611115  0.59612389
   0.00275049  0.20495947  0.77868931
   0.99196265  0.31880215  0.89783555
   0.99754287  0.39804075  0.99991538
   0.00876873  0.51801377  0.07918629
   0.99731239  0.59143766  0.19835037
   0.01165985  0.69292263  0.31693889
   0.01672905  0.81448690  0.40897059
   0.00079767  0.90901634  0.47903346
   0.99594328  0.97776647  0.60058155
   0.99161253  0.09939632  0.68992574
   0.07041748  0.20774832  0.88319786
   0.10310884  0.28058774  0.98781873
   0.09895201  0.40671621  0.07126124
   0.07763553  0.50100999  0.21115157
   0.08917072  0.61891171  0.30658815
   0.10983061  0.71435477  0.39649680
   0.10339836  0.80728658  0.49286332
   0.09423828  0.91590808  0.57575818
   0.09834415  0.98957278  0.69699490
   0.08258299  0.08725843  0.78010382
   0.29127682  0.29350508  0.01892028
   0.28034012  0.40375155  0.10220191
   0.28554752  0.50640268  0.21434250
   0.27867806  0.60464366  0.30732394
   0.30664360  0.70783210  0.37999716
   0.30682347  0.78689398  0.47976463
   0.30783358  0.89198249  0.60183123
   0.32179923  0.99747563  0.71859800
   0.29954054  0.11869582  0.80109280
   0.30869727  0.19835684  0.90063882
   0.38164079  0.32475126  0.10163428
   0.38033693  0.40486863  0.20117702
   0.39052185  0.49452379  0.32769196
   0.38455525  0.62408338  0.41447641
   0.37493764  0.69949512  0.51581631
   0.36498379  0.81144804  0.60017751
   0.40051736  0.89481805  0.71020121
   0.39078967  0.00093641  0.83344236
   0.39726119  0.09447822  0.91398915
   0.41117825  0.20336498  0.98666696
   0.51124484  0.31627409  0.19729862
   0.51821979  0.39736458  0.29960918
   0.50154780  0.50415096  0.39228982
   0.48295102  0.60553338  0.49806227
   0.48330121  0.71766103  0.59969014
   0.49737270  0.79000152  0.71386398
   0.50460236  0.90062192  0.79333006
   0.49962623  0.98780558  0.90447861
   0.50044984  0.07676233  0.00031352
   0.47676048  0.21692020  0.10638329
   0.58414209  0.31565236  0.31113826
   0.62207308  0.40972428  0.40362797
   0.60896296  0.48480499  0.51531227
   0.59169596  0.59640706  0.60369342
   0.58877698  0.69946155  0.69729694
   0.60575942  0.79465738  0.82472402
   0.60802327  0.89823242  0.89736457
   0.61716675  0.99874733  0.00523139
   0.61115775  0.12559192  0.08716461
   0.58292048  0.21270179  0.19736900
   0.69137913  0.29729731  0.41579225
   0.71497490  0.39830363  0.53558496
   0.71019195  0.49958240  0.59621958
   0.70327292  0.61098548  0.68573407
   0.71002507  0.68798498  0.79773958
   0.69835953  0.79329780  0.91035544
   0.70606822  0.90409950  0.99628378
   0.73048070  0.01350763  0.09942490
   0.69400681  0.11376815  0.18411348
   0.67254572  0.17949433  0.30807398
   0.79184202  0.28916949  0.47657270
   0.80726328  0.38588924  0.61983253
   0.80292573  0.50759145  0.68389026
   0.81373757  0.59967502  0.79077829
   0.79913119  0.70334506  0.90071690
   0.77986068  0.79301809  0.00937127
   0.83133203  0.88517141  0.10035901
   0.80311218  0.00861679  0.19816968
   0.79359632  0.10031993  0.31235638
   0.77580207  0.18265196  0.37292628
   0.89250647  0.29304536  0.59854265
   0.89423954  0.39514285  0.72315409
   0.88762146  0.49905139  0.78755009
   0.89298134  0.59883247  0.88578900
   0.89878181  0.71081946  0.98784604
   0.88931042  0.79556351  0.09216016
   0.92411393  0.89162152  0.20772781
   0.91784984  0.99139613  0.29831623
   0.91839617  0.08036661  0.40478048
   0.89050437  0.17940509  0.46848825
   0.98329286  0.30296472  0.69563843
   0.98779876  0.40887746  0.77495745
   0.99742288  0.49495310  0.87738648
   0.98981549  0.60281039  0.98354774
   0.98089069  0.70102279  0.10557860
   0.00492843  0.78361840  0.19296325
   0.99471583  0.88656840  0.30750463
   0.00768029  0.99315342  0.39626993
   0.01288963  0.09988700  0.50549687
   0.00316074  0.19660358  0.58618527
   0.08473902  0.29521932  0.77788250
   0.09374505  0.38577954  0.89139588
   0.09579513  0.48638083  0.99707460
   0.08571843  0.59832565  0.09450606
   0.11868030  0.70105117  0.17354571
   0.09219380  0.79611922  0.29812423
   0.10978869  0.91306569  0.40147644
   0.11263188  0.99716011  0.49974550
   0.08655855  0.10178821  0.60906461
   0.10262958  0.21514042  0.69145789
   0.19268021  0.27181681  0.87682180
   0.20848423  0.38934008  0.97873206
   0.17099770  0.49781670  0.09163211
   0.19225274  0.59897939  0.19683276
   0.20151108  0.72574920  0.30667243
   0.18733052  0.79734937  0.40548508
   0.21852814  0.90330165  0.49640887
   0.20444672  0.01698936  0.60778468
   0.20324685  0.09465293  0.69149519
   0.18942904  0.19098967  0.79630256
   0.38973404  0.42653876  0.00759774
   0.38395200  0.50834698  0.11575102
   0.37343301  0.58457494  0.21234109
   0.40291175  0.70719834  0.29044171
   0.42895296  0.79877945  0.38687960
   0.41658653  0.89643641  0.48816292
   0.40863024  0.98759722  0.62370255
   0.39792517  0.11244862  0.72377749
   0.39074720  0.21220226  0.81496286
   0.38918701  0.31770235  0.90743515
   0.49303965  0.42631735  0.10958984
   0.48907756  0.49633127  0.21759078
   0.49830238  0.60852389  0.29900959
   0.48726447  0.70321859  0.42154770
   0.49990409  0.80960757  0.50451982
   0.49651989  0.90611309  0.59829193
   0.48631595  0.98444837  0.71734485
   0.49027532  0.10835910  0.81280368
   0.49486440  0.21170309  0.89013047
   0.49077231  0.32291204  0.00789830
   0.61659505  0.40123008  0.18575189
   0.59544007  0.50100123  0.27773244
   0.60133221  0.60363757  0.40938692
   0.60035785  0.69595101  0.50112831
   0.60446220  0.80485498  0.61551744
   0.58902905  0.89637084  0.70032377
   0.60050747  0.00531793  0.81057882
   0.60029730  0.09697995  0.90724920
   0.58552947  0.22171239  0.99412401
   0.59430580  0.31011971  0.06999104
   0.71873090  0.40218876  0.28655560
   0.70561943  0.49864586  0.40191819
   0.70054148  0.60667662  0.50826536
   0.69533494  0.71238769  0.59899648
   0.70392978  0.79086465  0.72275949
   0.70978543  0.90251997  0.80887458
   0.70622774  0.99613565  0.91520945
   0.70962673  0.11424785  0.99912080
   0.70755174  0.22123772  0.09863496
   0.70196500  0.28960319  0.21052336
   0.79620383  0.41926466  0.40110439
   0.80769032  0.52895038  0.49438220
   0.80628634  0.59989630  0.58286181
   0.78885582  0.69111795  0.70186564
   0.79762787  0.80377317  0.80390056
   0.82200153  0.88442744  0.90839141
   0.82321213  0.99967625  0.01362616
   0.78823539  0.12849408  0.11343633
   0.78708595  0.19560529  0.22918598
   0.80059125  0.29215971  0.31405700
   0.88638456  0.40259424  0.51742244
   0.90194545  0.49142023  0.60408610
   0.90438463  0.60632379  0.69017934
   0.90516729  0.70714904  0.80361066
   0.90278213  0.80665334  0.90895683
   0.90339215  0.90484514  0.01400625
   0.90604301  0.00652567  0.11577714
   0.89694813  0.10323754  0.20145629
   0.91524429  0.18596565  0.30380403
   0.89855872  0.28293784  0.40241012
   0.98425434  0.37034245  0.61270872
   0.99764217  0.49691519  0.69811179
   0.98745764  0.59772683  0.79618803
   0.00201913  0.72288338  0.88866102
   0.00386848  0.81180219  0.99226585
   0.00229836  0.90989584  0.11204824
   0.00756785  0.99966138  0.22476798
   0.00657531  0.08888791  0.30947703
   0.00815468  0.18365319  0.40646121
   0.99350994  0.29194304  0.50246262
   0.09862112  0.38647652  0.70534887
   0.10584649  0.47717052  0.79189521
   0.09455812  0.57802304  0.87614712
   0.07610879  0.69212530  0.98063802
   0.08688628  0.80420710  0.08191114
   0.09580943  0.90274367  0.21021216
   0.11835196  0.00179277  0.30018085
   0.11976559  0.10236423  0.38565626
   0.10148372  0.19577783  0.50669759
   0.10012570  0.28033375  0.60208990
   0.21438626  0.36835022  0.79333759
   0.20391671  0.47189759  0.88844396
   0.17988090  0.60067616  0.99403848
   0.19433863  0.71627417  0.07324180
   0.18319488  0.79168785  0.17104147
   0.21533289  0.88427253  0.28929096
   0.22097614  0.97915624  0.40160134
   0.19664847  0.08980319  0.48900189
   0.22306105  0.19917276  0.59045100
   0.20873231  0.30835164  0.69311152
   0.30031546  0.37428192  0.89525283
   0.29093142  0.48722924  0.00296540
   0.24879662  0.57639130  0.09732223
   0.27005340  0.69425096  0.19136609
   0.30232780  0.79309029  0.27380698
   0.32831359  0.86851660  0.39626125
   0.31236512  0.98373484  0.50669960
   0.30392851  0.08612054  0.58655668
   0.28805664  0.19199212  0.69661523
   0.30281086  0.30308227  0.80337237
