 500 500   0   0
  0.2349479E+02  0.2273250E-08  0.2273250E-08  0.2273250E-08  0.5000000E-15
  1.000000000000000E-004
  CAR 
 Li                                      
      2.82224525     -3.59406876  301      0.03685990      1.00000000
     -3.594  0.0000E+00  0.0000E+00
     -3.573  0.0000E+00  0.0000E+00
     -3.551  0.0000E+00  0.0000E+00
     -3.530  0.0000E+00  0.0000E+00
     -3.509  0.0000E+00  0.0000E+00
     -3.487  0.0000E+00  0.0000E+00
     -3.466  0.2595E-13  0.5551E-15
     -3.444  0.6287E-10  0.1345E-11
     -3.423  0.5565E-07  0.1192E-08
     -3.402  0.1824E-04  0.3913E-06
     -3.380  0.2228E-02  0.4805E-04
     -3.359  0.1024E+00  0.2238E-02
     -3.337  0.1790E+01  0.4051E-01
     -3.316  0.1205E+02  0.2982E+00
     -3.295  0.3162E+02  0.9744E+00
     -3.273  0.3257E+02  0.1671E+01
     -3.252  0.1337E+02  0.1957E+01
     -3.230  0.5515E+01  0.2075E+01
     -3.209  0.2474E+02  0.2604E+01
     -3.188  0.7494E+02  0.4207E+01
     -3.166  0.1001E+03  0.6348E+01
     -3.145  0.5970E+02  0.7625E+01
     -3.124  0.1718E+02  0.7992E+01
     -3.102  0.1575E+02  0.8329E+01
     -3.081  0.5680E+02  0.9544E+01
     -3.059  0.9999E+02  0.1168E+02
     -3.038  0.7781E+02  0.1335E+02
     -3.017  0.2817E+02  0.1395E+02
     -2.995  0.1894E+02  0.1435E+02
     -2.974  0.6103E+02  0.1566E+02
     -2.952  0.1173E+03  0.1817E+02
     -2.931  0.1132E+03  0.2059E+02
     -2.910  0.5501E+02  0.2177E+02
     -2.888  0.2697E+02  0.2234E+02
     -2.867  0.6685E+02  0.2377E+02
     -2.845  0.1440E+03  0.2685E+02
     -2.824  0.1733E+03  0.3056E+02
     -2.803  0.1148E+03  0.3301E+02
     -2.781  0.4188E+02  0.3391E+02
     -2.760  0.2566E+02  0.3446E+02
     -2.739  0.6374E+02  0.3582E+02
     -2.717  0.9640E+02  0.3788E+02
     -2.696  0.7088E+02  0.3940E+02
     -2.674  0.3020E+02  0.4005E+02
     -2.653  0.3876E+02  0.4087E+02
     -2.632  0.1050E+03  0.4312E+02
     -2.610  0.1717E+03  0.4679E+02
     -2.589  0.1554E+03  0.5012E+02
     -2.567  0.7726E+02  0.5177E+02
     -2.546  0.5296E+02  0.5290E+02
     -2.525  0.1190E+03  0.5545E+02
     -2.503  0.2057E+03  0.5985E+02
     -2.482  0.2296E+03  0.6476E+02
     -2.461  0.1640E+03  0.6826E+02
     -2.439  0.6919E+02  0.6974E+02
     -2.418  0.3391E+02  0.7047E+02
     -2.396  0.6791E+02  0.7192E+02
     -2.375  0.9886E+02  0.7404E+02
     -2.354  0.6837E+02  0.7550E+02
     -2.332  0.3005E+02  0.7614E+02
     -2.311  0.5307E+02  0.7728E+02
     -2.289  0.1394E+03  0.8026E+02
     -2.268  0.2059E+03  0.8466E+02
     -2.247  0.1661E+03  0.8821E+02
     -2.225  0.7753E+02  0.8987E+02
     -2.204  0.6161E+02  0.9119E+02
     -2.182  0.1350E+03  0.9408E+02
     -2.161  0.2175E+03  0.9873E+02
     -2.140  0.2285E+03  0.1036E+03
     -2.118  0.1470E+03  0.1068E+03
     -2.097  0.6006E+02  0.1080E+03
     -2.076  0.5934E+02  0.1093E+03
     -2.054  0.1308E+03  0.1121E+03
     -2.033  0.1797E+03  0.1160E+03
     -2.011  0.1344E+03  0.1188E+03
     -1.990  0.6948E+02  0.1203E+03
     -1.969  0.9782E+02  0.1224E+03
     -1.947  0.1942E+03  0.1266E+03
     -1.926  0.2396E+03  0.1317E+03
     -1.904  0.1862E+03  0.1357E+03
     -1.883  0.9477E+02  0.1377E+03
     -1.862  0.7124E+02  0.1392E+03
     -1.840  0.1469E+03  0.1424E+03
     -1.819  0.2280E+03  0.1472E+03
     -1.798  0.2207E+03  0.1520E+03
     -1.776  0.1362E+03  0.1549E+03
     -1.755  0.6557E+02  0.1563E+03
     -1.733  0.8320E+02  0.1581E+03
     -1.712  0.1521E+03  0.1613E+03
     -1.691  0.1697E+03  0.1649E+03
     -1.669  0.1092E+03  0.1673E+03
     -1.648  0.6037E+02  0.1686E+03
     -1.626  0.9182E+02  0.1705E+03
     -1.605  0.1489E+03  0.1737E+03
     -1.584  0.1535E+03  0.1770E+03
     -1.562  0.1044E+03  0.1792E+03
     -1.541  0.7809E+02  0.1809E+03
     -1.519  0.1524E+03  0.1842E+03
     -1.498  0.2792E+03  0.1901E+03
     -1.477  0.3468E+03  0.1975E+03
     -1.455  0.3113E+03  0.2042E+03
     -1.434  0.1954E+03  0.2084E+03
     -1.413  0.1080E+03  0.2107E+03
     -1.391  0.1507E+03  0.2139E+03
     -1.370  0.2425E+03  0.2191E+03
     -1.348  0.2346E+03  0.2241E+03
     -1.327  0.1360E+03  0.2270E+03
     -1.306  0.6833E+02  0.2285E+03
     -1.284  0.8712E+02  0.2304E+03
     -1.263  0.1559E+03  0.2337E+03
     -1.241  0.1966E+03  0.2379E+03
     -1.220  0.1562E+03  0.2412E+03
     -1.199  0.1306E+03  0.2440E+03
     -1.177  0.2007E+03  0.2483E+03
     -1.156  0.2747E+03  0.2542E+03
     -1.134  0.2630E+03  0.2598E+03
     -1.113  0.1820E+03  0.2637E+03
     -1.092  0.8906E+02  0.2656E+03
     -1.070  0.4921E+02  0.2667E+03
     -1.049  0.7180E+02  0.2682E+03
     -1.028  0.8906E+02  0.2701E+03
     -1.006  0.6981E+02  0.2716E+03
     -0.985  0.7439E+02  0.2732E+03
     -0.963  0.1632E+03  0.2767E+03
     -0.942  0.2792E+03  0.2827E+03
     -0.921  0.3357E+03  0.2898E+03
     -0.899  0.3174E+03  0.2966E+03
     -0.878  0.2595E+03  0.3022E+03
     -0.856  0.2187E+03  0.3068E+03
     -0.835  0.2233E+03  0.3116E+03
     -0.814  0.2744E+03  0.3175E+03
     -0.792  0.3108E+03  0.3241E+03
     -0.771  0.2591E+03  0.3297E+03
     -0.750  0.1757E+03  0.3334E+03
     -0.728  0.1341E+03  0.3363E+03
     -0.707  0.1216E+03  0.3389E+03
     -0.685  0.1305E+03  0.3417E+03
     -0.664  0.1345E+03  0.3446E+03
     -0.643  0.1624E+03  0.3480E+03
     -0.621  0.2142E+03  0.3526E+03
     -0.600  0.2265E+03  0.3575E+03
     -0.578  0.2087E+03  0.3619E+03
     -0.557  0.1737E+03  0.3656E+03
     -0.536  0.1305E+03  0.3684E+03
     -0.514  0.1600E+03  0.3719E+03
     -0.493  0.2509E+03  0.3772E+03
     -0.471  0.3186E+03  0.3840E+03
     -0.450  0.3202E+03  0.3909E+03
     -0.429  0.2518E+03  0.3963E+03
     -0.407  0.1946E+03  0.4004E+03
     -0.386  0.2041E+03  0.4048E+03
     -0.365  0.2163E+03  0.4094E+03
     -0.343  0.1795E+03  0.4133E+03
     -0.322  0.1232E+03  0.4159E+03
     -0.300  0.1228E+03  0.4185E+03
     -0.279  0.1912E+03  0.4226E+03
     -0.258  0.2675E+03  0.4283E+03
     -0.236  0.3050E+03  0.4349E+03
     -0.215  0.2815E+03  0.4409E+03
     -0.193  0.2272E+03  0.4457E+03
     -0.172  0.2207E+03  0.4505E+03
     -0.151  0.2516E+03  0.4558E+03
     -0.129  0.2420E+03  0.4610E+03
     -0.108  0.1725E+03  0.4647E+03
     -0.086  0.1263E+03  0.4674E+03
     -0.065  0.1827E+03  0.4713E+03
     -0.044  0.2759E+03  0.4772E+03
     -0.022  0.3176E+03  0.4840E+03
     -0.001  0.3006E+03  0.4904E+03
      0.020  0.2654E+03  0.4961E+03
      0.042  0.2338E+03  0.5011E+03
      0.063  0.2176E+03  0.5058E+03
      0.085  0.2142E+03  0.5104E+03
      0.106  0.2203E+03  0.5151E+03
      0.127  0.2487E+03  0.5204E+03
      0.149  0.2828E+03  0.5264E+03
      0.170  0.3162E+03  0.5332E+03
      0.192  0.3568E+03  0.5408E+03
      0.213  0.3820E+03  0.5490E+03
      0.234  0.3760E+03  0.5570E+03
      0.256  0.3612E+03  0.5648E+03
      0.277  0.3551E+03  0.5724E+03
      0.298  0.3408E+03  0.5796E+03
      0.320  0.3076E+03  0.5862E+03
      0.341  0.2564E+03  0.5917E+03
      0.363  0.2111E+03  0.5962E+03
      0.384  0.2087E+03  0.6007E+03
      0.405  0.2242E+03  0.6055E+03
      0.427  0.2240E+03  0.6103E+03
      0.448  0.1895E+03  0.6143E+03
      0.470  0.1565E+03  0.6177E+03
      0.491  0.1727E+03  0.6214E+03
      0.512  0.1911E+03  0.6255E+03
      0.534  0.1879E+03  0.6295E+03
      0.555  0.1667E+03  0.6330E+03
      0.577  0.1526E+03  0.6363E+03
      0.598  0.1759E+03  0.6401E+03
      0.619  0.2123E+03  0.6446E+03
      0.641  0.2408E+03  0.6498E+03
      0.662  0.2595E+03  0.6553E+03
      0.683  0.2848E+03  0.6614E+03
      0.705  0.3084E+03  0.6680E+03
      0.726  0.3209E+03  0.6749E+03
      0.748  0.3290E+03  0.6819E+03
      0.769  0.3223E+03  0.6888E+03
      0.790  0.3042E+03  0.6953E+03
      0.812  0.2902E+03  0.7015E+03
      0.833  0.2740E+03  0.7074E+03
      0.855  0.2412E+03  0.7125E+03
      0.876  0.2003E+03  0.7168E+03
      0.897  0.1799E+03  0.7206E+03
      0.919  0.1935E+03  0.7248E+03
      0.940  0.2214E+03  0.7295E+03
      0.962  0.2562E+03  0.7350E+03
      0.983  0.2799E+03  0.7410E+03
      1.004  0.2749E+03  0.7469E+03
      1.026  0.2572E+03  0.7524E+03
      1.047  0.2402E+03  0.7575E+03
      1.068  0.2232E+03  0.7623E+03
      1.090  0.2000E+03  0.7666E+03
      1.111  0.1653E+03  0.7701E+03
      1.133  0.1404E+03  0.7731E+03
      1.154  0.1462E+03  0.7762E+03
      1.175  0.1510E+03  0.7795E+03
      1.197  0.1340E+03  0.7823E+03
      1.218  0.1222E+03  0.7849E+03
      1.240  0.1284E+03  0.7877E+03
      1.261  0.1286E+03  0.7904E+03
      1.282  0.1269E+03  0.7931E+03
      1.304  0.1488E+03  0.7963E+03
      1.325  0.1942E+03  0.8005E+03
      1.346  0.2347E+03  0.8055E+03
      1.368  0.2540E+03  0.8109E+03
      1.389  0.2698E+03  0.8167E+03
      1.411  0.2855E+03  0.8228E+03
      1.432  0.2824E+03  0.8288E+03
      1.453  0.2729E+03  0.8347E+03
      1.475  0.2715E+03  0.8405E+03
      1.496  0.2665E+03  0.8462E+03
      1.518  0.2577E+03  0.8517E+03
      1.539  0.2500E+03  0.8570E+03
      1.560  0.2297E+03  0.8620E+03
      1.582  0.1892E+03  0.8660E+03
      1.603  0.1544E+03  0.8693E+03
      1.625  0.1539E+03  0.8726E+03
      1.646  0.1567E+03  0.8760E+03
      1.667  0.1252E+03  0.8786E+03
      1.689  0.9851E+02  0.8807E+03
      1.710  0.1229E+03  0.8834E+03
      1.731  0.1604E+03  0.8868E+03
      1.753  0.1771E+03  0.8906E+03
      1.774  0.1868E+03  0.8946E+03
      1.796  0.1917E+03  0.8987E+03
      1.817  0.1929E+03  0.9028E+03
      1.838  0.1835E+03  0.9067E+03
      1.860  0.1647E+03  0.9103E+03
      1.881  0.1548E+03  0.9136E+03
      1.903  0.1470E+03  0.9167E+03
      1.924  0.1336E+03  0.9196E+03
      1.945  0.1309E+03  0.9224E+03
      1.967  0.1459E+03  0.9255E+03
      1.988  0.1622E+03  0.9290E+03
      2.010  0.1644E+03  0.9325E+03
      2.031  0.1553E+03  0.9358E+03
      2.052  0.1505E+03  0.9390E+03
      2.074  0.1440E+03  0.9421E+03
      2.095  0.1195E+03  0.9446E+03
      2.116  0.9400E+02  0.9467E+03
      2.138  0.1088E+03  0.9490E+03
      2.159  0.1381E+03  0.9519E+03
      2.181  0.1576E+03  0.9553E+03
      2.202  0.1711E+03  0.9590E+03
      2.223  0.1770E+03  0.9627E+03
      2.245  0.1851E+03  0.9667E+03
      2.266  0.1852E+03  0.9707E+03
      2.288  0.1800E+03  0.9745E+03
      2.309  0.1795E+03  0.9784E+03
      2.330  0.1769E+03  0.9821E+03
      2.352  0.1511E+03  0.9854E+03
      2.373  0.9040E+02  0.9873E+03
      2.394  0.4093E+02  0.9882E+03
      2.416  0.4412E+02  0.9891E+03
      2.437  0.7760E+02  0.9908E+03
      2.459  0.1138E+03  0.9932E+03
      2.480  0.1377E+03  0.9962E+03
      2.501  0.1324E+03  0.9990E+03
      2.523  0.9188E+02  0.1001E+04
      2.544  0.3904E+02  0.1002E+04
      2.566  0.8649E+01  0.1002E+04
      2.587  0.8931E+00  0.1002E+04
      2.608  0.4006E-01  0.1002E+04
      2.630  0.7439E-03  0.1002E+04
      2.651  0.5511E-05  0.1002E+04
      2.673  0.1583E-07  0.1002E+04
      2.694  0.1728E-10  0.1002E+04
      2.715  0.5191E-14  0.1002E+04
      2.737  0.0000E+00  0.1002E+04
      2.758  0.0000E+00  0.1002E+04
      2.779  0.0000E+00  0.1002E+04
      2.801  0.0000E+00  0.1002E+04
      2.822  0.0000E+00  0.1002E+04
