 running on   64 total cores
 distrk:  each k-point on   32 cores,    2 groups
 distr:  one band on   32 cores,    1 groups
 vasp.6.2.1 16May21 (build Nov 23 2021 15:40:41) complex                        
  
 POSCAR found type information on POSCAR Li
 POSCAR found :  1 types and     500 ions
 scaLAPACK will be used
 -----------------------------------------------------------------------------
|                                                                             |
|           W    W    AA    RRRRR   N    N  II  N    N   GGGG   !!!           |
|           W    W   A  A   R    R  NN   N  II  NN   N  G    G  !!!           |
|           W    W  A    A  R    R  N N  N  II  N N  N  G       !!!           |
|           W WW W  AAAAAA  RRRRR   N  N N  II  N  N N  G  GGG   !            |
|           WW  WW  A    A  R   R   N   NN  II  N   NN  G    G                |
|           W    W  A    A  R    R  N    N  II  N    N   GGGG   !!!           |
|                                                                             |
|     For optimal performance we recommend to set                             |
|       NCORE = 2 up to number-of-cores-per-socket                            |
|     NCORE specifies how many cores store one orbital (NPAR=cpu/NCORE).      |
|     This setting can greatly improve the performance of VASP for DFT.       |
|     The default, NCORE=1 might be grossly inefficient on modern             |
|     multi-core architectures or massively parallel machines. Do your        |
|     own testing! More info at https://www.vasp.at/wiki/index.php/NCORE      |
|     Unfortunately you need to use the default for GW and RPA                |
|     calculations (for HF NCORE is supported but not extensively tested      |
|     yet).                                                                   |
|                                                                             |
 -----------------------------------------------------------------------------

 -----------------------------------------------------------------------------
|                                                                             |
|               ----> ADVICE to this user running VASP <----                  |
|                                                                             |
|     You have a (more or less) 'large supercell' and for larger cells it     |
|     might be more efficient to use real-space projection operators.         |
|     Therefore, try LREAL= Auto in the INCAR file.                           |
|     Mind: If you want to do very accurate calculations, keep the            |
|     reciprocal projection scheme (i.e. LREAL=.FALSE.).                      |
|                                                                             |
 -----------------------------------------------------------------------------

 LDA part: xc-table for Pade appr. of Perdew
 POSCAR found type information on POSCAR Li
 POSCAR found :  1 types and     500 ions
 POSCAR, INCAR and KPOINTS ok, starting setup
 FFT: planning ...
 WAVECAR not read
 entering main loop
       N       E                     dE             d eps       ncg     rms          rms(c)
DAV:   1    -0.343250106241E+03   -0.34325E+03   -0.11621E+05  4008   0.642E+02
DAV:   2    -0.887201287440E+03   -0.54395E+03   -0.49867E+03  4596   0.628E+01
DAV:   3    -0.926864325989E+03   -0.39663E+02   -0.36210E+02  5216   0.133E+01
DAV:   4    -0.928273348433E+03   -0.14090E+01   -0.13874E+01  4656   0.274E+00
DAV:   5    -0.928305666523E+03   -0.32318E-01   -0.32268E-01  4864   0.444E-01    0.705E+00
DAV:   6    -0.933416790979E+03   -0.51111E+01   -0.68515E+00  4816   0.451E+00    0.796E+00
DAV:   7    -0.921720781325E+03    0.11696E+02   -0.75166E+00  5032   0.394E+00    0.341E+00
DAV:   8    -0.920891275361E+03    0.82951E+00   -0.39319E+00  4600   0.168E+00    0.205E+00
DAV:   9    -0.920600995809E+03    0.29028E+00   -0.18579E+00  4424   0.108E+00    0.106E+00
DAV:  10    -0.920695746823E+03   -0.94751E-01   -0.33624E-01  4840   0.626E-01    0.104E+00
DAV:  11    -0.920561685104E+03    0.13406E+00   -0.17684E-01  4632   0.470E-01    0.484E-01
DAV:  12    -0.920557506310E+03    0.41788E-02   -0.53481E-02  4376   0.189E-01    0.237E-01
DAV:  13    -0.920559958121E+03   -0.24518E-02   -0.14818E-02  4864   0.137E-01    0.202E-01
DAV:  14    -0.920556009964E+03    0.39482E-02   -0.58961E-03  4632   0.963E-02    0.107E-01
DAV:  15    -0.920555010619E+03    0.99935E-03   -0.16775E-03  4536   0.474E-02    0.498E-02
DAV:  16    -0.920555038738E+03   -0.28120E-04   -0.86876E-04  4544   0.279E-02    0.326E-02
DAV:  17    -0.920554913705E+03    0.12503E-03   -0.31945E-04  4608   0.192E-02    0.168E-02
DAV:  18    -0.920554889815E+03    0.23890E-04   -0.68801E-05  4360   0.785E-03    0.791E-03
DAV:  19    -0.920554885995E+03    0.38206E-05   -0.18182E-05  3024   0.449E-03
   1 F= -.92055489E+03 E0= -.92050393E+03  d E =-.101920E+00
