Li                                      
           1
    22.732500   -0.000000    0.000000
    -0.000000   22.732500    0.000000
     0.000000    0.000000   22.732500
   Li
   500
Direct configuration=     1
   0.01038762  0.00005816  0.01217555
   0.01172528  0.09428674  0.07001547
   0.99154778  0.16806112  0.19530815
   0.99484498  0.28184716  0.28532908
   0.00440086  0.40055731  0.38673822
   0.01341623  0.50379804  0.47921016
   0.01158701  0.58720291  0.59079234
   0.99667505  0.69781347  0.70084105
   0.99574708  0.79966015  0.80245416
   0.00720583  0.90827102  0.88602596
   0.09112288  0.98914044  0.11512498
   0.08923582  0.08939794  0.18625520
   0.11172183  0.17887447  0.29870793
   0.09077787  0.29800110  0.38031219
   0.10777406  0.41071106  0.48665799
   0.11433732  0.49062781  0.60225345
   0.10681369  0.59477726  0.70611628
   0.10384105  0.68792600  0.80339129
   0.10838705  0.78364153  0.88926067
   0.09643028  0.90272767  0.99620454
   0.19623316  0.01175020  0.21734157
   0.20380765  0.09737807  0.29997439
   0.20734980  0.21233727  0.40753854
   0.18920661  0.30944967  0.48973681
   0.21214860  0.39033177  0.60041715
   0.20675540  0.49780637  0.70192366
   0.20711126  0.59177807  0.79570612
   0.20805034  0.69586781  0.90285483
   0.21111816  0.79781371  0.00298744
   0.19479531  0.90546393  0.11060921
   0.30715905  0.00459064  0.28560383
   0.30252137  0.10962580  0.39118148
   0.29995091  0.20536829  0.49751257
   0.30501561  0.30615895  0.60435692
   0.29699618  0.41124338  0.71293225
   0.30111438  0.49525697  0.81974480
   0.31596257  0.60660503  0.92411241
   0.32459810  0.70912601  0.02008744
   0.29521744  0.79699612  0.10304177
   0.29638394  0.89248847  0.19198503
   0.39017122  0.00868242  0.38827760
   0.39797935  0.10533101  0.50432457
   0.38175288  0.20327759  0.58697545
   0.39393051  0.31047797  0.70523157
   0.42632223  0.40387683  0.80821696
   0.38836294  0.50399933  0.92191785
   0.40501170  0.61008849  0.01952423
   0.42555176  0.70373598  0.10817436
   0.40098666  0.79478063  0.21379792
   0.40964542  0.90432719  0.29557144
   0.48618208  0.01616089  0.49328578
   0.48979681  0.11369554  0.61128718
   0.48004288  0.21780912  0.71679009
   0.51349446  0.29098460  0.80843048
   0.48593008  0.40478296  0.91181406
   0.52726861  0.49679315  0.02161638
   0.51322572  0.58612941  0.10959523
   0.50179193  0.69370503  0.20878346
   0.49652202  0.79298842  0.30605648
   0.49631099  0.89946131  0.41836757
   0.59777770  0.00791589  0.59901831
   0.60640211  0.09475573  0.70740559
   0.60287771  0.19310874  0.79283012
   0.59120048  0.29590139  0.89867103
   0.60017362  0.38584644  0.00556738
   0.60661919  0.51249065  0.10673995
   0.60610860  0.60778381  0.20886598
   0.60034624  0.70262223  0.29465998
   0.58478390  0.80577773  0.41260006
   0.59367284  0.91296342  0.51213749
   0.70945329  0.00601738  0.70258871
   0.70196771  0.09885040  0.80637534
   0.68755845  0.21311429  0.90202000
   0.70237959  0.29316734  0.99828127
   0.68724533  0.39742942  0.10534862
   0.68619018  0.49550022  0.20938270
   0.69999612  0.60359786  0.30717254
   0.70147141  0.71233672  0.41744258
   0.69801599  0.81243848  0.50599919
   0.70630546  0.90566137  0.60416358
   0.79841317  0.00774808  0.79869422
   0.80819910  0.09954626  0.87749072
   0.80794922  0.20111053  0.97937436
   0.79584239  0.27720229  0.09097977
   0.78017095  0.40253749  0.19324577
   0.79909382  0.50384579  0.29982412
   0.79796654  0.59813480  0.41390405
   0.80805255  0.70605526  0.51389242
   0.81171384  0.80448594  0.60370474
   0.80226927  0.89242280  0.70796050
   0.89675290  0.99447770  0.89193719
   0.89577848  0.08582143  0.99964169
   0.91851407  0.17896887  0.07706129
   0.90150083  0.28221381  0.20669918
   0.89562929  0.39969002  0.29188430
   0.90654526  0.50948651  0.39010923
   0.90176761  0.60058199  0.49933165
   0.90310189  0.69562458  0.59451474
   0.88613318  0.78194661  0.70764347
   0.90364862  0.91159022  0.79447693
   0.10855045  0.10376713  0.00282662
   0.09112414  0.19611042  0.11317124
   0.10224820  0.27844756  0.19737541
   0.09935309  0.39153507  0.28246133
   0.10232829  0.49864648  0.39050150
   0.11716665  0.59308676  0.49970660
   0.12492501  0.70131765  0.59413094
   0.10062531  0.79014647  0.70732173
   0.10859943  0.90077679  0.80992206
   0.10914538  0.99383057  0.90167470
   0.19084520  0.09413548  0.10990054
   0.20015298  0.18890516  0.19314806
   0.19513127  0.29436571  0.30788759
   0.19530806  0.40227068  0.38898660
   0.21795947  0.51350971  0.50258985
   0.19387333  0.59587649  0.59797512
   0.20614678  0.68619206  0.71626815
   0.19144515  0.80411179  0.80555471
   0.21324077  0.90156556  0.91147403
   0.18862479  0.99984994  0.01433630
   0.29203242  0.11561285  0.19259326
   0.28896287  0.18278077  0.28904016
   0.30890866  0.30052988  0.39753663
   0.30343321  0.38154219  0.48639803
   0.30402165  0.50230150  0.58868150
   0.29733274  0.59356595  0.70408531
   0.30387353  0.69514438  0.80850559
   0.29928984  0.79479712  0.89401936
   0.29745697  0.90079197  0.00035431
   0.29453894  0.01449640  0.10481570
   0.39054435  0.11465137  0.28785008
   0.39135769  0.20390492  0.40221176
   0.41092570  0.29373613  0.50164491
   0.40844921  0.40516503  0.59980281
   0.39209119  0.48972818  0.69914121
   0.40338965  0.61243299  0.79934733
   0.40714708  0.71617156  0.90522357
   0.40162098  0.81366017  0.01241162
   0.39244139  0.89957364  0.10744396
   0.40832848  0.02148804  0.19463611
   0.48783887  0.11104617  0.39474930
   0.49534539  0.17929483  0.50425943
   0.50109415  0.28249737  0.60384918
   0.49422516  0.39775589  0.68061549
   0.49917544  0.50258358  0.79999758
   0.50657855  0.59829287  0.90297053
   0.50276760  0.70028870  0.99992862
   0.50758473  0.79944546  0.09788339
   0.50064525  0.90794337  0.20436478
   0.48208370  0.01323041  0.29446709
   0.59083818  0.09400585  0.50818235
   0.60227415  0.19279087  0.61019042
   0.58067542  0.30301948  0.70743458
   0.58870687  0.40714533  0.80033596
   0.60516263  0.49271147  0.91614885
   0.61707682  0.59488460  0.00384785
   0.60022714  0.68862243  0.09656073
   0.59928666  0.78532056  0.19913980
   0.57835055  0.89156542  0.31297681
   0.60110376  0.99697224  0.39426856
   0.69411978  0.11277616  0.61213497
   0.69349756  0.20499219  0.70397613
   0.69586280  0.31908952  0.79735610
   0.69659189  0.39343366  0.89960214
   0.71156146  0.50128335  0.00780315
   0.70305793  0.60273093  0.09947063
   0.69962535  0.68809342  0.20192174
   0.70025400  0.79529753  0.30594473
   0.70544879  0.91319298  0.40611063
   0.71776731  0.01225185  0.51143724
   0.79133870  0.11185607  0.69570747
   0.78855227  0.20494257  0.79938974
   0.79679276  0.30293909  0.89160266
   0.79353819  0.38268658  0.99897022
   0.80539307  0.49569880  0.08049360
   0.79596616  0.58752773  0.18564408
   0.80997460  0.68028881  0.29177486
   0.81328849  0.80346072  0.40784205
   0.80547940  0.89691120  0.51020343
   0.81171481  0.99678995  0.60273601
   0.91188265  0.09523589  0.77895946
   0.92235443  0.19137733  0.87769821
   0.89148734  0.28547628  0.98076028
   0.88587024  0.38167460  0.10372707
   0.91643809  0.50750512  0.20777199
   0.89748691  0.61028172  0.29737044
   0.91569420  0.70895619  0.39241733
   0.90904858  0.78842896  0.50294654
   0.89893341  0.88842034  0.58948402
   0.90554335  0.99049536  0.68657239
   0.02491195  0.08184601  0.90733641
   0.00657839  0.20788251  0.99650945
   0.98751653  0.29306973  0.11076657
   0.98347110  0.38925862  0.20219905
   0.00425823  0.49556643  0.30433897
   0.01846533  0.60187761  0.39723704
   0.02157918  0.69452599  0.49871127
   0.01377890  0.78959626  0.60208247
   0.99570698  0.89980879  0.69371328
   0.00886358  0.99977367  0.79051624
   0.19510058  0.20261146  0.01707905
   0.19976076  0.29762596  0.09856726
   0.19567828  0.39857395  0.21501132
   0.19942757  0.50941267  0.30375817
   0.18683025  0.60015637  0.40010121
   0.21085420  0.70208514  0.48992428
   0.20699235  0.81210367  0.60908208
   0.19871097  0.90778581  0.70130949
   0.19268125  0.00476480  0.78649459
   0.19667009  0.09668401  0.92241521
   0.29312882  0.19110928  0.08855333
   0.28986505  0.28928541  0.18893503
   0.29892164  0.38610256  0.29507102
   0.29109945  0.48808904  0.38109747
   0.29411585  0.59957094  0.48557833
   0.28800913  0.68559057  0.59970418
   0.28214014  0.79602588  0.70374242
   0.29806166  0.90562438  0.80212207
   0.28056405  0.01026819  0.91061735
   0.29466610  0.10993086  0.00712746
   0.38762692  0.19755612  0.18102571
   0.39434406  0.29729971  0.28112581
   0.41412827  0.38524256  0.37302845
   0.37952060  0.49152913  0.48284565
   0.38505907  0.59898886  0.59064018
   0.38919415  0.70870322  0.70149305
   0.40595784  0.79726391  0.79443818
   0.38713787  0.89782261  0.90787280
   0.40242375  0.00540200  0.00606961
   0.40752155  0.10891684  0.09519278
   0.50225939  0.18600787  0.28671706
   0.50657276  0.27705373  0.38802104
   0.49907533  0.39501355  0.49196075
   0.49664861  0.51357200  0.59552266
   0.48959630  0.59263965  0.69585504
   0.52269473  0.70972475  0.80039249
   0.50749318  0.81028488  0.90077879
   0.51196854  0.90313690  0.00891020
   0.49664384  0.98900702  0.10115461
   0.50604582  0.08619247  0.19319166
   0.60995738  0.19825208  0.39279451
   0.60210638  0.29505973  0.49590505
   0.59781437  0.40881814  0.60265193
   0.59260593  0.52248505  0.68824997
   0.59758409  0.59603752  0.80279269
   0.60889706  0.70849554  0.91081672
   0.60240072  0.80249108  0.00481163
   0.61191782  0.90053652  0.10716278
   0.60159714  0.99737661  0.21711828
   0.60481419  0.09666190  0.29774268
   0.68927140  0.20261755  0.51861928
   0.68582963  0.30222063  0.60535342
   0.69697683  0.42957593  0.70780992
   0.69759541  0.49836621  0.79683018
   0.70443497  0.60616264  0.90088155
   0.71246447  0.71253498  0.99696568
   0.70138131  0.80556017  0.10842076
   0.69296390  0.90723385  0.20946811
   0.71052907  0.99187363  0.31484729
   0.70167012  0.08906220  0.40396751
   0.80071910  0.21443559  0.59963095
   0.80015151  0.32185883  0.70103670
   0.78607813  0.40631666  0.80161442
   0.80090612  0.50649225  0.92550310
   0.78800951  0.61414516  0.00821699
   0.81336535  0.69164305  0.10905658
   0.79863642  0.79718308  0.20839524
   0.81332326  0.90822822  0.29370718
   0.81106713  0.99116062  0.40753256
   0.81743687  0.11715724  0.51713105
   0.89530190  0.21475183  0.70981583
   0.90585391  0.31759766  0.79833877
   0.88832725  0.40891206  0.89600882
   0.89873758  0.48786960  0.00113879
   0.90592877  0.59771108  0.10206892
   0.91980532  0.68396925  0.19163600
   0.89266485  0.79781675  0.29723428
   0.90726627  0.89262154  0.39809784
   0.90137303  0.00203180  0.51378335
   0.91156946  0.10397738  0.61520044
   0.00813326  0.18465222  0.77906060
   0.99253583  0.30210546  0.88922997
   0.98072098  0.39159794  0.01053463
   0.99484380  0.49813959  0.09309790
   0.01048872  0.57508877  0.19181748
   0.01289210  0.70907426  0.29337674
   0.01111464  0.78509249  0.38959201
   0.98516644  0.90960862  0.49155920
   0.00032373  0.00576893  0.60295688
   0.01309809  0.09718464  0.69698223
   0.09998993  0.20747957  0.90311009
   0.09166019  0.30598666  0.02153336
   0.09762357  0.39789074  0.11043691
   0.08068215  0.49769519  0.20046708
   0.09177959  0.59179831  0.29496704
   0.10422283  0.70085271  0.40671550
   0.09002442  0.81203090  0.49872451
   0.11357870  0.89386081  0.59540614
   0.10757345  0.99396636  0.69432916
   0.11306788  0.09081839  0.79387587
   0.30455577  0.29755244  0.99537204
   0.29406500  0.38519904  0.10726825
   0.29160253  0.48837865  0.19563277
   0.28966747  0.59091418  0.29866442
   0.28491130  0.70344102  0.37658319
   0.29817605  0.79983612  0.48367881
   0.30213288  0.91470887  0.60258632
   0.28992861  0.02187652  0.69653621
   0.28558230  0.09160695  0.81603161
   0.28433071  0.20115956  0.91170892
   0.39943546  0.30511106  0.08878924
   0.40098095  0.40412549  0.20059914
   0.40520290  0.49713686  0.29293123
   0.38853985  0.58953211  0.40263477
   0.39243742  0.70916445  0.48399932
   0.40073955  0.80739298  0.60536325
   0.38398817  0.90982129  0.70373587
   0.39692538  0.00520260  0.79648167
   0.40519321  0.10148890  0.89845905
   0.40584610  0.19861357  0.00872454
   0.49608197  0.28762220  0.20288297
   0.51340537  0.38985170  0.29086634
   0.50169064  0.50643295  0.41453175
   0.47602168  0.61306713  0.48891910
   0.49063603  0.69091716  0.60060591
   0.49830613  0.79641376  0.70517031
   0.48282609  0.91286025  0.80359503
   0.49727858  0.00745175  0.90552548
   0.49970915  0.10237287  0.01077922
   0.49796352  0.21798975  0.10635176
   0.60827653  0.29388419  0.28838228
   0.58851973  0.39296048  0.39079195
   0.57936270  0.48320998  0.50417637
   0.59103003  0.61358970  0.56809494
   0.59250832  0.69286822  0.68784844
   0.61082854  0.80635467  0.79167830
   0.59909963  0.90032303  0.89569269
   0.60477708  0.98925796  0.00389672
   0.59997493  0.09495914  0.11206776
   0.61419170  0.17484148  0.20472194
   0.70208794  0.29350329  0.39559502
   0.70159275  0.38703303  0.48513788
   0.69311064  0.49982727  0.58833253
   0.69346952  0.59935215  0.69600726
   0.70380583  0.69702342  0.79503506
   0.68707943  0.80052205  0.90879727
   0.70489652  0.90524161  0.99793963
   0.69736169  0.99264134  0.08855698
   0.70626181  0.09122143  0.20684980
   0.71500910  0.17773336  0.30647053
   0.78762487  0.31742637  0.49579952
   0.79860090  0.39328947  0.59416367
   0.79561889  0.51460798  0.68811190
   0.80607984  0.60281567  0.79497320
   0.81575430  0.69734767  0.91149962
   0.81996542  0.81960360  0.00720518
   0.79534394  0.89556859  0.10141238
   0.80368319  0.99163207  0.20010909
   0.81733076  0.08892402  0.31196638
   0.79767747  0.19949961  0.40102433
   0.90213625  0.31484724  0.59836739
   0.89638227  0.41660981  0.70754477
   0.89606804  0.50591167  0.81146075
   0.87986655  0.60779882  0.91400762
   0.90844868  0.70362280  0.00049642
   0.90789570  0.78773408  0.10764694
   0.89713316  0.90347213  0.18524539
   0.91182685  0.99601833  0.29728633
   0.89166029  0.09789908  0.41579259
   0.89723501  0.21021479  0.51233688
   0.99623110  0.32373315  0.69491131
   0.00094171  0.41535802  0.81448156
   0.00181415  0.49885245  0.92558667
   0.00244762  0.60704431  0.98213172
   0.00758450  0.69029772  0.10124923
   0.01128174  0.80931078  0.19403546
   0.98846970  0.90725749  0.29188607
   0.98802269  0.00674384  0.41550054
   0.00032349  0.11038479  0.51217491
   0.99901208  0.21655202  0.59684305
   0.09609277  0.29638390  0.80332195
   0.09965395  0.39229418  0.91191192
   0.09989355  0.47850454  0.00217912
   0.10815258  0.57175072  0.09292255
   0.11388082  0.69785011  0.19537938
   0.08430438  0.80550560  0.29230295
   0.08128782  0.89460957  0.39377583
   0.10619964  0.01123756  0.50228099
   0.09757894  0.10256444  0.60872681
   0.09696736  0.21646714  0.68659064
   0.19273418  0.30513782  0.91485296
   0.20667419  0.38507771  0.98353981
   0.20188098  0.48930178  0.10765156
   0.19267129  0.59547241  0.19328698
   0.20135801  0.69151299  0.29768344
   0.18942798  0.80363481  0.38543404
   0.19565600  0.90426789  0.49298980
   0.20530313  0.00433259  0.60324216
   0.20813210  0.09896226  0.69225752
   0.18378852  0.19779978  0.80644397
   0.40672711  0.41468211  0.01920978
   0.40637960  0.49372413  0.11792667
   0.40089823  0.59618281  0.21048115
   0.38469521  0.69931516  0.30252139
   0.38548020  0.80062765  0.38430924
   0.37763525  0.90900354  0.49354163
   0.39298352  0.01021195  0.60264918
   0.38208535  0.11441566  0.69975840
   0.40407908  0.21674303  0.80911683
   0.41046873  0.29277990  0.90779319
   0.50364310  0.39816932  0.11366046
   0.49908724  0.50545346  0.20768925
   0.50975477  0.60438808  0.31874582
   0.50258486  0.71620516  0.39834789
   0.48455196  0.80183050  0.51250856
   0.48073038  0.90922648  0.60455510
   0.48197683  0.00889522  0.69700766
   0.49608570  0.11611277  0.79013853
   0.50426273  0.18490771  0.89571851
   0.48928284  0.30263776  0.99661672
   0.60177893  0.39513823  0.20579289
   0.60064569  0.48569825  0.29554131
   0.60172454  0.62055907  0.40041691
   0.60303043  0.70355706  0.50938021
   0.59243002  0.80352412  0.60842769
   0.59542967  0.91119066  0.70384656
   0.57640719  0.99523023  0.79307570
   0.59378370  0.09726571  0.88832699
   0.58202083  0.20327278  0.00098993
   0.59911934  0.29487576  0.10378756
   0.70399484  0.38952235  0.30374741
   0.69255209  0.50226476  0.39663890
   0.71164897  0.58680531  0.50518370
   0.71794040  0.70032060  0.60141582
   0.68694294  0.80256966  0.70670585
   0.70688438  0.91254683  0.80400193
   0.69734002  0.00712714  0.89804678
   0.70448806  0.11062326  0.98370528
   0.69651121  0.18074909  0.09110778
   0.70673323  0.27766148  0.19322454
   0.80725237  0.40442699  0.39802059
   0.80883218  0.49205038  0.49370578
   0.79071441  0.59290120  0.58361963
   0.80510207  0.69631630  0.69379008
   0.79854869  0.80039276  0.79631639
   0.81307720  0.90809160  0.88865777
   0.80432446  0.00893290  0.98139935
   0.79917834  0.09417320  0.09513347
   0.81639770  0.19120633  0.19376316
   0.81491288  0.30971780  0.30459528
   0.91372873  0.40794675  0.49411161
   0.90410769  0.48908969  0.59828745
   0.90524565  0.59972759  0.69196275
   0.91363350  0.70244405  0.81432752
   0.90191384  0.81529893  0.88927748
   0.91151395  0.89378508  0.99425861
   0.90214121  0.99335024  0.09078685
   0.90365378  0.09719570  0.18212740
   0.90617569  0.18382046  0.30694452
   0.89840665  0.29544066  0.39342082
   0.00529792  0.41202166  0.58458618
   0.00590669  0.49896043  0.69082323
   0.00481221  0.59945935  0.80457047
   0.00350116  0.70311192  0.90788120
   0.99959194  0.78440235  0.99419654
   0.99435051  0.90862404  0.08541461
   0.99601125  0.00317443  0.18916196
   0.99662995  0.09416911  0.30365351
   0.99656671  0.19062815  0.40319492
   0.99732274  0.30473384  0.49744730
   0.09295441  0.41834915  0.69645078
   0.10105363  0.50591685  0.80561089
   0.10385721  0.61387345  0.90119887
   0.09901501  0.69620689  0.00350951
   0.09100695  0.81018736  0.09238231
   0.09296779  0.89419899  0.19572763
   0.07942200  0.00021480  0.30246474
   0.10848808  0.09799167  0.39796492
   0.09438406  0.19978674  0.49353364
   0.10381334  0.31996684  0.58686050
   0.19325842  0.39316392  0.80137670
   0.21264400  0.50247292  0.90408586
   0.20042182  0.59868824  0.00416742
   0.20579971  0.69228418  0.09442641
   0.17951678  0.80511598  0.21183117
   0.18659746  0.89938025  0.30119458
   0.20407372  0.99732069  0.38861935
   0.20959823  0.09631462  0.51627513
   0.20206780  0.22651769  0.58547845
   0.19273675  0.31240028  0.71002955
   0.30782759  0.38731765  0.89945518
   0.28746695  0.49280257  0.02854521
   0.30971179  0.60629267  0.11471688
   0.29766577  0.70756485  0.20527876
   0.28421917  0.80223189  0.28239174
   0.28800266  0.89479361  0.38300232
   0.30070456  0.00354130  0.48530467
   0.29276320  0.11170182  0.58445372
   0.30577619  0.19408045  0.69740964
   0.29596360  0.30440783  0.79652128
