 432 432   0   0
  0.1857636E+02  0.2002080E-08  0.2002080E-08  0.2002080E-08  0.5000000E-15
  1.000000000000000E-004
  CAR 
 Li                                      
      3.92358453     -3.31423872  301      0.64047407      1.00000000
     -3.314  0.0000E+00  0.0000E+00
     -3.290  0.0000E+00  0.0000E+00
     -3.266  0.0000E+00  0.0000E+00
     -3.242  0.0000E+00  0.0000E+00
     -3.218  0.0000E+00  0.0000E+00
     -3.194  0.0000E+00  0.0000E+00
     -3.169  0.0000E+00  0.0000E+00
     -3.145  0.1771E-11  0.4272E-13
     -3.121  0.5832E-08  0.1407E-09
     -3.097  0.5414E-05  0.1308E-06
     -3.073  0.1431E-02  0.3466E-04
     -3.049  0.1093E+00  0.2672E-02
     -3.025  0.2462E+01  0.6206E-01
     -3.001  0.1675E+02  0.4663E+00
     -2.976  0.3527E+02  0.1317E+01
     -2.952  0.2324E+02  0.1878E+01
     -2.928  0.4921E+01  0.1997E+01
     -2.904  0.3744E+01  0.2087E+01
     -2.880  0.2492E+02  0.2688E+01
     -2.856  0.7058E+02  0.4391E+01
     -2.832  0.8898E+02  0.6538E+01
     -2.808  0.4926E+02  0.7726E+01
     -2.783  0.1117E+02  0.7996E+01
     -2.759  0.9152E+01  0.8217E+01
     -2.735  0.4131E+02  0.9213E+01
     -2.711  0.8449E+02  0.1125E+02
     -2.687  0.7831E+02  0.1314E+02
     -2.663  0.3101E+02  0.1389E+02
     -2.639  0.7695E+01  0.1407E+02
     -2.615  0.2496E+02  0.1468E+02
     -2.590  0.7889E+02  0.1658E+02
     -2.566  0.1173E+03  0.1941E+02
     -2.542  0.8127E+02  0.2137E+02
     -2.518  0.2450E+02  0.2196E+02
     -2.494  0.1505E+02  0.2232E+02
     -2.470  0.6206E+02  0.2382E+02
     -2.446  0.1390E+03  0.2718E+02
     -2.422  0.1581E+03  0.3099E+02
     -2.397  0.9363E+02  0.3325E+02
     -2.373  0.2796E+02  0.3392E+02
     -2.349  0.1123E+02  0.3419E+02
     -2.325  0.4337E+02  0.3524E+02
     -2.301  0.9253E+02  0.3747E+02
     -2.277  0.7758E+02  0.3934E+02
     -2.253  0.2530E+02  0.3995E+02
     -2.229  0.1417E+02  0.4030E+02
     -2.204  0.5510E+02  0.4163E+02
     -2.180  0.1199E+03  0.4452E+02
     -2.156  0.1515E+03  0.4817E+02
     -2.132  0.1127E+03  0.5089E+02
     -2.108  0.4367E+02  0.5195E+02
     -2.084  0.3804E+02  0.5286E+02
     -2.060  0.1144E+03  0.5562E+02
     -2.036  0.1941E+03  0.6031E+02
     -2.011  0.2018E+03  0.6518E+02
     -1.987  0.1356E+03  0.6845E+02
     -1.963  0.5399E+02  0.6975E+02
     -1.939  0.2266E+02  0.7030E+02
     -1.915  0.4828E+02  0.7146E+02
     -1.891  0.8384E+02  0.7348E+02
     -1.867  0.7272E+02  0.7524E+02
     -1.843  0.3002E+02  0.7596E+02
     -1.818  0.2707E+02  0.7662E+02
     -1.794  0.8467E+02  0.7866E+02
     -1.770  0.1521E+03  0.8233E+02
     -1.746  0.1640E+03  0.8628E+02
     -1.722  0.1095E+03  0.8892E+02
     -1.698  0.4391E+02  0.8998E+02
     -1.674  0.4484E+02  0.9107E+02
     -1.650  0.1238E+03  0.9405E+02
     -1.625  0.1999E+03  0.9888E+02
     -1.601  0.1976E+03  0.1036E+03
     -1.577  0.1271E+03  0.1067E+03
     -1.553  0.4926E+02  0.1079E+03
     -1.529  0.3634E+02  0.1088E+03
     -1.505  0.9706E+02  0.1111E+03
     -1.481  0.1527E+03  0.1148E+03
     -1.457  0.1364E+03  0.1181E+03
     -1.432  0.7013E+02  0.1198E+03
     -1.408  0.5562E+02  0.1211E+03
     -1.384  0.1256E+03  0.1242E+03
     -1.360  0.1946E+03  0.1289E+03
     -1.336  0.1994E+03  0.1337E+03
     -1.312  0.1313E+03  0.1368E+03
     -1.288  0.5293E+02  0.1381E+03
     -1.264  0.6131E+02  0.1396E+03
     -1.239  0.1453E+03  0.1431E+03
     -1.215  0.2085E+03  0.1481E+03
     -1.191  0.1874E+03  0.1526E+03
     -1.167  0.1043E+03  0.1552E+03
     -1.143  0.4155E+02  0.1562E+03
     -1.119  0.5719E+02  0.1575E+03
     -1.095  0.1193E+03  0.1604E+03
     -1.071  0.1476E+03  0.1640E+03
     -1.046  0.1118E+03  0.1667E+03
     -1.022  0.4873E+02  0.1679E+03
     -0.998  0.3482E+02  0.1687E+03
     -0.974  0.9355E+02  0.1709E+03
     -0.950  0.1464E+03  0.1745E+03
     -0.926  0.1337E+03  0.1777E+03
     -0.902  0.8951E+02  0.1799E+03
     -0.878  0.9715E+02  0.1822E+03
     -0.853  0.1769E+03  0.1865E+03
     -0.829  0.2421E+03  0.1923E+03
     -0.805  0.2591E+03  0.1986E+03
     -0.781  0.2388E+03  0.2043E+03
     -0.757  0.1698E+03  0.2084E+03
     -0.733  0.1147E+03  0.2112E+03
     -0.709  0.1454E+03  0.2147E+03
     -0.684  0.1869E+03  0.2192E+03
     -0.660  0.1724E+03  0.2234E+03
     -0.636  0.1206E+03  0.2263E+03
     -0.612  0.6789E+02  0.2279E+03
     -0.588  0.6976E+02  0.2296E+03
     -0.564  0.1328E+03  0.2328E+03
     -0.540  0.1648E+03  0.2368E+03
     -0.516  0.1369E+03  0.2401E+03
     -0.491  0.8941E+02  0.2422E+03
     -0.467  0.1105E+03  0.2449E+03
     -0.443  0.1804E+03  0.2493E+03
     -0.419  0.2159E+03  0.2545E+03
     -0.395  0.2187E+03  0.2597E+03
     -0.371  0.1779E+03  0.2640E+03
     -0.347  0.1231E+03  0.2670E+03
     -0.323  0.1007E+03  0.2694E+03
     -0.298  0.7340E+02  0.2712E+03
     -0.274  0.4082E+02  0.2722E+03
     -0.250  0.6607E+02  0.2738E+03
     -0.226  0.1387E+03  0.2771E+03
     -0.202  0.1868E+03  0.2816E+03
     -0.178  0.1969E+03  0.2864E+03
     -0.154  0.1932E+03  0.2911E+03
     -0.130  0.1885E+03  0.2956E+03
     -0.105  0.1771E+03  0.2999E+03
     -0.081  0.1783E+03  0.3042E+03
     -0.057  0.1918E+03  0.3088E+03
     -0.033  0.2014E+03  0.3137E+03
     -0.009  0.2103E+03  0.3187E+03
      0.015  0.2158E+03  0.3239E+03
      0.039  0.1889E+03  0.3285E+03
      0.063  0.1376E+03  0.3318E+03
      0.088  0.1166E+03  0.3346E+03
      0.112  0.1401E+03  0.3380E+03
      0.136  0.1579E+03  0.3418E+03
      0.160  0.1584E+03  0.3456E+03
      0.184  0.1746E+03  0.3498E+03
      0.208  0.2027E+03  0.3547E+03
      0.232  0.2124E+03  0.3599E+03
      0.256  0.2081E+03  0.3649E+03
      0.281  0.2133E+03  0.3700E+03
      0.305  0.2075E+03  0.3750E+03
      0.329  0.1808E+03  0.3794E+03
      0.353  0.1707E+03  0.3835E+03
      0.377  0.1887E+03  0.3881E+03
      0.401  0.1892E+03  0.3926E+03
      0.425  0.1712E+03  0.3968E+03
      0.449  0.1557E+03  0.4005E+03
      0.474  0.1405E+03  0.4039E+03
      0.498  0.1357E+03  0.4072E+03
      0.522  0.1486E+03  0.4108E+03
      0.546  0.1734E+03  0.4150E+03
      0.570  0.1888E+03  0.4195E+03
      0.594  0.1888E+03  0.4241E+03
      0.618  0.1726E+03  0.4282E+03
      0.642  0.1710E+03  0.4324E+03
      0.667  0.1916E+03  0.4370E+03
      0.691  0.1932E+03  0.4416E+03
      0.715  0.1923E+03  0.4463E+03
      0.739  0.2044E+03  0.4512E+03
      0.763  0.1987E+03  0.4560E+03
      0.787  0.1857E+03  0.4605E+03
      0.811  0.1851E+03  0.4649E+03
      0.835  0.1829E+03  0.4694E+03
      0.860  0.1780E+03  0.4737E+03
      0.884  0.1819E+03  0.4780E+03
      0.908  0.2009E+03  0.4829E+03
      0.932  0.2159E+03  0.4881E+03
      0.956  0.2130E+03  0.4932E+03
      0.980  0.2173E+03  0.4985E+03
      1.004  0.2251E+03  0.5039E+03
      1.028  0.2325E+03  0.5095E+03
      1.053  0.2348E+03  0.5152E+03
      1.077  0.2289E+03  0.5207E+03
      1.101  0.2219E+03  0.5261E+03
      1.125  0.2248E+03  0.5315E+03
      1.149  0.2162E+03  0.5367E+03
      1.173  0.2121E+03  0.5418E+03
      1.197  0.2214E+03  0.5472E+03
      1.221  0.2174E+03  0.5524E+03
      1.246  0.2003E+03  0.5572E+03
      1.270  0.2009E+03  0.5621E+03
      1.294  0.2048E+03  0.5670E+03
      1.318  0.1996E+03  0.5718E+03
      1.342  0.2049E+03  0.5768E+03
      1.366  0.2162E+03  0.5820E+03
      1.390  0.2039E+03  0.5869E+03
      1.414  0.1874E+03  0.5914E+03
      1.439  0.1915E+03  0.5961E+03
      1.463  0.1979E+03  0.6008E+03
      1.487  0.1892E+03  0.6054E+03
      1.511  0.1883E+03  0.6099E+03
      1.535  0.1906E+03  0.6145E+03
      1.559  0.1773E+03  0.6188E+03
      1.583  0.1634E+03  0.6228E+03
      1.607  0.1639E+03  0.6267E+03
      1.632  0.1721E+03  0.6309E+03
      1.656  0.1838E+03  0.6353E+03
      1.680  0.1813E+03  0.6397E+03
      1.704  0.1700E+03  0.6438E+03
      1.728  0.1607E+03  0.6477E+03
      1.752  0.1411E+03  0.6511E+03
      1.776  0.1398E+03  0.6544E+03
      1.800  0.1466E+03  0.6580E+03
      1.825  0.1385E+03  0.6613E+03
      1.849  0.1315E+03  0.6645E+03
      1.873  0.1315E+03  0.6676E+03
      1.897  0.1402E+03  0.6710E+03
      1.921  0.1562E+03  0.6748E+03
      1.945  0.1708E+03  0.6789E+03
      1.969  0.1716E+03  0.6831E+03
      1.993  0.1555E+03  0.6868E+03
      2.018  0.1483E+03  0.6904E+03
      2.042  0.1546E+03  0.6941E+03
      2.066  0.1494E+03  0.6977E+03
      2.090  0.1484E+03  0.7013E+03
      2.114  0.1657E+03  0.7053E+03
      2.138  0.1769E+03  0.7096E+03
      2.162  0.1820E+03  0.7140E+03
      2.187  0.1838E+03  0.7184E+03
      2.211  0.1726E+03  0.7226E+03
      2.235  0.1612E+03  0.7265E+03
      2.259  0.1595E+03  0.7303E+03
      2.283  0.1579E+03  0.7341E+03
      2.307  0.1574E+03  0.7379E+03
      2.331  0.1578E+03  0.7417E+03
      2.355  0.1599E+03  0.7456E+03
      2.380  0.1536E+03  0.7493E+03
      2.404  0.1435E+03  0.7527E+03
      2.428  0.1501E+03  0.7564E+03
      2.452  0.1436E+03  0.7598E+03
      2.476  0.1256E+03  0.7629E+03
      2.500  0.1161E+03  0.7657E+03
      2.524  0.1273E+03  0.7687E+03
      2.548  0.1344E+03  0.7720E+03
      2.573  0.1166E+03  0.7748E+03
      2.597  0.9717E+02  0.7771E+03
      2.621  0.9804E+02  0.7795E+03
      2.645  0.1062E+03  0.7821E+03
      2.669  0.1123E+03  0.7848E+03
      2.693  0.1108E+03  0.7874E+03
      2.717  0.1037E+03  0.7899E+03
      2.741  0.8998E+02  0.7921E+03
      2.766  0.7481E+02  0.7939E+03
      2.790  0.5718E+02  0.7953E+03
      2.814  0.2869E+02  0.7960E+03
      2.838  0.2435E+02  0.7966E+03
      2.862  0.5026E+02  0.7978E+03
      2.886  0.6818E+02  0.7994E+03
      2.910  0.6019E+02  0.8009E+03
      2.934  0.4442E+02  0.8020E+03
      2.959  0.3241E+02  0.8027E+03
      2.983  0.4114E+02  0.8037E+03
      3.007  0.6713E+02  0.8054E+03
      3.031  0.8449E+02  0.8074E+03
      3.055  0.9577E+02  0.8097E+03
      3.079  0.9793E+02  0.8121E+03
      3.103  0.9420E+02  0.8143E+03
      3.127  0.1022E+03  0.8168E+03
      3.152  0.1158E+03  0.8196E+03
      3.176  0.1211E+03  0.8225E+03
      3.200  0.1196E+03  0.8254E+03
      3.224  0.1243E+03  0.8284E+03
      3.248  0.1247E+03  0.8314E+03
      3.272  0.1142E+03  0.8342E+03
      3.296  0.1096E+03  0.8368E+03
      3.320  0.1121E+03  0.8395E+03
      3.345  0.1049E+03  0.8421E+03
      3.369  0.9189E+02  0.8443E+03
      3.393  0.8657E+02  0.8464E+03
      3.417  0.7748E+02  0.8482E+03
      3.441  0.7809E+02  0.8501E+03
      3.465  0.7751E+02  0.8520E+03
      3.489  0.7754E+02  0.8539E+03
      3.513  0.1003E+03  0.8563E+03
      3.538  0.1158E+03  0.8591E+03
      3.562  0.1119E+03  0.8618E+03
      3.586  0.9827E+02  0.8641E+03
      3.610  0.5894E+02  0.8656E+03
      3.634  0.1646E+02  0.8660E+03
      3.658  0.1725E+01  0.8660E+03
      3.682  0.6069E-01  0.8660E+03
      3.706  0.6731E-03  0.8660E+03
      3.731  0.2257E-05  0.8660E+03
      3.755  0.2224E-08  0.8660E+03
      3.779  0.6304E-12  0.8660E+03
      3.803  0.0000E+00  0.8660E+03
      3.827  0.0000E+00  0.8660E+03
      3.851  0.0000E+00  0.8660E+03
      3.875  0.0000E+00  0.8660E+03
      3.899  0.0000E+00  0.8660E+03
      3.924  0.0000E+00  0.8660E+03
