       N       E                     dE             d eps       ncg     rms          rms(c)
DAV:   1    -0.194478879488E+03   -0.19448E+03   -0.10733E+05  3464   0.664E+02
DAV:   2    -0.741299885322E+03   -0.54682E+03   -0.49903E+03  3988   0.701E+01
DAV:   3    -0.779929929572E+03   -0.38630E+02   -0.35266E+02  4432   0.147E+01
DAV:   4    -0.781203087605E+03   -0.12732E+01   -0.12554E+01  4008   0.293E+00
DAV:   5    -0.781233134588E+03   -0.30047E-01   -0.30000E-01  4136   0.471E-01    0.104E+01
DAV:   6    -0.776101157129E+03    0.51320E+01   -0.13165E+01  4048   0.571E+00    0.823E+00
DAV:   7    -0.768068245510E+03    0.80329E+01   -0.11584E+01  4096   0.503E+00    0.476E+00
DAV:   8    -0.765648748357E+03    0.24195E+01   -0.53006E+00  3984   0.252E+00    0.242E+00
DAV:   9    -0.765329895295E+03    0.31885E+00   -0.27174E+00  3816   0.137E+00    0.132E+00
DAV:  10    -0.765374187192E+03   -0.44292E-01   -0.45877E-01  4072   0.808E-01    0.114E+00
DAV:  11    -0.765236425192E+03    0.13776E+00   -0.19303E-01  3992   0.541E-01    0.531E-01
DAV:  12    -0.765230478017E+03    0.59472E-02   -0.66996E-02  3792   0.221E-01    0.248E-01
DAV:  13    -0.765230320792E+03    0.15722E-03   -0.13594E-02  4176   0.141E-01    0.178E-01
DAV:  14    -0.765227663895E+03    0.26569E-02   -0.36852E-03  4024   0.871E-02    0.895E-02
DAV:  15    -0.765227197022E+03    0.46687E-03   -0.14953E-03  3888   0.418E-02    0.406E-02
DAV:  16    -0.765227188916E+03    0.81060E-05   -0.59510E-04  3936   0.244E-02    0.241E-02
DAV:  17    -0.765227133074E+03    0.55842E-04   -0.16713E-04  3888   0.153E-02    0.140E-02
DAV:  18    -0.765227109346E+03    0.23728E-04   -0.35234E-05  3280   0.634E-03    0.647E-03
DAV:  19    -0.765227101476E+03    0.78702E-05   -0.11735E-05  1952   0.369E-03
   1 F= -.76522710E+03 E0= -.76518668E+03  d E =-.808397E-01
