Li                                      
           1
    20.020800    0.000000    0.000000
     0.000000   20.020800    0.000000
     0.000000    0.000000   20.020800
   Li
   432
Direct configuration=     1
   0.97022547  0.00530299  0.96459249
   0.92299832  0.09202863  0.09001422
   0.84424129  0.19578590  0.17301577
   0.75374266  0.24524563  0.28215609
   0.68412117  0.33520768  0.35485324
   0.56832836  0.43246441  0.40962459
   0.49071832  0.50057259  0.52281597
   0.40107274  0.58687492  0.58782102
   0.35540174  0.68342478  0.66988770
   0.25731402  0.75599443  0.74717750
   0.20331999  0.83321791  0.82138446
   0.07230372  0.89662189  0.92456813
   0.07533270  0.89842346  0.08125535
   0.00411933  0.99745749  0.15151983
   0.91591129  0.07042746  0.23904147
   0.86960644  0.19341414  0.34751098
   0.77416426  0.24991253  0.43414735
   0.66017159  0.33972734  0.51855023
   0.56898511  0.40725550  0.58559092
   0.49201112  0.51834658  0.66200951
   0.40735602  0.56982161  0.76236050
   0.34366734  0.64619981  0.82346020
   0.27905269  0.74486619  0.92822468
   0.17351414  0.81418884  0.00866059
   0.20408327  0.84007501  0.16588927
   0.07451742  0.92331219  0.24422755
   0.00187637  0.99176170  0.32354548
   0.92150359  0.07145632  0.42316760
   0.85606727  0.19356732  0.54550519
   0.75129923  0.26310809  0.62763794
   0.66189409  0.36300924  0.68236180
   0.57120807  0.41491630  0.76575795
   0.50194028  0.50569856  0.81782322
   0.42033799  0.57545073  0.91474912
   0.35199256  0.64519171  0.03180271
   0.29278111  0.74378624  0.09966770
   0.26108278  0.75739440  0.25715319
   0.17568951  0.84954295  0.30248451
   0.06817646  0.92684641  0.39313365
   0.02419568  0.99577352  0.52233743
   0.93216764  0.07874211  0.59132297
   0.82047601  0.15135684  0.65964002
   0.75067230  0.23471784  0.73219935
   0.67422322  0.31038357  0.85520819
   0.56731971  0.39604645  0.90103044
   0.50730250  0.48090509  0.99932356
   0.43850508  0.57665380  0.10567043
   0.35325819  0.66750211  0.17040473
   0.33687457  0.67661442  0.33811546
   0.24576290  0.75316946  0.40554356
   0.13610312  0.82960111  0.48326846
   0.09926029  0.90427848  0.61288762
   0.00219193  0.99200951  0.67293487
   0.88774960  0.06401542  0.73339100
   0.83057505  0.16046525  0.80985493
   0.72795812  0.24836166  0.89030269
   0.68695853  0.34928001  0.99892990
   0.60837952  0.41024075  0.10993204
   0.50228197  0.48104757  0.17843115
   0.40506747  0.57236639  0.26019342
   0.41274635  0.57790678  0.39364527
   0.33301169  0.67716098  0.49248295
   0.26496675  0.77553485  0.54747493
   0.17113153  0.82077539  0.65645281
   0.08986794  0.93689855  0.77800790
   0.95797872  0.00653999  0.85407837
   0.88876515  0.09787489  0.92174155
   0.81028983  0.15900392  0.98715376
   0.75138903  0.25719323  0.10904519
   0.67550825  0.33636137  0.21172788
   0.55663139  0.40627368  0.28002793
   0.48680847  0.51722242  0.33587664
   0.08165435  0.07091229  0.92558519
   0.98715690  0.13740591  0.99291573
   0.91614576  0.25750089  0.08321563
   0.83357823  0.34343131  0.18310442
   0.74457586  0.42081232  0.26890125
   0.65295049  0.49936204  0.33651502
   0.57454849  0.57531371  0.42858375
   0.46531711  0.65479829  0.49034676
   0.43570407  0.75240609  0.57575619
   0.34732335  0.83203094  0.66737865
   0.26256389  0.91644606  0.73112342
   0.18060016  0.98798485  0.86020289
   0.16032051  0.98959963  0.99758527
   0.07792724  0.05803531  0.07918603
   0.01088630  0.16907199  0.16752846
   0.93763943  0.28593302  0.22970476
   0.84841517  0.32345444  0.36709166
   0.73316931  0.43088782  0.43212362
   0.64655685  0.49817197  0.52049603
   0.57607881  0.59594336  0.57465252
   0.48093397  0.65706853  0.66501827
   0.43099831  0.74805013  0.74328092
   0.37253695  0.79710627  0.83288510
   0.27936218  0.90224867  0.92671484
   0.27500492  0.90634089  0.04701227
   0.18748370  0.96761436  0.14263401
   0.08467728  0.08498241  0.22729536
   0.97669340  0.15665062  0.31264462
   0.92263038  0.26269483  0.44791321
   0.81657160  0.34292647  0.54032908
   0.73913786  0.43021363  0.61436742
   0.64145461  0.50783660  0.65075411
   0.58569885  0.59992042  0.75063761
   0.48817529  0.67631400  0.83608890
   0.43177344  0.73359017  0.92468681
   0.35253784  0.81862564  0.98500440
   0.32947911  0.83182831  0.13684910
   0.26713625  0.93044831  0.26277095
   0.17856744  0.00316242  0.32733744
   0.07061331  0.07902607  0.40519619
   0.00682294  0.15833630  0.49967360
   0.93778854  0.27482956  0.59599927
   0.84343835  0.35680758  0.69250988
   0.71928358  0.40229463  0.76810992
   0.66242183  0.49073732  0.84022644
   0.58413641  0.57880217  0.89009466
   0.52850044  0.66458994  0.01564579
   0.44773061  0.74880810  0.07838009
   0.41400332  0.76139682  0.26878919
   0.33021298  0.85130541  0.33769696
   0.24112949  0.90757215  0.43793668
   0.16250540  0.98707814  0.51010202
   0.06546725  0.08465661  0.58393287
   0.98828763  0.17046417  0.69733205
   0.92469701  0.23845719  0.75951722
   0.81824850  0.32313329  0.83689577
   0.73085489  0.44063942  0.90998634
   0.67176327  0.49727358  0.01656759
   0.58402841  0.57752206  0.10162807
   0.49414550  0.67000213  0.19580013
   0.51077721  0.66876033  0.32147795
   0.42565454  0.74006064  0.39788101
   0.35857781  0.84102610  0.48467186
   0.23910682  0.89833030  0.55372451
   0.13835308  0.98498475  0.68414458
   0.09063237  0.07291003  0.76422006
   0.98803688  0.15260759  0.84505384
   0.89895526  0.23551396  0.91894316
   0.81725183  0.32395955  0.98718991
   0.76264015  0.41300802  0.10777450
   0.67765489  0.48728883  0.18835804
   0.58943933  0.56841020  0.25597733
   0.15310199  0.16124491  0.87478443
   0.03744875  0.25901005  0.92705405
   0.98149941  0.35890784  0.98999900
   0.91377204  0.40309035  0.07752238
   0.82981943  0.49104215  0.19175006
   0.74287714  0.59251815  0.26900911
   0.65155923  0.69222979  0.32988714
   0.58555015  0.72877294  0.43496668
   0.51031219  0.83924228  0.49849304
   0.42672128  0.89495600  0.58281638
   0.34008380  0.99136277  0.65985360
   0.23310379  0.07466563  0.76422861
   0.25751980  0.06746315  0.94618615
   0.15870212  0.17155110  0.00586041
   0.07098495  0.23429123  0.10288201
   0.00366056  0.34266481  0.17254601
   0.91385078  0.41034866  0.24861745
   0.84104751  0.51329505  0.33966200
   0.74691233  0.58755874  0.42240997
   0.68408173  0.67277414  0.50716176
   0.57500175  0.72324498  0.60204231
   0.51339910  0.83042521  0.69197013
   0.42044970  0.94685509  0.75946894
   0.33661908  0.99453593  0.84442292
   0.35977463  0.01641377  0.99395083
   0.26625645  0.07494234  0.05844608
   0.19110405  0.14240458  0.16097528
   0.10113215  0.21806923  0.26304362
   0.01446674  0.31231048  0.35582790
   0.91310678  0.43215935  0.38935926
   0.85860616  0.51382805  0.49453642
   0.76982487  0.57606045  0.58130515
   0.69763781  0.65992613  0.66946020
   0.60578522  0.74132585  0.72029756
   0.48497585  0.81607023  0.83428983
   0.42640242  0.91765581  0.90022090
   0.44785168  0.90601424  0.05917142
   0.35500382  0.99168533  0.12665359
   0.25440839  0.05740625  0.24025581
   0.16645028  0.10484138  0.34213249
   0.10518585  0.25239005  0.42357352
   0.00732826  0.36276943  0.49628516
   0.91638881  0.45245167  0.58135716
   0.80913019  0.49684890  0.69846605
   0.75663667  0.54290277  0.77053924
   0.68682567  0.67449081  0.80572894
   0.59494363  0.72773613  0.87747039
   0.52564707  0.83616516  0.98436189
   0.51424010  0.83123176  0.16234887
   0.42449889  0.92872410  0.24491043
   0.33472812  0.99256251  0.33179249
   0.27476083  0.07755527  0.43399045
   0.15528580  0.16375426  0.50928951
   0.04384004  0.26025331  0.59656001
   0.98613526  0.35095552  0.68436144
   0.89637274  0.43733110  0.75543993
   0.84367110  0.50002154  0.83697536
   0.77432978  0.58365073  0.90367454
   0.65366459  0.65492692  0.97831180
   0.60480040  0.74026503  0.07870585
   0.59079709  0.76866493  0.26188384
   0.50644607  0.83470334  0.32833376
   0.42217342  0.93188056  0.39605853
   0.32724768  0.99222964  0.51880721
   0.22797925  0.07705308  0.59227500
   0.16052110  0.15653767  0.68693740
   0.05110626  0.25283529  0.77011952
   0.97053126  0.34829236  0.83483760
   0.88074475  0.43372013  0.90810997
   0.84572695  0.47853886  0.00485811
   0.75914887  0.55660237  0.09343386
   0.67927424  0.66460158  0.16928130
   0.23299944  0.23624991  0.73848073
   0.16633785  0.32591036  0.81011584
   0.09453599  0.40332354  0.92159034
   0.97700486  0.50755994  0.98970222
   0.91945325  0.58368977  0.06486705
   0.84467607  0.65212072  0.17305877
   0.75485917  0.72960140  0.27487176
   0.68051049  0.82070073  0.32388121
   0.58864678  0.91280921  0.40887161
   0.50732861  0.98349752  0.49714629
   0.41248018  0.10828549  0.57463933
   0.30934234  0.17005927  0.66317103
   0.29527261  0.16120469  0.84512724
   0.25529841  0.27283403  0.92164522
   0.15015984  0.30989339  0.00357150
   0.09140225  0.40779163  0.08285549
   0.99787290  0.50266376  0.15858995
   0.90201750  0.56306108  0.24572206
   0.85200864  0.65585405  0.35416330
   0.74470341  0.73219559  0.40454745
   0.67799207  0.82171920  0.50401347
   0.58182131  0.89821481  0.55168607
   0.48844682  0.98835954  0.64927141
   0.38400685  0.08484502  0.74493304
   0.41447762  0.08505683  0.89887145
   0.35601317  0.19290551  0.98399508
   0.26922024  0.24741099  0.08857071
   0.18895576  0.33604961  0.18591627
   0.05952795  0.42488564  0.24471993
   0.01410911  0.49533258  0.33024198
   0.94577878  0.58787514  0.39745900
   0.84685292  0.66203396  0.47595530
   0.76106019  0.73082795  0.56326776
   0.66680535  0.82058078  0.64239127
   0.57939692  0.92060199  0.74817528
   0.48941140  0.00381247  0.80009781
   0.51985653  0.99743190  0.00470579
   0.42886288  0.09453352  0.06079223
   0.32779030  0.14119168  0.17009977
   0.24188044  0.23617608  0.27335931
   0.16597102  0.34485558  0.33740567
   0.09093295  0.43562901  0.42227844
   0.02078729  0.52692897  0.49569089
   0.95008863  0.58914361  0.59363411
   0.82064006  0.65270396  0.68670343
   0.76526259  0.75680601  0.70952583
   0.68612968  0.81061594  0.81498580
   0.55920036  0.92939493  0.87983970
   0.60019963  0.92680298  0.09584721
   0.51963553  0.99680005  0.16542445
   0.43413387  0.06741224  0.22612536
   0.34116513  0.14182970  0.32617911
   0.21765377  0.25149245  0.40680130
   0.15025266  0.32694508  0.51912048
   0.08354813  0.42788125  0.58550552
   0.00295844  0.52606285  0.66458284
   0.92913101  0.59220412  0.74978305
   0.84172577  0.69182243  0.81236989
   0.74049741  0.71615557  0.91668542
   0.64440969  0.83410696  0.97678312
   0.69957527  0.82793512  0.15584636
   0.61047112  0.90571613  0.25515364
   0.49794367  0.02105238  0.31405559
   0.40899993  0.08180432  0.41734064
   0.31115261  0.18057388  0.52353146
   0.21882790  0.24421243  0.60773479
   0.15471632  0.33620254  0.67977664
   0.09522037  0.42836628  0.74615407
   0.99268714  0.49708200  0.85148503
   0.90242458  0.59311100  0.90884902
   0.80679719  0.63754162  0.02104564
   0.75587005  0.72856845  0.08077823
   0.32567643  0.34225756  0.66624618
   0.24793871  0.42741168  0.73708264
   0.18073340  0.49790360  0.84256468
   0.06629064  0.60951927  0.93221406
   0.99069769  0.68031283  0.99051546
   0.90125041  0.74989925  0.07497038
   0.83981605  0.83272450  0.17424523
   0.75850866  0.90405689  0.26423180
   0.68548389  0.00482247  0.33402076
   0.56924683  0.07268032  0.40306484
   0.49370117  0.17884942  0.50902893
   0.41063214  0.27280076  0.59778116
   0.39511779  0.24403458  0.76810103
   0.31147670  0.31861876  0.81154023
   0.22918518  0.40153405  0.92350067
   0.15292637  0.51722942  0.00993419
   0.09742107  0.58860136  0.09693252
   0.98546808  0.64955152  0.16013706
   0.93869951  0.73374735  0.26465982
   0.86493218  0.83788144  0.33887843
   0.75470386  0.91777621  0.41019626
   0.69365123  0.99491191  0.48806545
   0.57835556  0.07708226  0.57949221
   0.49054962  0.17368262  0.66196849
   0.48160774  0.15488674  0.82980477
   0.41686778  0.25648811  0.88500162
   0.32784918  0.36300521  0.98289101
   0.24266266  0.41346094  0.06697598
   0.17412658  0.48470208  0.18235813
   0.08406850  0.59072258  0.23943699
   0.01906879  0.63438339  0.31754972
   0.95293885  0.73561166  0.43006302
   0.83057834  0.82560023  0.46307760
   0.75495248  0.90084736  0.55852643
   0.67165943  0.97934130  0.65084227
   0.56048910  0.07558849  0.71968304
   0.57297964  0.07723424  0.91237910
   0.50202093  0.18390643  0.97428488
   0.41421679  0.26090921  0.08310014
   0.30669946  0.33724605  0.17347346
   0.26269959  0.42679225  0.27337507
   0.14302689  0.50427022  0.33116710
   0.10424837  0.56479988  0.40892566
   0.02359706  0.66380179  0.49699088
   0.93246594  0.73179925  0.59685392
   0.80518897  0.81934819  0.63352313
   0.76347917  0.92047852  0.74665550
   0.67991113  0.01837203  0.82602125
   0.66431460  0.98821326  0.98255050
   0.58793377  0.09948255  0.08099804
   0.49832047  0.16693312  0.14595613
   0.41395231  0.25395155  0.23803549
   0.34394435  0.31092078  0.34392112
   0.23107454  0.42490679  0.41248556
   0.18262282  0.51225697  0.51038972
   0.09019619  0.61818589  0.58477061
   0.04142689  0.68672936  0.67976448
   0.92650426  0.75962806  0.71347038
   0.82305504  0.80163443  0.83781671
   0.73542571  0.90826312  0.87840174
   0.76818381  0.92174816  0.07824259
   0.66293861  0.02686484  0.16390110
   0.60597535  0.10152120  0.24186924
   0.49255892  0.18104605  0.32753289
   0.39785677  0.22623741  0.44044508
   0.32180913  0.34126105  0.50677790
   0.26006545  0.39538483  0.56659403
   0.17550115  0.50691951  0.63529407
   0.07723570  0.58386526  0.75445520
   0.99852383  0.69559587  0.82018410
   0.91415229  0.72941552  0.92497766
   0.82547571  0.84737712  0.99346779
   0.40500325  0.41170392  0.56729490
   0.34253897  0.50082809  0.67283062
   0.23831548  0.58110176  0.74340117
   0.17351370  0.66609269  0.82586232
   0.11316939  0.75212217  0.89886625
   0.97840705  0.80940416  0.99667035
   0.91140117  0.92005376  0.08915627
   0.80559191  0.00284142  0.15777369
   0.77230035  0.12543476  0.23434244
   0.66250320  0.19068276  0.33075185
   0.59213813  0.25532820  0.41915989
   0.49482790  0.33469080  0.50520444
   0.48574139  0.33822271  0.67737909
   0.41416194  0.41393360  0.76406399
   0.29350903  0.48919184  0.84131558
   0.26746163  0.60432380  0.94127953
   0.16945100  0.67971373  0.01906791
   0.07507197  0.76420224  0.07445239
   0.98403061  0.82694585  0.16783936
   0.92038967  0.92440558  0.22635704
   0.83017521  0.00436596  0.32063834
   0.75779377  0.10361747  0.40949655
   0.66520966  0.18449910  0.51101875
   0.60440393  0.24430759  0.59328509
   0.56922114  0.24957546  0.74443774
   0.51534791  0.33515607  0.82619994
   0.39663677  0.42429791  0.89845449
   0.32482966  0.50790715  0.98906205
   0.24580817  0.54894051  0.09493145
   0.17216203  0.68196435  0.16271545
   0.08529469  0.78083553  0.22797025
   0.99739762  0.83382340  0.32518672
   0.93778294  0.91665882  0.41121200
   0.85949285  0.01609226  0.50066853
   0.72503327  0.09312455  0.59249507
   0.64589548  0.17948682  0.64988564
   0.64630909  0.14911467  0.80542236
   0.59173569  0.22538990  0.92888436
   0.49474937  0.34140927  0.00036601
   0.40165574  0.42374954  0.10158187
   0.33861980  0.51432160  0.14466332
   0.24693562  0.58001151  0.25841888
   0.15761417  0.68775838  0.33546700
   0.06210859  0.74329227  0.41094120
   0.01207249  0.83172173  0.51056204
   0.89931305  0.90795535  0.57763556
   0.80524543  0.00187076  0.64648685
   0.74266535  0.09224158  0.72778934
   0.73704881  0.08368790  0.90103921
   0.67844809  0.19724013  0.00385783
   0.57301325  0.28755659  0.08911941
   0.48575024  0.35899584  0.16562308
   0.38462440  0.42114611  0.26212887
   0.30938269  0.49693152  0.34975102
   0.22869266  0.59927629  0.40700913
   0.16304891  0.66429577  0.50270524
   0.10231748  0.74757008  0.57186806
   0.02760104  0.85241417  0.68172770
   0.89940585  0.92645128  0.72951741
   0.82233982  0.01599584  0.83295294
   0.80715158  0.02216677  0.01383144
   0.72481360  0.11044091  0.08632994
   0.65626863  0.20213813  0.20079811
   0.56150927  0.26322106  0.24834301
   0.48357949  0.31887149  0.35072306
   0.41282150  0.40692853  0.43922506
   0.31088602  0.51647767  0.48299624
   0.26343916  0.59826494  0.57291879
   0.16653111  0.69159202  0.66629941
   0.10247024  0.77719177  0.75282448
   0.97847503  0.83220264  0.83137004
   0.87563216  0.92378287  0.91724898
