       N       E                     dE             d eps       ncg     rms          rms(c)
DAV:   1    -0.295130692386E+03   -0.29513E+03   -0.12110E+05  4040   0.652E+02
DAV:   2    -0.885926340195E+03   -0.59080E+03   -0.54148E+03  4636   0.662E+01
DAV:   3    -0.928159295039E+03   -0.42233E+02   -0.38553E+02  5240   0.140E+01
DAV:   4    -0.929620820738E+03   -0.14615E+01   -0.14381E+01  4688   0.282E+00
DAV:   5    -0.929654950334E+03   -0.34130E-01   -0.34061E-01  4904   0.457E-01    0.867E+00
DAV:   6    -0.923589137896E+03    0.60658E+01   -0.86926E+00  4600   0.354E+00    0.592E+00
DAV:   7    -0.922127689366E+03    0.14614E+01   -0.69611E+00  4672   0.347E+00    0.493E+00
DAV:   8    -0.919371476813E+03    0.27562E+01   -0.37500E+00  4656   0.236E+00    0.286E+00
DAV:   9    -0.918794402236E+03    0.57707E+00   -0.23249E+00  4592   0.139E+00    0.172E+00
DAV:  10    -0.918655934423E+03    0.13847E+00   -0.10105E+00  4688   0.101E+00    0.124E+00
DAV:  11    -0.918522963026E+03    0.13297E+00   -0.38056E-01  4512   0.549E-01    0.597E-01
DAV:  12    -0.918523180619E+03   -0.21759E-03   -0.84261E-02  4544   0.269E-01    0.422E-01
DAV:  13    -0.918515221873E+03    0.79587E-02   -0.35116E-02  4664   0.212E-01    0.302E-01
DAV:  14    -0.918510219735E+03    0.50021E-02   -0.10719E-02  4576   0.126E-01    0.171E-01
DAV:  15    -0.918509498974E+03    0.72076E-03   -0.51507E-03  4696   0.942E-02    0.129E-01
DAV:  16    -0.918507595202E+03    0.19038E-02   -0.26676E-03  4576   0.612E-02    0.554E-02
DAV:  17    -0.918507503692E+03    0.91510E-04   -0.10407E-03  4360   0.280E-02    0.282E-02
DAV:  18    -0.918507496884E+03    0.68077E-05   -0.23132E-04  4840   0.170E-02    0.238E-02
DAV:  19    -0.918507430946E+03    0.65938E-04   -0.89408E-05  4632   0.108E-02    0.114E-02
DAV:  20    -0.918507416212E+03    0.14733E-04   -0.36280E-05  4296   0.592E-03    0.558E-03
DAV:  21    -0.918507412199E+03    0.40132E-05   -0.12822E-05  2224   0.334E-03
   1 F= -.91850741E+03 E0= -.91844240E+03  d E =-.130022E+00
