Li                                      
           1
   -10.853500   18.798813    0.000000
   -18.606000  -10.742179    0.000000
     0.000000    0.000000   22.765000
   Li
   504
Direct configuration=     1
   0.99417552  0.00419767  0.98558622
   0.95107238  0.03294093  0.67046380
   0.86525423  0.06977593  0.33741501
   0.78311507  0.14253402  0.03042606
   0.69583749  0.18161945  0.69857866
   0.63756333  0.21081885  0.33929015
   0.57085524  0.24594902  0.00551783
   0.50827689  0.30370314  0.69063064
   0.39431287  0.34787940  0.31792342
   0.35983403  0.36188794  0.99508538
   0.27315642  0.42269962  0.68527313
   0.20196407  0.46218634  0.32510680
   0.09596819  0.04102278  0.66147893
   0.01755906  0.05929417  0.32146036
   0.92219714  0.12917227  0.99750152
   0.86166083  0.16231693  0.66308844
   0.78123509  0.19787382  0.31603035
   0.70039219  0.26006869  0.01412323
   0.65803471  0.28182194  0.69276286
   0.56354344  0.31707229  0.32990235
   0.49752551  0.35657352  0.98486477
   0.42496854  0.42517651  0.67579788
   0.33759695  0.46865128  0.35315778
   0.26363603  0.49366251  0.00304541
   0.16982835  0.05696064  0.33620575
   0.05766200  0.13057200  0.98755701
   0.99443227  0.18393223  0.65699490
   0.93216891  0.18724299  0.31893948
   0.84284305  0.27231269  0.99936954
   0.77815178  0.29371935  0.66174151
   0.69146643  0.35262082  0.33840026
   0.63517016  0.38013741  0.98482707
   0.56632359  0.42004576  0.67191556
   0.47691616  0.45229897  0.32539428
   0.41226973  0.47954274  0.98860445
   0.36369351  0.56142973  0.64685430
   0.21816788  0.12345688  0.00243594
   0.12300625  0.17872866  0.65896272
   0.08437003  0.20378576  0.32108105
   0.00441506  0.24424553  0.98746346
   0.90570521  0.31572323  0.67218981
   0.85735238  0.31698408  0.34036119
   0.74564818  0.38614110  0.00202861
   0.71125429  0.40553426  0.66249695
   0.60977695  0.45383403  0.34423961
   0.55936151  0.49089508  0.99516625
   0.49848049  0.53862981  0.66792697
   0.39904855  0.58270227  0.32147921
   0.30109273  0.18116756  0.65985221
   0.20775728  0.20117960  0.32969063
   0.14915761  0.24809029  0.98981750
   0.04898345  0.31464565  0.64676202
   0.99261638  0.32485194  0.32487414
   0.91111712  0.38197569  0.99409541
   0.84804587  0.42564716  0.63368966
   0.76925866  0.43676619  0.34048016
   0.69073475  0.50117879  0.98780817
   0.64789600  0.52467860  0.65743576
   0.56253418  0.58945015  0.33190039
   0.48067704  0.60919497  0.99359255
   0.34430797  0.19426513  0.34849784
   0.28498418  0.23447869  0.99754187
   0.20094269  0.29538332  0.66584314
   0.13016565  0.34160364  0.31684851
   0.06441212  0.37559479  0.00040216
   0.98171717  0.42596347  0.67339037
   0.92075841  0.45763917  0.31164296
   0.83973589  0.48963905  0.01468347
   0.78460858  0.55045489  0.65749727
   0.69815342  0.57809488  0.32944537
   0.62108815  0.61286350  0.98988016
   0.56016505  0.65354309  0.66683459
   0.43435032  0.24972785  0.98835450
   0.36656921  0.31100416  0.64922642
   0.27384609  0.31379404  0.33285441
   0.21135754  0.37362829  0.99939060
   0.11387518  0.42818606  0.67068804
   0.06163713  0.47224784  0.33153526
   0.99041236  0.49262270  0.99673132
   0.93022870  0.55372560  0.64152075
   0.84492466  0.57753292  0.32434918
   0.77710151  0.61813822  0.99715318
   0.68841061  0.68144686  0.66477174
   0.66539570  0.70519499  0.32739708
   0.14065736  0.51415828  0.01454072
   0.07978534  0.55460391  0.65940368
   0.00202123  0.57356447  0.33874688
   0.92524648  0.60354863  0.00255426
   0.86045511  0.67873952  0.66647614
   0.79093647  0.68304901  0.34456649
   0.70157419  0.73995311  0.98144759
   0.22035517  0.56530330  0.67195427
   0.14083434  0.60235694  0.34646591
   0.08471629  0.62025506  0.00265911
   0.00686435  0.67568941  0.65738493
   0.92916252  0.69298374  0.32330206
   0.85260677  0.72277346  0.00588565
   0.79912372  0.78530918  0.66899922
   0.28352937  0.59223970  0.36328853
   0.20769818  0.61031671  0.01469486
   0.14207595  0.69960518  0.68109762
   0.06219467  0.71660514  0.33497855
   0.98427893  0.74463177  0.01049493
   0.94350623  0.77954269  0.66690675
   0.85517185  0.82801899  0.33387090
   0.35053044  0.64084429  0.01096679
   0.28922025  0.66839185  0.67943842
   0.21373186  0.70538080  0.33908329
   0.14376452  0.76198477  0.99852657
   0.09771502  0.80928713  0.68484076
   0.00065190  0.83353037  0.31894110
   0.93872925  0.88853661  0.00473808
   0.42533490  0.67289180  0.66176716
   0.36107200  0.70345440  0.33180497
   0.27948921  0.74439533  0.01789868
   0.24305950  0.79402087  0.67626884
   0.15210704  0.82637692  0.32369048
   0.06942720  0.87690208  0.00802869
   0.01432176  0.91812301  0.66573334
   0.93672026  0.95965260  0.32800937
   0.84488557  0.01102075  0.99703657
   0.80655961  0.03842822  0.67620343
   0.71059546  0.07367682  0.34047767
   0.63875247  0.11044302  0.01137265
   0.56802721  0.16721433  0.67966921
   0.49749920  0.19393030  0.31769349
   0.08555834  0.95256266  0.32168133
   0.14691167  0.00826480  0.99892786
   0.23633288  0.05759306  0.67518943
   0.29557358  0.07353933  0.33171861
   0.35884432  0.11783299  0.99827266
   0.44243864  0.18748126  0.67443254
   0.87319940  0.91228467  0.66684131
   0.80130703  0.95993417  0.32708372
   0.71753163  0.99697829  0.00235765
   0.63420578  0.04476441  0.68536310
   0.58833120  0.07571737  0.33426579
   0.49369162  0.12931025  0.01497417
   0.18487668  0.92842951  0.66920536
   0.22937362  0.94097421  0.32318547
   0.28415165  0.98557504  0.00661857
   0.37195349  0.07064328  0.65878964
   0.43876693  0.07415787  0.34470326
   0.77407906  0.87087877  0.99076627
   0.73151991  0.93091938  0.68163380
   0.67281433  0.94886497  0.33498745
   0.57150307  0.00509997  0.99619156
   0.50449208  0.04223661  0.67368125
   0.22120840  0.87492125  0.99785086
   0.31380829  0.92692294  0.64890228
   0.38627982  0.95150466  0.34306719
   0.42640495  0.00208097  0.99636985
   0.73554123  0.83054656  0.33219970
   0.62411948  0.87311917  0.01490047
   0.57830377  0.91779626  0.66223632
   0.53272238  0.95994836  0.34189248
   0.31311274  0.81907491  0.33427569
   0.37321928  0.87325184  0.01653911
   0.44958711  0.93581156  0.65878102
   0.64379960  0.81334886  0.67011495
   0.60256340  0.82755051  0.31428355
   0.50054055  0.86797788  0.99327344
   0.37005570  0.82257719  0.65261092
   0.45753112  0.81701939  0.35052409
   0.58298128  0.74542388  0.00515091
   0.51440147  0.79905200  0.65922479
   0.44200003  0.76314173  0.99871908
   0.51534360  0.71375776  0.34476117
   0.00941470  0.98558739  0.78165583
   0.91437107  0.04505618  0.44386993
   0.85421782  0.09134286  0.12221552
   0.79052098  0.12370780  0.79242243
   0.71490274  0.18517424  0.45224204
   0.64466032  0.20558939  0.11269777
   0.57331406  0.20873836  0.78639180
   0.49958724  0.28454054  0.44327435
   0.42962245  0.32902370  0.12486638
   0.34412288  0.38265520  0.79970240
   0.25387795  0.41359092  0.44792307
   0.18783751  0.44476912  0.11828632
   0.07179797  0.02857002  0.44421870
   0.00599947  0.10842408  0.10010025
   0.93016935  0.10458361  0.75460614
   0.85294154  0.16605919  0.43422369
   0.76776369  0.22075914  0.12892050
   0.74178074  0.24886257  0.80344199
   0.62185332  0.28962421  0.45994167
   0.57210146  0.34263820  0.12123107
   0.49320180  0.36016537  0.77755178
   0.40671815  0.42807033  0.43237136
   0.32829599  0.44650957  0.12054598
   0.26035601  0.51389025  0.77266456
   0.11812109  0.07940471  0.08355681
   0.06439116  0.11025550  0.77901621
   0.99070639  0.16039455  0.41923242
   0.90494979  0.23775922  0.08886913
   0.85356768  0.25123673  0.78543476
   0.76950638  0.29807002  0.43249873
   0.69315855  0.33770514  0.11041898
   0.63091296  0.35579161  0.78585144
   0.56012882  0.42038720  0.44926929
   0.48101366  0.45888370  0.11996482
   0.42123787  0.49248584  0.78801777
   0.34328242  0.53253129  0.44694614
   0.21895278  0.13399494  0.76631391
   0.14946865  0.15750706  0.43389053
   0.05093136  0.21143109  0.10926479
   0.98594908  0.25215482  0.77063126
   0.92208979  0.28570736  0.44270695
   0.83899991  0.37189017  0.11344455
   0.78983280  0.36852202  0.75226106
   0.69001946  0.42071852  0.45212620
   0.63632560  0.45843696  0.08670579
   0.55877384  0.49337282  0.76704093
   0.48545571  0.52988339  0.44572098
   0.41713677  0.55799048  0.10687341
   0.26853606  0.15183781  0.44534929
   0.21793021  0.19668128  0.11641240
   0.12491306  0.24552569  0.76831203
   0.06189409  0.28072932  0.43177039
   0.98256751  0.33572844  0.09349853
   0.92356189  0.38902841  0.76408973
   0.85126204  0.40549064  0.44587600
   0.75585746  0.47257712  0.12428271
   0.71579419  0.47946882  0.75223337
   0.63916672  0.54671153  0.43738663
   0.58373458  0.57139101  0.10087844
   0.49407346  0.63389099  0.76846658
   0.34908369  0.20700900  0.10456438
   0.25199163  0.27408011  0.75985502
   0.20011843  0.30309422  0.42932085
   0.13139337  0.32803449  0.08893735
   0.05384931  0.36429522  0.77466660
   0.98221223  0.42398272  0.43276422
   0.92258858  0.45352581  0.11875339
   0.84755707  0.50456796  0.76091688
   0.78536893  0.54821933  0.45022902
   0.72153977  0.59751038  0.10515510
   0.64511767  0.60131424  0.75850697
   0.57640715  0.65175395  0.44001686
   0.41676333  0.26333319  0.79547680
   0.34340406  0.27217756  0.45165099
   0.27717105  0.30672878  0.10307454
   0.19341226  0.39353216  0.78794156
   0.13575977  0.42143354  0.44368193
   0.05335772  0.44337746  0.11912643
   0.01520408  0.50789310  0.75820395
   0.91242420  0.54482080  0.43547264
   0.85164937  0.58112385  0.13206816
   0.78298353  0.64233187  0.75610253
   0.73168463  0.66662353  0.45968667
   0.64030398  0.70854379  0.11241663
   0.12705372  0.49970824  0.77195474
   0.06226942  0.53849360  0.44797956
   0.00999946  0.55562456  0.10963198
   0.93989270  0.60721033  0.76366740
   0.86062890  0.67556417  0.42507450
   0.80011797  0.72531913  0.10185474
   0.72499476  0.75470297  0.77075243
   0.19925245  0.53377729  0.47389387
   0.15516119  0.58858745  0.14040889
   0.08306581  0.64554672  0.79629051
   0.99016136  0.67713701  0.43581271
   0.94130485  0.68190147  0.10916788
   0.86982617  0.73941488  0.77313138
   0.80298064  0.80904712  0.46074085
   0.28639263  0.56838811  0.11580932
   0.21197166  0.63367782  0.77567498
   0.14821644  0.66739227  0.45285033
   0.08200218  0.68424352  0.12232120
   0.01335731  0.75974667  0.77458583
   0.92791994  0.79634984  0.45160220
   0.87646606  0.84728151  0.09038872
   0.36047071  0.61762773  0.77421964
   0.27475750  0.67823701  0.45940225
   0.22376164  0.69094715  0.12588467
   0.18735442  0.76739486  0.79496735
   0.06357388  0.79180540  0.44428747
   0.01421584  0.83351352  0.11725293
   0.94225240  0.86495840  0.76869841
   0.42385930  0.66979462  0.45329243
   0.37991414  0.70835105  0.12945462
   0.30158648  0.76527604  0.79069407
   0.21922698  0.80247611  0.45375460
   0.15518544  0.81698983  0.11774730
   0.07217363  0.89601266  0.78237663
   0.99878477  0.91869338  0.43246984
   0.92176184  0.97042706  0.10504357
   0.85382210  0.00284551  0.78133319
   0.76524567  0.04417839  0.44788883
   0.72334801  0.08466960  0.11129172
   0.63422051  0.11905098  0.80549000
   0.55849331  0.15902445  0.44822016
   0.50055939  0.21972552  0.11592508
   0.05777447  0.94506801  0.10178096
   0.14467406  0.00645838  0.76249447
   0.19295749  0.03424691  0.44053618
   0.27897304  0.08687172  0.11901348
   0.35331294  0.13976870  0.78039172
   0.42081137  0.16830651  0.46218690
   0.87901783  0.90167324  0.44571271
   0.79625769  0.96309931  0.11388582
   0.72278091  0.01054736  0.78868763
   0.61758814  0.03363658  0.45488380
   0.57613433  0.07554448  0.10787380
   0.47905401  0.10734900  0.79547761
   0.15718283  0.90537902  0.44029840
   0.20875808  0.97021718  0.10107750
   0.29652193  0.99879738  0.78150352
   0.34125260  0.04180042  0.44736503
   0.43604653  0.09236928  0.09401201
   0.79895920  0.86429644  0.77837164
   0.72600659  0.92230949  0.45583229
   0.65372176  0.97443643  0.11915634
   0.55034257  0.99691894  0.77631570
   0.48139155  0.05071872  0.46335642
   0.24662184  0.89049521  0.78376757
   0.29474641  0.90676647  0.41874093
   0.37227967  0.94925080  0.11001134
   0.42257073  0.00381831  0.75772145
   0.71881163  0.82970865  0.08870463
   0.63867162  0.89834102  0.78843209
   0.58225013  0.91395694  0.44048789
   0.50546416  0.95152218  0.11604524
   0.28495242  0.82113940  0.10871166
   0.35574731  0.88299622  0.77916646
   0.44755286  0.90132728  0.44442246
   0.65229952  0.79097108  0.45917600
   0.57959906  0.83253553  0.11773670
   0.49758729  0.88849517  0.76751331
   0.35925503  0.78468233  0.44342765
   0.45120025  0.82132794  0.13828106
   0.58031519  0.74432060  0.76155718
   0.53164177  0.78014030  0.44461197
   0.45531987  0.76498268  0.76666575
   0.49204557  0.67914731  0.11046262
   0.01662611  0.99320963  0.21233515
   0.92246335  0.05512914  0.88745251
   0.88335167  0.09200641  0.55932909
   0.79933319  0.10515370  0.23558117
   0.71974286  0.16167065  0.92150770
   0.62712350  0.20243594  0.56332990
   0.57324170  0.24341659  0.22565682
   0.50975981  0.29584738  0.88607832
   0.43258163  0.33100314  0.55708526
   0.36438618  0.38832731  0.21850100
   0.27341231  0.44278205  0.87086414
   0.18988092  0.46818995  0.57631392
   0.05790728  0.05405790  0.88885840
   0.01441917  0.11008429  0.54865984
   0.94046698  0.13297764  0.21307239
   0.86016751  0.18707678  0.89833595
   0.78230304  0.20197400  0.56333548
   0.71074449  0.25742968  0.22288877
   0.62906479  0.28414184  0.90749569
   0.56914962  0.33466171  0.57157504
   0.49754344  0.35929663  0.23027009
   0.41349281  0.42856682  0.89266876
   0.32862763  0.45449950  0.56329526
   0.26807437  0.51267008  0.22855880
   0.14752098  0.10115898  0.53829549
   0.07959355  0.11930820  0.22684395
   0.98545733  0.17368834  0.87198597
   0.93654787  0.23602396  0.54424361
   0.84848456  0.24163801  0.20993054
   0.80235274  0.29552151  0.89032287
   0.70608484  0.35973633  0.54571168
   0.63551802  0.38347646  0.22357076
   0.56934937  0.41504560  0.87872528
   0.47772649  0.46082695  0.54726321
   0.41953288  0.49539565  0.22693255
   0.34898125  0.54847652  0.88459834
   0.21655751  0.11958249  0.21577695
   0.13321563  0.14525338  0.88424167
   0.07851351  0.22641680  0.53943051
   0.99230745  0.23754869  0.19217426
   0.92501069  0.30923115  0.88569065
   0.82800481  0.33909225  0.53454145
   0.78712512  0.38264987  0.22818977
   0.71537199  0.40738298  0.88328663
   0.61682716  0.46211317  0.55781282
   0.55575658  0.49466882  0.21609646
   0.50331093  0.56050833  0.87523311
   0.41731259  0.56912554  0.54985642
   0.28185886  0.18538042  0.87841586
   0.20690254  0.22278755  0.54595361
   0.14727756  0.28728761  0.20973583
   0.07401750  0.28256435  0.88808365
   0.99469557  0.33608673  0.55457747
   0.93668287  0.35467933  0.22791669
   0.84389343  0.43141061  0.90023460
   0.76660720  0.49071058  0.55265054
   0.69597799  0.51003090  0.22787382
   0.62882562  0.52226184  0.87550333
   0.54992148  0.58842899  0.55350466
   0.48034749  0.62234347  0.21256915
   0.35777835  0.20708395  0.54511708
   0.31415243  0.22994485  0.22715099
   0.19563037  0.27709464  0.87677940
   0.13797086  0.35349750  0.53670247
   0.07558176  0.37309856  0.20833382
   0.97569081  0.42318929  0.87499777
   0.93028726  0.46314958  0.54380139
   0.85877792  0.49537528  0.23085287
   0.77111218  0.53713536  0.86508768
   0.71326863  0.58093609  0.56029644
   0.62684359  0.62417771  0.23620288
   0.57559911  0.68777588  0.88941759
   0.43652539  0.25906936  0.23937447
   0.35313314  0.31430556  0.89465082
   0.29996364  0.34143005  0.54987062
   0.22919119  0.37769161  0.21588825
   0.12926662  0.41784123  0.91105517
   0.07424370  0.46749032  0.55286188
   0.00445255  0.48518916  0.22167972
   0.90772748  0.53990902  0.87497236
   0.84345292  0.58273343  0.54875360
   0.76564076  0.63122669  0.22627453
   0.71465477  0.65895220  0.87661607
   0.64033526  0.69793015  0.57842898
   0.11968664  0.48495846  0.23125298
   0.06095996  0.53231507  0.88358146
   0.00202787  0.58999880  0.54762287
   0.93557193  0.63020252  0.21534675
   0.85774323  0.64779911  0.88778833
   0.78334564  0.70861212  0.55158028
   0.70345223  0.76015895  0.22395827
   0.19204197  0.55862698  0.88866530
   0.14332223  0.61722699  0.55533433
   0.06286270  0.61669669  0.24348933
   0.01134074  0.66084110  0.89196787
   0.90140404  0.69656874  0.54726118
   0.86564473  0.74316000  0.22336748
   0.79341432  0.76597559  0.88093193
   0.27802966  0.59864400  0.57954353
   0.22429197  0.63141304  0.23729217
   0.12296517  0.67024919  0.90384541
   0.07366617  0.70874045  0.55013167
   0.02635222  0.74661492  0.23108984
   0.93517184  0.77630045  0.87538147
   0.88985748  0.84345330  0.56090857
   0.33931924  0.60669225  0.22340615
   0.28048191  0.67100220  0.89425548
   0.21138470  0.71103727  0.57364540
   0.16697592  0.72589218  0.24248484
   0.06898803  0.78387332  0.89682383
   0.01119592  0.82525738  0.55073944
   0.93419619  0.87852755  0.23217742
   0.43100607  0.68107922  0.89589066
   0.36114762  0.72279321  0.58019028
   0.31267088  0.75155042  0.21358209
   0.23032920  0.80664749  0.90233350
   0.15725748  0.84904869  0.55513336
   0.09244343  0.86757392  0.22286384
   0.00881612  0.91288752  0.88908055
   0.96083687  0.96811421  0.54301827
   0.85978282  0.97586099  0.22195563
   0.80566617  0.03941488  0.89904323
   0.74147717  0.08182217  0.56734607
   0.66052110  0.13812579  0.21358512
   0.56016077  0.14658725  0.90324192
   0.49904423  0.21341453  0.55757138
   0.09509380  0.95237322  0.54598012
   0.16713889  0.97987251  0.21660834
   0.23203914  0.03114690  0.88483756
   0.27711596  0.07799995  0.56578737
   0.37378066  0.11898443  0.24345857
   0.45019509  0.16344240  0.90295258
   0.87365781  0.88905179  0.86640069
   0.82341372  0.95765138  0.56652132
   0.73850766  0.98912832  0.23358032
   0.65125566  0.01727597  0.88040204
   0.56524281  0.08302142  0.57185228
   0.49908789  0.11445520  0.21562037
   0.14354269  0.91183520  0.88669454
   0.22739949  0.97057519  0.54887385
   0.31289049  0.97581602  0.22082230
   0.37344256  0.05263302  0.88624839
   0.43626578  0.07572918  0.58380301
   0.80272103  0.87102855  0.20807846
   0.73173815  0.90557777  0.89550939
   0.66069651  0.97480139  0.54418662
   0.57893330  0.00711790  0.21297875
   0.51399179  0.01809099  0.89617853
   0.23689970  0.86180767  0.22158740
   0.30985110  0.92351783  0.89553238
   0.36443234  0.94763491  0.54323006
   0.45068929  0.99679166  0.20551749
   0.72663707  0.83954593  0.55998086
   0.66333245  0.88533129  0.22769170
   0.59074649  0.91047044  0.89984257
   0.50796323  0.93600407  0.55329617
   0.28486609  0.84811552  0.55782419
   0.35819971  0.87592799  0.23480906
   0.44770325  0.90281508  0.89167526
   0.64462798  0.78130465  0.88284513
   0.60509915  0.83672049  0.55393927
   0.51813011  0.88422261  0.22931083
   0.36882870  0.78645336  0.89393524
   0.41517070  0.83621510  0.54801021
   0.56229927  0.75307796  0.23228636
   0.51635631  0.79749714  0.88771063
   0.44656003  0.73909377  0.23954010
   0.50471239  0.69715817  0.54956225
