 432 432   0   0
  0.2035379E+02  0.2064000E-08  0.2064000E-08  0.2064000E-08  0.5000000E-15
  1.000000000000000E-004
  CAR 
 Li                                      
      3.56623604     -3.44527933  301      0.39389708      1.00000000
     -3.445  0.0000E+00  0.0000E+00
     -3.422  0.0000E+00  0.0000E+00
     -3.399  0.0000E+00  0.0000E+00
     -3.375  0.0000E+00  0.0000E+00
     -3.352  0.0000E+00  0.0000E+00
     -3.328  0.0000E+00  0.0000E+00
     -3.305  0.0000E+00  0.0000E+00
     -3.282  0.1078E-10  0.2519E-12
     -3.258  0.2179E-07  0.5095E-09
     -3.235  0.1344E-04  0.3147E-06
     -3.212  0.2555E-02  0.6003E-04
     -3.188  0.1516E+00  0.3603E-02
     -3.165  0.2859E+01  0.7042E-01
     -3.141  0.1749E+02  0.4793E+00
     -3.118  0.3540E+02  0.1307E+01
     -3.095  0.2391E+02  0.1865E+01
     -3.071  0.5563E+01  0.1995E+01
     -3.048  0.4197E+01  0.2094E+01
     -3.025  0.2576E+02  0.2696E+01
     -3.001  0.7044E+02  0.4342E+01
     -2.978  0.8800E+02  0.6399E+01
     -2.954  0.5278E+02  0.7633E+01
     -2.931  0.1484E+02  0.7979E+01
     -2.908  0.9843E+01  0.8209E+01
     -2.884  0.3934E+02  0.9129E+01
     -2.861  0.8074E+02  0.1102E+02
     -2.838  0.8057E+02  0.1290E+02
     -2.814  0.3869E+02  0.1380E+02
     -2.791  0.1065E+02  0.1405E+02
     -2.767  0.2352E+02  0.1460E+02
     -2.744  0.7644E+02  0.1639E+02
     -2.721  0.1160E+03  0.1910E+02
     -2.697  0.8726E+02  0.2114E+02
     -2.674  0.3320E+02  0.2191E+02
     -2.651  0.2083E+02  0.2240E+02
     -2.627  0.6685E+02  0.2396E+02
     -2.604  0.1350E+03  0.2712E+02
     -2.581  0.1543E+03  0.3072E+02
     -2.557  0.1016E+03  0.3310E+02
     -2.534  0.3390E+02  0.3389E+02
     -2.510  0.1062E+02  0.3414E+02
     -2.487  0.3839E+02  0.3504E+02
     -2.464  0.9225E+02  0.3719E+02
     -2.440  0.8567E+02  0.3920E+02
     -2.417  0.3111E+02  0.3992E+02
     -2.394  0.1378E+02  0.4024E+02
     -2.370  0.5057E+02  0.4143E+02
     -2.347  0.1213E+03  0.4426E+02
     -2.323  0.1560E+03  0.4791E+02
     -2.300  0.1186E+03  0.5068E+02
     -2.277  0.5353E+02  0.5193E+02
     -2.253  0.4313E+02  0.5294E+02
     -2.230  0.1060E+03  0.5542E+02
     -2.207  0.1840E+03  0.5971E+02
     -2.183  0.2073E+03  0.6456E+02
     -2.160  0.1524E+03  0.6812E+02
     -2.136  0.6611E+02  0.6967E+02
     -2.113  0.2555E+02  0.7026E+02
     -2.090  0.4654E+02  0.7135E+02
     -2.066  0.8081E+02  0.7324E+02
     -2.043  0.7504E+02  0.7499E+02
     -2.020  0.3694E+02  0.7586E+02
     -1.996  0.2417E+02  0.7642E+02
     -1.973  0.6982E+02  0.7805E+02
     -1.949  0.1437E+03  0.8141E+02
     -1.926  0.1764E+03  0.8553E+02
     -1.903  0.1313E+03  0.8860E+02
     -1.879  0.5519E+02  0.8989E+02
     -1.856  0.4235E+02  0.9088E+02
     -1.833  0.1149E+03  0.9357E+02
     -1.809  0.2016E+03  0.9828E+02
     -1.786  0.2131E+03  0.1033E+03
     -1.763  0.1383E+03  0.1065E+03
     -1.739  0.5637E+02  0.1078E+03
     -1.716  0.3953E+02  0.1087E+03
     -1.692  0.9330E+02  0.1109E+03
     -1.669  0.1496E+03  0.1144E+03
     -1.646  0.1402E+03  0.1177E+03
     -1.622  0.7855E+02  0.1195E+03
     -1.599  0.4612E+02  0.1206E+03
     -1.576  0.9829E+02  0.1229E+03
     -1.552  0.1881E+03  0.1273E+03
     -1.529  0.2193E+03  0.1324E+03
     -1.505  0.1597E+03  0.1362E+03
     -1.482  0.7534E+02  0.1379E+03
     -1.459  0.6343E+02  0.1394E+03
     -1.435  0.1310E+03  0.1425E+03
     -1.412  0.2030E+03  0.1472E+03
     -1.389  0.2076E+03  0.1521E+03
     -1.365  0.1264E+03  0.1550E+03
     -1.342  0.4801E+02  0.1561E+03
     -1.318  0.5242E+02  0.1574E+03
     -1.295  0.1076E+03  0.1599E+03
     -1.272  0.1447E+03  0.1633E+03
     -1.248  0.1253E+03  0.1662E+03
     -1.225  0.6343E+02  0.1677E+03
     -1.202  0.3004E+02  0.1684E+03
     -1.178  0.6613E+02  0.1699E+03
     -1.155  0.1337E+03  0.1730E+03
     -1.131  0.1528E+03  0.1766E+03
     -1.108  0.1105E+03  0.1792E+03
     -1.085  0.8907E+02  0.1813E+03
     -1.061  0.1555E+03  0.1849E+03
     -1.038  0.2459E+03  0.1907E+03
     -1.015  0.2846E+03  0.1973E+03
     -0.991  0.2591E+03  0.2034E+03
     -0.968  0.1848E+03  0.2077E+03
     -0.945  0.1179E+03  0.2104E+03
     -0.921  0.1313E+03  0.2135E+03
     -0.898  0.1815E+03  0.2177E+03
     -0.874  0.1910E+03  0.2222E+03
     -0.851  0.1506E+03  0.2257E+03
     -0.828  0.8088E+02  0.2276E+03
     -0.804  0.5109E+02  0.2288E+03
     -0.781  0.1035E+03  0.2312E+03
     -0.758  0.1673E+03  0.2351E+03
     -0.734  0.1653E+03  0.2390E+03
     -0.711  0.1072E+03  0.2415E+03
     -0.687  0.8418E+02  0.2435E+03
     -0.664  0.1475E+03  0.2469E+03
     -0.641  0.2252E+03  0.2522E+03
     -0.617  0.2519E+03  0.2581E+03
     -0.594  0.2073E+03  0.2629E+03
     -0.571  0.1325E+03  0.2660E+03
     -0.547  0.1056E+03  0.2685E+03
     -0.524  0.9489E+02  0.2707E+03
     -0.500  0.4763E+02  0.2718E+03
     -0.477  0.2802E+02  0.2725E+03
     -0.454  0.7781E+02  0.2743E+03
     -0.430  0.1643E+03  0.2781E+03
     -0.407  0.2251E+03  0.2834E+03
     -0.384  0.2430E+03  0.2891E+03
     -0.360  0.2235E+03  0.2943E+03
     -0.337  0.1828E+03  0.2986E+03
     -0.313  0.1614E+03  0.3023E+03
     -0.290  0.1657E+03  0.3062E+03
     -0.267  0.1958E+03  0.3108E+03
     -0.243  0.2356E+03  0.3163E+03
     -0.220  0.2545E+03  0.3222E+03
     -0.197  0.2205E+03  0.3274E+03
     -0.173  0.1591E+03  0.3311E+03
     -0.150  0.1120E+03  0.3337E+03
     -0.126  0.1084E+03  0.3363E+03
     -0.103  0.1315E+03  0.3393E+03
     -0.080  0.1426E+03  0.3427E+03
     -0.056  0.1502E+03  0.3462E+03
     -0.033  0.1973E+03  0.3508E+03
     -0.010  0.2424E+03  0.3565E+03
      0.014  0.2633E+03  0.3626E+03
      0.037  0.2694E+03  0.3689E+03
      0.060  0.2414E+03  0.3745E+03
      0.084  0.1750E+03  0.3786E+03
      0.107  0.1334E+03  0.3818E+03
      0.131  0.1661E+03  0.3856E+03
      0.154  0.2089E+03  0.3905E+03
      0.177  0.2196E+03  0.3956E+03
      0.201  0.1925E+03  0.4001E+03
      0.224  0.1312E+03  0.4032E+03
      0.247  0.1010E+03  0.4056E+03
      0.271  0.1320E+03  0.4087E+03
      0.294  0.1624E+03  0.4125E+03
      0.318  0.1935E+03  0.4170E+03
      0.341  0.2125E+03  0.4219E+03
      0.364  0.1971E+03  0.4265E+03
      0.388  0.1840E+03  0.4309E+03
      0.411  0.1890E+03  0.4353E+03
      0.434  0.2016E+03  0.4400E+03
      0.458  0.2071E+03  0.4448E+03
      0.481  0.2076E+03  0.4497E+03
      0.505  0.1978E+03  0.4543E+03
      0.528  0.1762E+03  0.4584E+03
      0.551  0.1657E+03  0.4623E+03
      0.575  0.1788E+03  0.4665E+03
      0.598  0.2009E+03  0.4712E+03
      0.621  0.2059E+03  0.4760E+03
      0.645  0.2106E+03  0.4809E+03
      0.668  0.2159E+03  0.4859E+03
      0.692  0.2304E+03  0.4913E+03
      0.715  0.2529E+03  0.4972E+03
      0.738  0.2708E+03  0.5036E+03
      0.762  0.2751E+03  0.5100E+03
      0.785  0.2667E+03  0.5162E+03
      0.808  0.2521E+03  0.5221E+03
      0.832  0.2469E+03  0.5279E+03
      0.855  0.2465E+03  0.5337E+03
      0.878  0.2373E+03  0.5392E+03
      0.902  0.2305E+03  0.5446E+03
      0.925  0.2249E+03  0.5498E+03
      0.949  0.2231E+03  0.5551E+03
      0.972  0.2260E+03  0.5603E+03
      0.995  0.2285E+03  0.5657E+03
      1.019  0.2338E+03  0.5711E+03
      1.042  0.2324E+03  0.5766E+03
      1.065  0.2303E+03  0.5820E+03
      1.089  0.2321E+03  0.5874E+03
      1.112  0.2331E+03  0.5928E+03
      1.136  0.2260E+03  0.5981E+03
      1.159  0.2205E+03  0.6033E+03
      1.182  0.2206E+03  0.6084E+03
      1.206  0.2088E+03  0.6133E+03
      1.229  0.1883E+03  0.6177E+03
      1.252  0.1709E+03  0.6217E+03
      1.276  0.1758E+03  0.6258E+03
      1.299  0.1880E+03  0.6302E+03
      1.323  0.1983E+03  0.6348E+03
      1.346  0.2025E+03  0.6396E+03
      1.369  0.1871E+03  0.6439E+03
      1.393  0.1653E+03  0.6478E+03
      1.416  0.1303E+03  0.6508E+03
      1.439  0.1011E+03  0.6532E+03
      1.463  0.1149E+03  0.6559E+03
      1.486  0.1408E+03  0.6592E+03
      1.510  0.1402E+03  0.6625E+03
      1.533  0.1422E+03  0.6658E+03
      1.556  0.1567E+03  0.6695E+03
      1.580  0.1613E+03  0.6732E+03
      1.603  0.1622E+03  0.6770E+03
      1.626  0.1675E+03  0.6809E+03
      1.650  0.1721E+03  0.6849E+03
      1.673  0.1737E+03  0.6890E+03
      1.696  0.1642E+03  0.6928E+03
      1.720  0.1526E+03  0.6964E+03
      1.743  0.1575E+03  0.7001E+03
      1.767  0.1715E+03  0.7041E+03
      1.790  0.1707E+03  0.7081E+03
      1.813  0.1740E+03  0.7122E+03
      1.837  0.1881E+03  0.7166E+03
      1.860  0.1924E+03  0.7211E+03
      1.883  0.1880E+03  0.7254E+03
      1.907  0.1852E+03  0.7298E+03
      1.930  0.1822E+03  0.7340E+03
      1.954  0.1794E+03  0.7382E+03
      1.977  0.1804E+03  0.7424E+03
      2.000  0.1849E+03  0.7468E+03
      2.024  0.1680E+03  0.7507E+03
      2.047  0.1428E+03  0.7540E+03
      2.070  0.1434E+03  0.7574E+03
      2.094  0.1567E+03  0.7610E+03
      2.117  0.1585E+03  0.7647E+03
      2.141  0.1430E+03  0.7681E+03
      2.164  0.1296E+03  0.7711E+03
      2.187  0.1296E+03  0.7741E+03
      2.211  0.1358E+03  0.7773E+03
      2.234  0.1308E+03  0.7804E+03
      2.257  0.1120E+03  0.7830E+03
      2.281  0.1003E+03  0.7853E+03
      2.304  0.1041E+03  0.7878E+03
      2.328  0.1047E+03  0.7902E+03
      2.351  0.9383E+02  0.7924E+03
      2.374  0.7545E+02  0.7942E+03
      2.398  0.5221E+02  0.7954E+03
      2.421  0.2191E+02  0.7959E+03
      2.444  0.6951E+01  0.7961E+03
      2.468  0.2321E+02  0.7966E+03
      2.491  0.6767E+02  0.7982E+03
      2.515  0.8779E+02  0.8002E+03
      2.538  0.5572E+02  0.8015E+03
      2.561  0.1710E+02  0.8019E+03
      2.585  0.3549E+01  0.8020E+03
      2.608  0.1085E+02  0.8023E+03
      2.631  0.3369E+02  0.8031E+03
      2.655  0.5637E+02  0.8044E+03
      2.678  0.7264E+02  0.8061E+03
      2.701  0.8173E+02  0.8080E+03
      2.725  0.9406E+02  0.8102E+03
      2.748  0.1068E+03  0.8127E+03
      2.772  0.1153E+03  0.8154E+03
      2.795  0.1205E+03  0.8182E+03
      2.818  0.1149E+03  0.8209E+03
      2.842  0.1211E+03  0.8237E+03
      2.865  0.1324E+03  0.8268E+03
      2.888  0.1408E+03  0.8301E+03
      2.912  0.1455E+03  0.8335E+03
      2.935  0.1346E+03  0.8366E+03
      2.959  0.1190E+03  0.8394E+03
      2.982  0.1068E+03  0.8419E+03
      3.005  0.1009E+03  0.8443E+03
      3.029  0.8918E+02  0.8464E+03
      3.052  0.6523E+02  0.8479E+03
      3.075  0.4899E+02  0.8490E+03
      3.099  0.6098E+02  0.8505E+03
      3.122  0.7814E+02  0.8523E+03
      3.146  0.9293E+02  0.8545E+03
      3.169  0.1081E+03  0.8570E+03
      3.192  0.1137E+03  0.8596E+03
      3.216  0.1081E+03  0.8622E+03
      3.239  0.9064E+02  0.8643E+03
      3.262  0.5440E+02  0.8656E+03
      3.286  0.1652E+02  0.8660E+03
      3.309  0.2043E+01  0.8660E+03
      3.333  0.9208E-01  0.8660E+03
      3.356  0.1412E-02  0.8660E+03
      3.379  0.7036E-05  0.8660E+03
      3.403  0.1104E-07  0.8660E+03
      3.426  0.5349E-11  0.8660E+03
      3.449  0.0000E+00  0.8660E+03
      3.473  0.0000E+00  0.8660E+03
      3.496  0.0000E+00  0.8660E+03
      3.519  0.0000E+00  0.8660E+03
      3.543  0.0000E+00  0.8660E+03
      3.566  0.0000E+00  0.8660E+03
