Li                                      
           1
    20.640000    0.000000    0.000000
     0.000000   20.640000    0.000000
     0.000000    0.000000   20.640000
   Li
   432
Direct configuration=     1
   0.99560687  0.98745209  0.98814595
   0.92461467  0.07745926  0.07679709
   0.86802992  0.16567695  0.15722420
   0.75616931  0.23255532  0.20098097
   0.68662915  0.32165254  0.31940865
   0.60151191  0.40617568  0.40241272
   0.52043236  0.48187109  0.49464767
   0.43454591  0.57773313  0.58527164
   0.32778185  0.64000271  0.66050455
   0.26420773  0.74144420  0.74385335
   0.16841790  0.82832684  0.82162075
   0.09287391  0.92199990  0.91319642
   0.07521001  0.90954201  0.08870126
   0.99260773  0.00123336  0.18084693
   0.91027935  0.08417410  0.26152460
   0.80914228  0.18253131  0.33298288
   0.76492191  0.25489153  0.40799584
   0.66494177  0.32704198  0.49959958
   0.59671069  0.42834844  0.58173078
   0.51460100  0.50911426  0.68883500
   0.40857870  0.57644779  0.74615976
   0.31508899  0.65580957  0.82975882
   0.24537408  0.75206585  0.92095755
   0.16342665  0.82769701  0.01096420
   0.15934787  0.84312226  0.17000014
   0.07495500  0.90637763  0.27021551
   0.01329293  0.00681339  0.32923828
   0.90929435  0.08813777  0.41773483
   0.83677034  0.17514467  0.50226421
   0.74874802  0.24008941  0.58822863
   0.66378610  0.31201818  0.68860475
   0.58272413  0.41078700  0.75502442
   0.50050633  0.50860461  0.83943384
   0.39580671  0.57078063  0.89999815
   0.33716857  0.67333732  0.00585045
   0.22272005  0.72947520  0.06990866
   0.24374417  0.71934316  0.26015372
   0.16131563  0.80874314  0.33051788
   0.08848552  0.90910927  0.42051775
   0.00526409  0.00861738  0.48171942
   0.91436593  0.10299191  0.55358096
   0.82600588  0.17435029  0.66602771
   0.75853262  0.25080354  0.74751356
   0.67793021  0.34092315  0.85153035
   0.58111698  0.44237320  0.90673009
   0.50651132  0.50498110  0.99827944
   0.42730508  0.59791143  0.06987275
   0.31606852  0.66947379  0.14663469
   0.32295485  0.64724643  0.36123259
   0.24981047  0.76784621  0.42274063
   0.17120231  0.83232934  0.49395076
   0.07154189  0.89485060  0.59122769
   0.97571560  0.99988410  0.66119803
   0.88783524  0.08940104  0.76511864
   0.84222473  0.18994138  0.86360984
   0.74954820  0.23449148  0.94547507
   0.66041355  0.31883386  0.98142919
   0.57409227  0.41781812  0.06462102
   0.50095918  0.52026607  0.16892063
   0.40763629  0.58872539  0.25459157
   0.41407640  0.59281490  0.45201178
   0.31897431  0.68513535  0.49714130
   0.24668677  0.74772465  0.57950604
   0.17339965  0.83366594  0.67806165
   0.08939368  0.92435848  0.72138040
   0.00702021  0.99414408  0.82787077
   0.92067214  0.10100319  0.92862913
   0.84691697  0.17333621  0.99974398
   0.76601286  0.26456271  0.07828986
   0.67185483  0.33712906  0.15358498
   0.58095094  0.40552271  0.23853219
   0.49251153  0.51390215  0.34554996
   0.09749895  0.07789961  0.94240464
   0.99352653  0.18727077  0.99584652
   0.92214557  0.27834547  0.08096784
   0.83841042  0.35293971  0.15047033
   0.74813975  0.43198095  0.23262750
   0.65447785  0.50687731  0.32621361
   0.58192109  0.58815168  0.42946749
   0.51852332  0.69709821  0.51657894
   0.41276336  0.74429667  0.59910445
   0.31953541  0.83406332  0.65150324
   0.26431623  0.91595962  0.75661626
   0.16103034  0.00815079  0.83595184
   0.15725799  0.00275700  0.01808942
   0.07624203  0.09024331  0.08847313
   0.99351883  0.16709847  0.15895073
   0.91105648  0.25565793  0.24129511
   0.83776152  0.33062229  0.31315831
   0.76357489  0.41497678  0.42380220
   0.67587546  0.49505047  0.50221060
   0.58885145  0.58788852  0.59217331
   0.50966733  0.65125352  0.69306548
   0.38729359  0.74297900  0.75387929
   0.32468017  0.82623386  0.84461619
   0.24793334  0.91492937  0.94204481
   0.24790705  0.92386743  0.08974891
   0.14816439  0.99571748  0.18604174
   0.09705735  0.10878308  0.25172203
   0.00431744  0.14990068  0.34121258
   0.91560678  0.24907026  0.40612119
   0.84069191  0.30710270  0.48616524
   0.75547306  0.37606171  0.58729672
   0.68287718  0.49422152  0.68484906
   0.60043031  0.59637127  0.77481789
   0.50556263  0.65779804  0.85835214
   0.40335974  0.74807209  0.89308762
   0.32991262  0.80971455  0.00708577
   0.31447346  0.81485216  0.15568806
   0.24285920  0.89101140  0.26593101
   0.17568983  0.00698926  0.34230894
   0.08600224  0.08366455  0.41481625
   0.01920708  0.16093453  0.48775634
   0.91843438  0.24650335  0.58599172
   0.84070000  0.32396703  0.68298036
   0.75634203  0.41279231  0.74203010
   0.67645463  0.49165182  0.84326473
   0.60377026  0.57586783  0.93269994
   0.48610012  0.68247544  0.98377829
   0.41063384  0.75644160  0.09850004
   0.40840977  0.73900741  0.26240700
   0.32640514  0.82927897  0.33205939
   0.25085682  0.92262922  0.41297766
   0.15119699  0.98962593  0.49702383
   0.07863784  0.07797405  0.58300764
   0.98211567  0.17870871  0.64547327
   0.91958927  0.24639355  0.76395690
   0.83681686  0.33743203  0.84002929
   0.75859114  0.41823001  0.92398006
   0.64571127  0.50098371  0.99754067
   0.56819856  0.60895886  0.08341752
   0.48244007  0.65685691  0.15469226
   0.48945163  0.64545466  0.33225104
   0.42308983  0.75708785  0.40266309
   0.34072019  0.82767799  0.47824135
   0.24165211  0.91301375  0.56630296
   0.17445202  0.97618118  0.65106338
   0.05922476  0.07866744  0.73617365
   0.99906316  0.15342581  0.81808626
   0.94411054  0.25497719  0.91839081
   0.84263013  0.34791012  0.98712543
   0.72976616  0.41142493  0.07426621
   0.66027744  0.49982839  0.16710823
   0.60166593  0.59324276  0.24755130
   0.18031819  0.13846792  0.83177191
   0.09687652  0.23224522  0.90011900
   0.99358841  0.35657375  0.99560227
   0.93587340  0.43635047  0.08284168
   0.83728330  0.48841628  0.15267365
   0.77750807  0.57877230  0.23783624
   0.66386946  0.66443630  0.33221582
   0.56956314  0.75873382  0.39056133
   0.51487858  0.83368475  0.49914245
   0.42712532  0.91176603  0.58860668
   0.33214489  0.98400278  0.64312355
   0.26569944  0.05583611  0.74169030
   0.23782099  0.07472910  0.93732042
   0.17649686  0.18571833  0.00242327
   0.06942935  0.26272096  0.09180602
   0.00061821  0.34714416  0.16825891
   0.91265012  0.42530295  0.24796133
   0.84200889  0.48850238  0.35037599
   0.76198195  0.57504201  0.40601715
   0.67883577  0.65078077  0.49749462
   0.60425861  0.75175551  0.61079133
   0.48938573  0.82195192  0.68131296
   0.41332252  0.93936908  0.72284518
   0.30973169  0.98030805  0.84802631
   0.32364185  0.01005539  0.01155795
   0.22281427  0.06973008  0.07600720
   0.18001198  0.19202540  0.17065532
   0.06699829  0.25068842  0.24408445
   0.98289381  0.36398908  0.32706323
   0.91391970  0.40898710  0.44325201
   0.82515625  0.49631793  0.52747922
   0.74091536  0.58567091  0.58821468
   0.66590886  0.66714765  0.66975180
   0.57631139  0.73402294  0.78562065
   0.48956714  0.83784509  0.84893982
   0.40534022  0.92221640  0.91341144
   0.38911510  0.91540242  0.08418894
   0.31312315  0.99934071  0.15987171
   0.23582813  0.10481785  0.24055416
   0.19008896  0.18330746  0.33638638
   0.10295312  0.26114258  0.41411651
   0.99474965  0.32257895  0.49465001
   0.91571330  0.40978175  0.59797261
   0.83318009  0.50549400  0.65824112
   0.76749246  0.59276815  0.75839315
   0.67644306  0.65932269  0.84061729
   0.60167591  0.75584240  0.93017530
   0.47632402  0.82574777  0.99632736
   0.48419622  0.83394171  0.18543293
   0.38197726  0.90453306  0.24125237
   0.30997488  0.00247274  0.33288501
   0.23626922  0.08024878  0.44176340
   0.15884357  0.16047831  0.49038012
   0.10089427  0.23794967  0.59294038
   0.01936095  0.32729550  0.69411688
   0.90818887  0.41605752  0.74944854
   0.81518263  0.49892335  0.85278842
   0.74561392  0.58814691  0.94969863
   0.67832432  0.67378685  0.02218314
   0.57601856  0.76104447  0.09347979
   0.56649346  0.74510510  0.25377967
   0.50034689  0.85861973  0.31526354
   0.39757587  0.92400069  0.41818406
   0.34144274  0.99227909  0.50824129
   0.25627771  0.08208756  0.57336330
   0.16505544  0.13594427  0.66897058
   0.08952747  0.23234752  0.75801420
   0.01769697  0.33066888  0.82927218
   0.92579429  0.43581864  0.92183012
   0.81117476  0.50345213  0.00205559
   0.75311506  0.56568657  0.09799562
   0.67856369  0.67683543  0.16399665
   0.23303541  0.24257513  0.74889294
   0.17577911  0.33629271  0.83415047
   0.07243435  0.42887737  0.90899363
   0.01229748  0.52147514  0.97071185
   0.92047635  0.58910490  0.07122998
   0.85581597  0.67330103  0.15351424
   0.75993057  0.72592872  0.25036016
   0.66606850  0.84971190  0.31565004
   0.58620129  0.92166033  0.41973559
   0.48247036  0.00949633  0.50551404
   0.41377064  0.07017913  0.58501650
   0.32700634  0.16970649  0.67387904
   0.31967274  0.15883258  0.81520552
   0.24798505  0.26545714  0.91167048
   0.17408095  0.33899606  0.99253631
   0.08796324  0.43895767  0.08793553
   0.01549170  0.51665299  0.15264622
   0.90061459  0.56931511  0.24811904
   0.84982662  0.64951248  0.32760928
   0.74749943  0.75184527  0.39702871
   0.66498606  0.80637213  0.48804712
   0.57726881  0.91868382  0.58348505
   0.51239076  0.00562343  0.65632012
   0.40158895  0.08010759  0.75527160
   0.41726353  0.09343321  0.91135611
   0.32185104  0.16621814  0.00120156
   0.26782725  0.26707444  0.09324982
   0.16499427  0.33185018  0.17548935
   0.08161956  0.42074720  0.24635204
   0.98390044  0.51499439  0.32921027
   0.93075006  0.57659243  0.44484615
   0.82266428  0.66234504  0.51011717
   0.75645463  0.73604332  0.56837947
   0.63560606  0.82910742  0.68198879
   0.58419938  0.94904237  0.73493254
   0.49649366  0.00324791  0.83514609
   0.49712592  0.00714612  0.00966579
   0.41102643  0.09619983  0.07452116
   0.33331086  0.16174165  0.14985888
   0.26920273  0.26640766  0.25596934
   0.17529157  0.33671377  0.33598704
   0.08154051  0.43337992  0.40497333
   0.00607083  0.49068840  0.50954036
   0.92579138  0.58294811  0.59311987
   0.84928527  0.66348146  0.66713764
   0.74307484  0.74361413  0.73292013
   0.66307435  0.84026106  0.82448314
   0.58221546  0.91993452  0.91291264
   0.56702789  0.90269064  0.08310534
   0.46945110  0.99461818  0.17865973
   0.40958508  0.05969702  0.25574035
   0.33849682  0.17119139  0.33412014
   0.25529240  0.25058901  0.43436333
   0.17291045  0.33178489  0.48823632
   0.07474915  0.40694958  0.57336170
   0.03102496  0.50497012  0.68493016
   0.91371082  0.57919314  0.76380949
   0.83268326  0.66645241  0.84242729
   0.75017031  0.77580997  0.92581636
   0.67009011  0.86981274  0.00152485
   0.67912815  0.82959737  0.17431195
   0.58032171  0.92980801  0.24019810
   0.49516845  0.99676732  0.33691446
   0.41754179  0.08686519  0.42754125
   0.32051593  0.17097162  0.49668302
   0.22961959  0.25390095  0.58880728
   0.12844377  0.33499752  0.67686523
   0.09303987  0.40808747  0.75062173
   0.99802063  0.49035425  0.81462015
   0.92107669  0.59207666  0.89791060
   0.82839797  0.67525963  0.00082585
   0.77414334  0.75099103  0.07678351
   0.31743150  0.32467059  0.67096525
   0.24085245  0.42241280  0.75256720
   0.15896849  0.51035780  0.82177075
   0.06949344  0.59274985  0.90181418
   0.00671169  0.66199421  0.01087654
   0.93284305  0.74891281  0.09239828
   0.85600401  0.83305619  0.14845013
   0.78087982  0.91349510  0.23311113
   0.67926474  0.98935069  0.33848889
   0.57428131  0.08284086  0.41566531
   0.50808550  0.17232028  0.51874553
   0.42977727  0.25970395  0.61069806
   0.41257907  0.22256418  0.74731232
   0.33278281  0.32141491  0.81773512
   0.25648577  0.42823204  0.91861965
   0.15472701  0.50083526  0.98698155
   0.08765861  0.59136450  0.06121253
   0.99187264  0.64977131  0.17537935
   0.93141456  0.75500589  0.26818598
   0.85142951  0.83730610  0.33320631
   0.74980730  0.91638631  0.41577498
   0.66553562  0.00380010  0.50460047
   0.58918199  0.08636626  0.57571234
   0.51955848  0.16254801  0.67413055
   0.50467334  0.17451368  0.83980665
   0.40269386  0.24932663  0.91282590
   0.32167817  0.36058797  0.01664228
   0.20324267  0.40774664  0.08477803
   0.17338937  0.50444236  0.16700703
   0.09211919  0.57260167  0.24306191
   0.99797963  0.65442590  0.33864432
   0.90469137  0.71982652  0.41158892
   0.83627746  0.82469410  0.49280517
   0.74352389  0.90771284  0.55598457
   0.66794248  0.99680113  0.66315562
   0.59362404  0.09977507  0.74784676
   0.60086642  0.09200937  0.91143426
   0.51286861  0.15400386  0.99509510
   0.41439443  0.24169809  0.08645022
   0.33575723  0.34491996  0.16919145
   0.24649365  0.42178977  0.26110681
   0.15857609  0.50251311  0.35189273
   0.09845386  0.58196805  0.43383355
   0.00844233  0.66724227  0.48899470
   0.93449992  0.74313794  0.56113507
   0.83164350  0.82983302  0.65375963
   0.76422704  0.90505231  0.73619174
   0.67004379  0.97861156  0.82224069
   0.65012880  0.00234550  0.01695079
   0.58477394  0.08641992  0.09957999
   0.51317651  0.16438639  0.18758724
   0.42017822  0.22091489  0.24230269
   0.34060282  0.33735775  0.33924355
   0.25304463  0.40843175  0.41659695
   0.17101808  0.49426323  0.51605249
   0.06650882  0.58057199  0.56611632
   0.01926540  0.65793390  0.68767352
   0.92261048  0.76105140  0.76318524
   0.80780879  0.85006402  0.81986781
   0.75923417  0.92992489  0.92069796
   0.74044729  0.92495285  0.08168531
   0.65855416  0.00932574  0.16983529
   0.58147823  0.07107929  0.25849924
   0.52060445  0.15109716  0.31008574
   0.43648370  0.23856106  0.41327906
   0.35476092  0.34925265  0.50816425
   0.22999664  0.38708783  0.58971532
   0.16967135  0.51456061  0.65948450
   0.09616792  0.58625886  0.74923118
   0.99250945  0.65866398  0.82591998
   0.93395275  0.76041274  0.90327132
   0.85259215  0.84338041  0.98956616
   0.43482063  0.43591679  0.61464884
   0.33396746  0.51248573  0.65566845
   0.26191947  0.56337067  0.75193952
   0.18269706  0.66687738  0.82855248
   0.07105437  0.75062544  0.90283990
   0.99793657  0.84681924  0.01051498
   0.90946450  0.94791425  0.08361796
   0.83133350  0.01730357  0.15354543
   0.75460137  0.09537629  0.23817423
   0.65616719  0.16800085  0.31498398
   0.59067865  0.25089698  0.40320039
   0.52070466  0.32746786  0.51032720
   0.51159953  0.31344299  0.66447615
   0.40891030  0.39962688  0.74573937
   0.33957850  0.49845735  0.81857379
   0.25303104  0.56691269  0.92366924
   0.17026672  0.65535232  0.97147460
   0.07741920  0.73664928  0.08489307
   0.00953764  0.84644788  0.17170935
   0.91115900  0.92830671  0.25298577
   0.82391584  0.01150708  0.35611216
   0.75386194  0.08379185  0.40855659
   0.68044517  0.17553640  0.49547350
   0.59814930  0.24275210  0.58271623
   0.57485491  0.23584705  0.76396430
   0.50696493  0.32654454  0.84631462
   0.40947106  0.41801068  0.90326844
   0.32446050  0.50652018  0.00489069
   0.22901005  0.56788986  0.07585330
   0.16252916  0.64467128  0.16575168
   0.08592917  0.73856250  0.23751946
   0.01354324  0.81739911  0.32630760
   0.92984234  0.91136335  0.39894382
   0.83304940  0.98083940  0.50728032
   0.76132111  0.08164668  0.58570550
   0.67505478  0.16186839  0.67470187
   0.69005314  0.16628760  0.83677303
   0.58374166  0.24248163  0.92807615
   0.48876049  0.33797577  0.98456652
   0.43113445  0.42075632  0.06013757
   0.33574573  0.49024234  0.15980002
   0.26113983  0.57337273  0.27133587
   0.15776779  0.66659198  0.36298365
   0.08090789  0.73019850  0.44144239
   0.00545626  0.82559739  0.47770728
   0.90300179  0.90501036  0.56154083
   0.82302744  0.98849566  0.65153353
   0.75548454  0.07651884  0.76317784
   0.74206965  0.07800882  0.91070973
   0.67681316  0.17959858  0.00485003
   0.56771345  0.26075973  0.06675078
   0.47287006  0.32141100  0.14234840
   0.42801420  0.43051921  0.24216076
   0.32349444  0.51329180  0.34778005
   0.23977453  0.58241198  0.43896181
   0.16731229  0.68701182  0.51283580
   0.08561963  0.75662400  0.58900465
   0.98362707  0.84430229  0.67436512
   0.89230424  0.91710012  0.74861238
   0.83005904  0.01441117  0.82815483
   0.84650241  0.00131781  0.00084466
   0.74637662  0.11473599  0.07091247
   0.64319621  0.15707905  0.15952942
   0.57179743  0.27761412  0.24468669
   0.48064492  0.34595495  0.33262607
   0.43362226  0.42781825  0.42143572
   0.32689287  0.47371103  0.50121519
   0.25226542  0.59713756  0.57357251
   0.18113596  0.66501310  0.66766115
   0.08375599  0.76680016  0.74337852
   0.99882118  0.85031199  0.82114047
   0.91432404  0.92762139  0.88161226
