 432 432   0   0
  0.2159961E+02  0.2105280E-08  0.2105280E-08  0.2105280E-08  0.5000000E-15
  1.000000000000000E-004
  CAR 
 Li                                      
      3.17740008     -3.50026918  301      0.22798320      1.00000000
     -3.500  0.0000E+00  0.0000E+00
     -3.478  0.0000E+00  0.0000E+00
     -3.456  0.0000E+00  0.0000E+00
     -3.433  0.0000E+00  0.0000E+00
     -3.411  0.0000E+00  0.0000E+00
     -3.389  0.0000E+00  0.0000E+00
     -3.367  0.4614E-13  0.1027E-14
     -3.344  0.1387E-09  0.3087E-11
     -3.322  0.1406E-06  0.3134E-08
     -3.300  0.4870E-04  0.1087E-05
     -3.278  0.5804E-02  0.1303E-03
     -3.255  0.2409E+00  0.5491E-02
     -3.233  0.3531E+01  0.8409E-01
     -3.211  0.1858E+02  0.4976E+00
     -3.189  0.3557E+02  0.1289E+01
     -3.166  0.2494E+02  0.1845E+01
     -3.144  0.6656E+01  0.1993E+01
     -3.122  0.4775E+01  0.2099E+01
     -3.100  0.2557E+02  0.2668E+01
     -3.077  0.6946E+02  0.4214E+01
     -3.055  0.9165E+02  0.6254E+01
     -3.033  0.5900E+02  0.7567E+01
     -3.011  0.1785E+02  0.7965E+01
     -2.988  0.9339E+01  0.8173E+01
     -2.966  0.3634E+02  0.8982E+01
     -2.944  0.8238E+02  0.1082E+02
     -2.922  0.8813E+02  0.1278E+02
     -2.899  0.4423E+02  0.1376E+02
     -2.877  0.1299E+02  0.1405E+02
     -2.855  0.2181E+02  0.1454E+02
     -2.833  0.6649E+02  0.1602E+02
     -2.810  0.1114E+03  0.1850E+02
     -2.788  0.1014E+03  0.2075E+02
     -2.766  0.4662E+02  0.2179E+02
     -2.743  0.1706E+02  0.2217E+02
     -2.721  0.4271E+02  0.2312E+02
     -2.699  0.1030E+03  0.2541E+02
     -2.677  0.1431E+03  0.2860E+02
     -2.654  0.1337E+03  0.3158E+02
     -2.632  0.7885E+02  0.3333E+02
     -2.610  0.2831E+02  0.3396E+02
     -2.588  0.2527E+02  0.3452E+02
     -2.565  0.6797E+02  0.3604E+02
     -2.543  0.9609E+02  0.3818E+02
     -2.521  0.6216E+02  0.3956E+02
     -2.499  0.2147E+02  0.4004E+02
     -2.476  0.2851E+02  0.4067E+02
     -2.454  0.8320E+02  0.4252E+02
     -2.432  0.1375E+03  0.4558E+02
     -2.410  0.1436E+03  0.4878E+02
     -2.387  0.9805E+02  0.5096E+02
     -2.365  0.5359E+02  0.5215E+02
     -2.343  0.6700E+02  0.5365E+02
     -2.321  0.1229E+03  0.5638E+02
     -2.298  0.1662E+03  0.6008E+02
     -2.276  0.1788E+03  0.6406E+02
     -2.254  0.1522E+03  0.6745E+02
     -2.232  0.8737E+02  0.6939E+02
     -2.209  0.4059E+02  0.7030E+02
     -2.187  0.4616E+02  0.7132E+02
     -2.165  0.7110E+02  0.7291E+02
     -2.142  0.7509E+02  0.7458E+02
     -2.120  0.5049E+02  0.7570E+02
     -2.098  0.4447E+02  0.7669E+02
     -2.076  0.8753E+02  0.7864E+02
     -2.053  0.1422E+03  0.8181E+02
     -2.031  0.1596E+03  0.8536E+02
     -2.009  0.1245E+03  0.8813E+02
     -1.987  0.7094E+02  0.8971E+02
     -1.964  0.5802E+02  0.9100E+02
     -1.942  0.1050E+03  0.9334E+02
     -1.920  0.1588E+03  0.9687E+02
     -1.898  0.1790E+03  0.1009E+03
     -1.875  0.1677E+03  0.1046E+03
     -1.853  0.1114E+03  0.1071E+03
     -1.831  0.5727E+02  0.1083E+03
     -1.809  0.7718E+02  0.1101E+03
     -1.786  0.1292E+03  0.1129E+03
     -1.764  0.1434E+03  0.1161E+03
     -1.742  0.1148E+03  0.1187E+03
     -1.720  0.7956E+02  0.1205E+03
     -1.697  0.9588E+02  0.1226E+03
     -1.675  0.1459E+03  0.1258E+03
     -1.653  0.1828E+03  0.1299E+03
     -1.631  0.1765E+03  0.1338E+03
     -1.608  0.1263E+03  0.1366E+03
     -1.586  0.7796E+02  0.1384E+03
     -1.564  0.9397E+02  0.1405E+03
     -1.541  0.1551E+03  0.1439E+03
     -1.519  0.1919E+03  0.1482E+03
     -1.497  0.1810E+03  0.1522E+03
     -1.475  0.1202E+03  0.1549E+03
     -1.452  0.6003E+02  0.1562E+03
     -1.430  0.6396E+02  0.1577E+03
     -1.408  0.1106E+03  0.1601E+03
     -1.386  0.1339E+03  0.1631E+03
     -1.363  0.1181E+03  0.1657E+03
     -1.341  0.8362E+02  0.1676E+03
     -1.319  0.7453E+02  0.1693E+03
     -1.297  0.1073E+03  0.1716E+03
     -1.274  0.1314E+03  0.1746E+03
     -1.252  0.1271E+03  0.1774E+03
     -1.230  0.1135E+03  0.1799E+03
     -1.208  0.1287E+03  0.1828E+03
     -1.185  0.1773E+03  0.1867E+03
     -1.163  0.2242E+03  0.1917E+03
     -1.141  0.2399E+03  0.1971E+03
     -1.119  0.2257E+03  0.2021E+03
     -1.096  0.1942E+03  0.2064E+03
     -1.074  0.1538E+03  0.2098E+03
     -1.052  0.1389E+03  0.2129E+03
     -1.030  0.1596E+03  0.2165E+03
     -1.007  0.1793E+03  0.2205E+03
     -0.985  0.1677E+03  0.2242E+03
     -0.963  0.1190E+03  0.2268E+03
     -0.940  0.8833E+02  0.2288E+03
     -0.918  0.1165E+03  0.2314E+03
     -0.896  0.1557E+03  0.2349E+03
     -0.874  0.1557E+03  0.2383E+03
     -0.851  0.1226E+03  0.2411E+03
     -0.829  0.1105E+03  0.2435E+03
     -0.807  0.1468E+03  0.2468E+03
     -0.785  0.1841E+03  0.2509E+03
     -0.762  0.1961E+03  0.2553E+03
     -0.740  0.1941E+03  0.2596E+03
     -0.718  0.1688E+03  0.2633E+03
     -0.696  0.1309E+03  0.2663E+03
     -0.673  0.1156E+03  0.2688E+03
     -0.651  0.9563E+02  0.2710E+03
     -0.629  0.6658E+02  0.2724E+03
     -0.607  0.9131E+02  0.2745E+03
     -0.584  0.1510E+03  0.2778E+03
     -0.562  0.1948E+03  0.2822E+03
     -0.540  0.2111E+03  0.2869E+03
     -0.518  0.2087E+03  0.2915E+03
     -0.495  0.1998E+03  0.2960E+03
     -0.473  0.1838E+03  0.3000E+03
     -0.451  0.1807E+03  0.3041E+03
     -0.429  0.1960E+03  0.3084E+03
     -0.406  0.2123E+03  0.3132E+03
     -0.384  0.2245E+03  0.3182E+03
     -0.362  0.2351E+03  0.3234E+03
     -0.340  0.2163E+03  0.3282E+03
     -0.317  0.1750E+03  0.3321E+03
     -0.295  0.1530E+03  0.3355E+03
     -0.273  0.1461E+03  0.3388E+03
     -0.250  0.1388E+03  0.3418E+03
     -0.228  0.1404E+03  0.3450E+03
     -0.206  0.1722E+03  0.3488E+03
     -0.184  0.2095E+03  0.3535E+03
     -0.161  0.2184E+03  0.3583E+03
     -0.139  0.2169E+03  0.3632E+03
     -0.117  0.2201E+03  0.3681E+03
     -0.095  0.2112E+03  0.3728E+03
     -0.072  0.1954E+03  0.3771E+03
     -0.050  0.1880E+03  0.3813E+03
     -0.028  0.1958E+03  0.3856E+03
     -0.006  0.1972E+03  0.3900E+03
      0.017  0.1837E+03  0.3941E+03
      0.039  0.1744E+03  0.3980E+03
      0.061  0.1668E+03  0.4017E+03
      0.083  0.1574E+03  0.4052E+03
      0.106  0.1572E+03  0.4087E+03
      0.128  0.1737E+03  0.4126E+03
      0.150  0.1944E+03  0.4169E+03
      0.172  0.2002E+03  0.4214E+03
      0.195  0.1958E+03  0.4257E+03
      0.217  0.1897E+03  0.4300E+03
      0.239  0.1864E+03  0.4341E+03
      0.261  0.1973E+03  0.4385E+03
      0.284  0.2013E+03  0.4430E+03
      0.306  0.1917E+03  0.4472E+03
      0.328  0.1916E+03  0.4515E+03
      0.351  0.1996E+03  0.4560E+03
      0.373  0.2071E+03  0.4606E+03
      0.395  0.2088E+03  0.4652E+03
      0.417  0.2153E+03  0.4700E+03
      0.440  0.2151E+03  0.4748E+03
      0.462  0.2087E+03  0.4794E+03
      0.484  0.2102E+03  0.4841E+03
      0.506  0.2227E+03  0.4891E+03
      0.529  0.2353E+03  0.4943E+03
      0.551  0.2415E+03  0.4997E+03
      0.573  0.2399E+03  0.5050E+03
      0.595  0.2296E+03  0.5101E+03
      0.618  0.2245E+03  0.5151E+03
      0.640  0.2303E+03  0.5203E+03
      0.662  0.2354E+03  0.5255E+03
      0.684  0.2329E+03  0.5307E+03
      0.707  0.2297E+03  0.5358E+03
      0.729  0.2299E+03  0.5409E+03
      0.751  0.2250E+03  0.5459E+03
      0.773  0.2174E+03  0.5508E+03
      0.796  0.2175E+03  0.5556E+03
      0.818  0.2218E+03  0.5605E+03
      0.840  0.2204E+03  0.5654E+03
      0.862  0.2203E+03  0.5703E+03
      0.885  0.2213E+03  0.5753E+03
      0.907  0.2134E+03  0.5800E+03
      0.929  0.2109E+03  0.5847E+03
      0.952  0.2185E+03  0.5896E+03
      0.974  0.2249E+03  0.5946E+03
      0.996  0.2235E+03  0.5996E+03
      1.018  0.2088E+03  0.6042E+03
      1.041  0.1924E+03  0.6085E+03
      1.063  0.1868E+03  0.6127E+03
      1.085  0.1849E+03  0.6168E+03
      1.107  0.1846E+03  0.6209E+03
      1.130  0.1844E+03  0.6250E+03
      1.152  0.1864E+03  0.6291E+03
      1.174  0.1897E+03  0.6334E+03
      1.196  0.1860E+03  0.6375E+03
      1.219  0.1741E+03  0.6414E+03
      1.241  0.1663E+03  0.6451E+03
      1.263  0.1589E+03  0.6486E+03
      1.285  0.1585E+03  0.6521E+03
      1.308  0.1620E+03  0.6557E+03
      1.330  0.1534E+03  0.6592E+03
      1.352  0.1576E+03  0.6627E+03
      1.374  0.1707E+03  0.6665E+03
      1.397  0.1657E+03  0.6701E+03
      1.419  0.1639E+03  0.6738E+03
      1.441  0.1779E+03  0.6778E+03
      1.463  0.1885E+03  0.6820E+03
      1.486  0.1869E+03  0.6861E+03
      1.508  0.1862E+03  0.6903E+03
      1.530  0.1879E+03  0.6944E+03
      1.553  0.1866E+03  0.6986E+03
      1.575  0.1874E+03  0.7028E+03
      1.597  0.1928E+03  0.7071E+03
      1.619  0.1886E+03  0.7113E+03
      1.642  0.1778E+03  0.7152E+03
      1.664  0.1751E+03  0.7191E+03
      1.686  0.1758E+03  0.7230E+03
      1.708  0.1713E+03  0.7268E+03
      1.731  0.1648E+03  0.7305E+03
      1.753  0.1586E+03  0.7340E+03
      1.775  0.1617E+03  0.7376E+03
      1.797  0.1749E+03  0.7415E+03
      1.820  0.1780E+03  0.7455E+03
      1.842  0.1624E+03  0.7491E+03
      1.864  0.1534E+03  0.7525E+03
      1.886  0.1558E+03  0.7560E+03
      1.909  0.1437E+03  0.7592E+03
      1.931  0.1356E+03  0.7622E+03
      1.953  0.1356E+03  0.7652E+03
      1.975  0.1268E+03  0.7680E+03
      1.998  0.1280E+03  0.7709E+03
      2.020  0.1305E+03  0.7738E+03
      2.042  0.1254E+03  0.7766E+03
      2.064  0.1297E+03  0.7795E+03
      2.087  0.1284E+03  0.7823E+03
      2.109  0.1101E+03  0.7848E+03
      2.131  0.1004E+03  0.7870E+03
      2.153  0.1004E+03  0.7893E+03
      2.176  0.1002E+03  0.7915E+03
      2.198  0.9110E+02  0.7935E+03
      2.220  0.6793E+02  0.7950E+03
      2.243  0.4100E+02  0.7959E+03
      2.265  0.3505E+02  0.7967E+03
      2.287  0.5238E+02  0.7979E+03
      2.309  0.7031E+02  0.7994E+03
      2.332  0.8152E+02  0.8013E+03
      2.354  0.8758E+02  0.8032E+03
      2.376  0.9431E+02  0.8053E+03
      2.398  0.9749E+02  0.8075E+03
      2.421  0.1023E+03  0.8098E+03
      2.443  0.1110E+03  0.8122E+03
      2.465  0.1166E+03  0.8148E+03
      2.487  0.1203E+03  0.8175E+03
      2.510  0.1261E+03  0.8203E+03
      2.532  0.1323E+03  0.8233E+03
      2.554  0.1355E+03  0.8263E+03
      2.576  0.1404E+03  0.8294E+03
      2.599  0.1373E+03  0.8325E+03
      2.621  0.1309E+03  0.8354E+03
      2.643  0.1352E+03  0.8384E+03
      2.665  0.1301E+03  0.8413E+03
      2.688  0.1182E+03  0.8439E+03
      2.710  0.1193E+03  0.8466E+03
      2.732  0.1277E+03  0.8494E+03
      2.754  0.1241E+03  0.8522E+03
      2.777  0.1223E+03  0.8549E+03
      2.799  0.1340E+03  0.8579E+03
      2.821  0.1300E+03  0.8608E+03
      2.844  0.1051E+03  0.8631E+03
      2.866  0.7615E+02  0.8648E+03
      2.888  0.4046E+02  0.8657E+03
      2.910  0.1187E+02  0.8660E+03
      2.933  0.1612E+01  0.8660E+03
      2.955  0.9054E-01  0.8660E+03
      2.977  0.1947E-02  0.8660E+03
      2.999  0.1525E-04  0.8660E+03
      3.022  0.4223E-07  0.8660E+03
      3.044  0.4058E-10  0.8660E+03
      3.066  0.1247E-13  0.8660E+03
      3.088  0.0000E+00  0.8660E+03
      3.111  0.0000E+00  0.8660E+03
      3.133  0.0000E+00  0.8660E+03
      3.155  0.0000E+00  0.8660E+03
      3.177  0.0000E+00  0.8660E+03
