 running on   64 total cores
 distrk:  each k-point on   32 cores,    2 groups
 distr:  one band on   32 cores,    1 groups
 vasp.6.2.1 16May21 (build Nov 23 2021 15:40:41) complex                        
  
 POSCAR found type information on POSCAR Li
 POSCAR found :  1 types and     432 ions
 scaLAPACK will be used
 -----------------------------------------------------------------------------
|                                                                             |
|           W    W    AA    RRRRR   N    N  II  N    N   GGGG   !!!           |
|           W    W   A  A   R    R  NN   N  II  NN   N  G    G  !!!           |
|           W    W  A    A  R    R  N N  N  II  N N  N  G       !!!           |
|           W WW W  AAAAAA  RRRRR   N  N N  II  N  N N  G  GGG   !            |
|           WW  WW  A    A  R   R   N   NN  II  N   NN  G    G                |
|           W    W  A    A  R    R  N    N  II  N    N   GGGG   !!!           |
|                                                                             |
|     For optimal performance we recommend to set                             |
|       NCORE = 2 up to number-of-cores-per-socket                            |
|     NCORE specifies how many cores store one orbital (NPAR=cpu/NCORE).      |
|     This setting can greatly improve the performance of VASP for DFT.       |
|     The default, NCORE=1 might be grossly inefficient on modern             |
|     multi-core architectures or massively parallel machines. Do your        |
|     own testing! More info at https://www.vasp.at/wiki/index.php/NCORE      |
|     Unfortunately you need to use the default for GW and RPA                |
|     calculations (for HF NCORE is supported but not extensively tested      |
|     yet).                                                                   |
|                                                                             |
 -----------------------------------------------------------------------------

 -----------------------------------------------------------------------------
|                                                                             |
|               ----> ADVICE to this user running VASP <----                  |
|                                                                             |
|     You have a (more or less) 'large supercell' and for larger cells it     |
|     might be more efficient to use real-space projection operators.         |
|     Therefore, try LREAL= Auto in the INCAR file.                           |
|     Mind: If you want to do very accurate calculations, keep the            |
|     reciprocal projection scheme (i.e. LREAL=.FALSE.).                      |
|                                                                             |
 -----------------------------------------------------------------------------

 LDA part: xc-table for Pade appr. of Perdew
 POSCAR found type information on POSCAR Li
 POSCAR found :  1 types and     432 ions
 POSCAR, INCAR and KPOINTS ok, starting setup
 FFT: planning ...
 WAVECAR not read
 entering main loop
       N       E                     dE             d eps       ncg     rms          rms(c)
DAV:   1    -0.233260190337E+03   -0.23326E+03   -0.10295E+05  3464   0.649E+02
DAV:   2    -0.742861908643E+03   -0.50960E+03   -0.46477E+03  4004   0.658E+01
DAV:   3    -0.780848331075E+03   -0.37986E+02   -0.34855E+02  4480   0.142E+01
DAV:   4    -0.782173157665E+03   -0.13248E+01   -0.13067E+01  4080   0.291E+00
DAV:   5    -0.782205585695E+03   -0.32428E-01   -0.32376E-01  4240   0.477E-01    0.110E+01
DAV:   6    -0.771508756365E+03    0.10697E+02   -0.15624E+01  4072   0.520E+00    0.735E+00
DAV:   7    -0.766956867982E+03    0.45519E+01   -0.12019E+01  4128   0.498E+00    0.536E+00
DAV:   8    -0.763286782101E+03    0.36701E+01   -0.71306E+00  4072   0.290E+00    0.245E+00
DAV:   9    -0.762964841949E+03    0.32194E+00   -0.36926E+00  3864   0.152E+00    0.126E+00
DAV:  10    -0.763000482201E+03   -0.35640E-01   -0.68245E-01  3976   0.818E-01    0.973E-01
DAV:  11    -0.762920326161E+03    0.80156E-01   -0.20390E-01  3968   0.533E-01    0.582E-01
DAV:  12    -0.762904351422E+03    0.15975E-01   -0.58182E-02  3784   0.222E-01    0.263E-01
DAV:  13    -0.762906006147E+03   -0.16547E-02   -0.16769E-02  4120   0.137E-01    0.167E-01
DAV:  14    -0.762903658956E+03    0.23472E-02   -0.65139E-03  4072   0.983E-02    0.932E-02
DAV:  15    -0.762903198931E+03    0.46003E-03   -0.15895E-03  3960   0.450E-02    0.491E-02
DAV:  16    -0.762903073670E+03    0.12526E-03   -0.69599E-04  3800   0.250E-02    0.213E-02
DAV:  17    -0.762903090354E+03   -0.16684E-04   -0.13220E-04  4224   0.144E-02    0.183E-02
DAV:  18    -0.762903045137E+03    0.45217E-04   -0.63243E-05  4080   0.976E-03    0.706E-03
DAV:  19    -0.762903041588E+03    0.35485E-05   -0.22836E-05  2632   0.444E-03
   1 F= -.76290304E+03 E0= -.76286131E+03  d E =-.834656E-01
