Li                                      
           1
    21.052800    0.000000    0.000000
     0.000000   21.052800    0.000000
     0.000000    0.000000   21.052800
   Li
   432
Direct configuration=     1
   0.01442426  0.99461807  0.02925618
   0.92159239  0.08543678  0.07685355
   0.82522497  0.16386830  0.13822945
   0.74144669  0.23950612  0.23953164
   0.64371470  0.33605221  0.33598503
   0.57763745  0.39199424  0.43506735
   0.50799594  0.50047554  0.49657646
   0.39925360  0.57868809  0.59333844
   0.30341205  0.67886405  0.67168567
   0.22413189  0.75135544  0.76412590
   0.16395770  0.81922206  0.86179515
   0.09944950  0.92674883  0.91486692
   0.08735328  0.90264898  0.05201986
   0.01316128  0.98220335  0.17238659
   0.92722079  0.09328533  0.23080750
   0.81360658  0.16195284  0.29355230
   0.76232713  0.25197982  0.42678104
   0.68669033  0.33872934  0.52287886
   0.54598724  0.43217587  0.58824102
   0.48927977  0.50821725  0.69593722
   0.37991858  0.59863114  0.75473287
   0.30921769  0.65999582  0.84876454
   0.24158649  0.74381227  0.91353826
   0.15983653  0.83762264  0.99572753
   0.20689388  0.84414404  0.17186079
   0.10803329  0.89218322  0.23103062
   0.97915411  0.98770341  0.29072538
   0.91497721  0.07397143  0.37302514
   0.82420203  0.16251502  0.50797562
   0.71913134  0.21528217  0.59045572
   0.66788613  0.34295201  0.63224307
   0.55351646  0.42992224  0.74379142
   0.49767830  0.49491899  0.78620329
   0.42942479  0.61039262  0.90559814
   0.33216402  0.65866201  0.01896619
   0.26551390  0.75664976  0.06022498
   0.26909599  0.74585245  0.24510811
   0.15979240  0.82664325  0.34214330
   0.06892589  0.92910415  0.40765602
   0.98232422  0.98531001  0.46901251
   0.93087939  0.11851816  0.56791029
   0.81437740  0.16173068  0.66482607
   0.75228244  0.26103882  0.72926621
   0.67385755  0.36541632  0.83040692
   0.57512484  0.44349578  0.89123318
   0.48980284  0.51818148  0.00221935
   0.40926513  0.60222005  0.09784652
   0.33621042  0.68081674  0.18141862
   0.34821997  0.66284586  0.34622326
   0.23406031  0.76045113  0.43972648
   0.13586475  0.83227624  0.50148435
   0.09926853  0.92238541  0.60132863
   0.00450271  0.01050840  0.67357251
   0.92769526  0.10849123  0.77441568
   0.81464600  0.17164269  0.83713217
   0.74144874  0.27610676  0.93243555
   0.63907951  0.33333899  0.99696461
   0.57172102  0.41589208  0.10533878
   0.51649762  0.52802033  0.18874408
   0.40912547  0.59772192  0.25969332
   0.40656183  0.55582517  0.42840413
   0.32781533  0.66656797  0.53264411
   0.21726233  0.73671959  0.59112244
   0.14038007  0.83606278  0.66484879
   0.10880589  0.91873990  0.76155233
   0.99706167  0.01472757  0.85046429
   0.89309295  0.09497605  0.95386763
   0.80965452  0.15806263  0.01498192
   0.75488926  0.25649673  0.07509523
   0.65963049  0.31834580  0.16299525
   0.60299301  0.43117023  0.23720601
   0.51979992  0.52239621  0.32754249
   0.08635438  0.09562802  0.92674650
   0.98206178  0.20255162  0.01887910
   0.92479544  0.25396110  0.08327672
   0.81778715  0.34494651  0.17239099
   0.72774816  0.41673701  0.26254985
   0.64445531  0.52094447  0.32585904
   0.57111773  0.60084750  0.42679910
   0.46799216  0.69973902  0.51006912
   0.41561942  0.76568881  0.62153861
   0.28467661  0.84189282  0.68589803
   0.20956516  0.90780851  0.79333708
   0.18242561  0.03707058  0.83928155
   0.15134306  0.98422345  0.99694651
   0.07489334  0.09746272  0.07900943
   0.00562734  0.15698623  0.14418307
   0.90585305  0.24883863  0.21308815
   0.81824787  0.29412422  0.32431862
   0.73349846  0.42206292  0.39578051
   0.67142999  0.49127381  0.49643168
   0.57796014  0.57983048  0.57705767
   0.49342520  0.67456591  0.69213572
   0.41523553  0.76263290  0.76139878
   0.33949900  0.84994484  0.83689116
   0.25766476  0.92966465  0.90007511
   0.24789103  0.90512641  0.06776441
   0.16451265  0.00562986  0.14161817
   0.08729609  0.09796697  0.22939669
   0.99210921  0.17069927  0.32331701
   0.90542909  0.23495535  0.40220104
   0.79843654  0.31115408  0.49934805
   0.76697699  0.39383099  0.60302319
   0.68150991  0.50920488  0.65084578
   0.59198310  0.58790131  0.75179234
   0.51263327  0.62633907  0.81371966
   0.40856053  0.71044448  0.90502873
   0.34153934  0.83921685  0.99580561
   0.31812638  0.81382717  0.17433300
   0.29094587  0.94105646  0.23934470
   0.15270990  0.98566146  0.31927027
   0.04336671  0.06611799  0.36728591
   0.98915491  0.14718443  0.47706016
   0.94997150  0.22547337  0.57771704
   0.84559534  0.29635553  0.62388999
   0.75154748  0.40315573  0.71863573
   0.69720052  0.48897699  0.82935843
   0.58459165  0.57243170  0.90549887
   0.49176023  0.62651928  0.99101143
   0.43893073  0.74118168  0.10008748
   0.39095269  0.74969711  0.27875051
   0.30773920  0.82214541  0.32981142
   0.25401441  0.94243736  0.44765590
   0.15145206  0.00633441  0.48983721
   0.07776245  0.08718352  0.56427637
   0.01877618  0.17901242  0.66155698
   0.93074327  0.23942166  0.75116556
   0.80232744  0.33527996  0.83064422
   0.75832075  0.43423187  0.91834815
   0.63780529  0.48274711  0.99394116
   0.56900966  0.60705043  0.08465286
   0.49111933  0.66264441  0.16755708
   0.48978887  0.65970325  0.33260405
   0.41011323  0.76279494  0.43122755
   0.33437832  0.84604542  0.51295003
   0.20424463  0.92745298  0.58427528
   0.16131949  0.00330549  0.66743786
   0.09061750  0.08806865  0.76967558
   0.01529792  0.18846722  0.89354735
   0.85312318  0.24711006  0.92587536
   0.83407812  0.34321647  0.02697283
   0.72449127  0.44372455  0.08795415
   0.67630166  0.52649426  0.15962361
   0.60808556  0.61080760  0.23935106
   0.15622588  0.20648075  0.83437754
   0.11276514  0.27060960  0.92083164
   0.99879861  0.35540028  0.97772093
   0.93063395  0.42252457  0.05398287
   0.83447509  0.49021290  0.13700800
   0.77054739  0.62674232  0.23549398
   0.66972438  0.67403964  0.34485190
   0.58471752  0.75132505  0.45352158
   0.51889908  0.82730871  0.52385763
   0.41570599  0.92929814  0.61806496
   0.30325832  0.97452108  0.70073942
   0.20987071  0.09856278  0.75062587
   0.24050859  0.10121991  0.92505912
   0.15140268  0.18345950  0.99573725
   0.07922121  0.27110841  0.09631671
   0.97742401  0.35039349  0.15887077
   0.90267162  0.39815727  0.27796062
   0.80095772  0.52037945  0.33705543
   0.74541737  0.57738986  0.43706473
   0.66746813  0.66940903  0.51653161
   0.57215876  0.75846269  0.59333379
   0.48632676  0.84130571  0.68638661
   0.39234524  0.89513138  0.75839930
   0.33275556  0.01528403  0.82882548
   0.35320007  0.99818342  0.98426247
   0.25169581  0.09067481  0.04437803
   0.19010206  0.17198026  0.17378878
   0.07365447  0.26954044  0.22531740
   0.00082754  0.31206329  0.32886898
   0.89441866  0.40386925  0.38866669
   0.84332237  0.49176891  0.48173907
   0.76098820  0.58423397  0.61193908
   0.68674187  0.68478868  0.67671299
   0.59989514  0.76727831  0.75382346
   0.50018506  0.82599130  0.83677327
   0.40855726  0.90892950  0.90405194
   0.44852121  0.87955470  0.08325625
   0.35747712  0.99267671  0.15441622
   0.27948981  0.06194378  0.26017086
   0.16115513  0.14607635  0.33177750
   0.11934786  0.25705965  0.41315281
   0.99096935  0.30713786  0.50309813
   0.92463948  0.43048113  0.57454299
   0.84299586  0.49059577  0.69287501
   0.73022794  0.58119013  0.74947700
   0.67500949  0.67188486  0.82214290
   0.59082288  0.73166323  0.90907031
   0.51671778  0.85355295  0.95283967
   0.49953625  0.81472504  0.19753662
   0.41962197  0.90598188  0.25177607
   0.33996992  0.97925514  0.32059008
   0.25145482  0.04268529  0.42660170
   0.18297070  0.12579695  0.46756427
   0.07074042  0.24529854  0.52508097
   0.99407474  0.31676900  0.65781837
   0.92041357  0.39257802  0.74423185
   0.80791382  0.50618466  0.82580353
   0.74226264  0.57443153  0.91360554
   0.66448397  0.67644314  0.99724815
   0.56288403  0.75515964  0.05282311
   0.58821818  0.71958856  0.23388380
   0.49828110  0.80775218  0.34797525
   0.41232812  0.90940290  0.40278561
   0.35045684  0.99224415  0.50491324
   0.25602655  0.06575889  0.56809712
   0.14171814  0.16537873  0.64058056
   0.09617223  0.25264279  0.73578240
   0.00521932  0.34301318  0.84646544
   0.89896765  0.41554192  0.92867476
   0.84034066  0.49959417  0.98563252
   0.76158364  0.58846300  0.04659948
   0.66405688  0.67348987  0.14301129
   0.26608042  0.23820103  0.71958587
   0.16921567  0.33795839  0.83290780
   0.10120942  0.41609092  0.92911780
   0.00274439  0.50052479  0.97874991
   0.92077188  0.57882262  0.05208145
   0.86403953  0.67215902  0.15232284
   0.76404253  0.71596849  0.22740244
   0.69862393  0.82135764  0.31479898
   0.59378842  0.88307947  0.40629915
   0.48216595  0.99749487  0.47758480
   0.41123717  0.08150236  0.58946225
   0.33893596  0.13849585  0.66073194
   0.32611203  0.15761867  0.82942718
   0.25624466  0.26018499  0.95991813
   0.17475950  0.35073403  0.00369117
   0.07081377  0.41561436  0.09637760
   0.99154124  0.53659064  0.17617197
   0.90024075  0.59413778  0.26364872
   0.82043693  0.67861490  0.37812755
   0.72626753  0.76635077  0.43025594
   0.67721603  0.83829744  0.51530504
   0.58831976  0.92351396  0.59817701
   0.48231024  0.01119671  0.66978528
   0.43091929  0.08492476  0.76853599
   0.44026509  0.08340292  0.89324565
   0.38321948  0.17487586  0.01091785
   0.27220531  0.24578793  0.06441634
   0.17071549  0.36866094  0.16629188
   0.08582817  0.43392647  0.28815212
   0.99278758  0.51016783  0.33790142
   0.89787417  0.58362977  0.45345993
   0.82380011  0.67589011  0.52544002
   0.76040061  0.78621911  0.59198229
   0.66966026  0.82644114  0.66876035
   0.57592112  0.91816953  0.75599536
   0.49002947  0.97363603  0.84588156
   0.48226790  0.98232341  0.98578545
   0.44025430  0.07018373  0.06694274
   0.35592831  0.13915898  0.15899931
   0.24048009  0.25438986  0.26302944
   0.17934000  0.33632307  0.33493722
   0.09692577  0.40714425  0.44322963
   0.98313480  0.49167394  0.48620608
   0.89604271  0.57135525  0.58351310
   0.83379223  0.67323100  0.65404294
   0.78576238  0.74183842  0.76119614
   0.66808897  0.82931295  0.84687032
   0.61025590  0.93010968  0.90980637
   0.58372606  0.92426600  0.08657720
   0.50930890  0.97315560  0.18290452
   0.44649397  0.07377872  0.26316169
   0.32543101  0.14901946  0.35262063
   0.26330072  0.25162265  0.41917407
   0.20549266  0.33689071  0.50997697
   0.08003386  0.41363539  0.57504356
   0.99348017  0.48297101  0.68519165
   0.91003219  0.59086004  0.75275479
   0.83069674  0.66667103  0.83818518
   0.76709380  0.74025433  0.91823675
   0.68918837  0.83867817  0.01639021
   0.67017251  0.81776162  0.15491047
   0.58399365  0.86756045  0.24476946
   0.50450915  0.97894631  0.32049746
   0.42609937  0.05169110  0.40398646
   0.34485692  0.14507451  0.48154518
   0.23977168  0.21788091  0.56437772
   0.19439115  0.32271946  0.64575562
   0.08980213  0.40727907  0.73574466
   0.01658785  0.50480795  0.85087839
   0.92774485  0.58657563  0.90904662
   0.86402237  0.66860033  0.98225213
   0.77849966  0.74248961  0.07687178
   0.32021839  0.33740715  0.64874450
   0.26143466  0.40959119  0.74849159
   0.14055466  0.48944187  0.82699897
   0.10193410  0.60897826  0.93198051
   0.99532682  0.69418109  0.00951241
   0.93880027  0.76600692  0.07130229
   0.84242684  0.81400331  0.17335406
   0.77346969  0.90554766  0.22115164
   0.65925670  0.00894057  0.29393207
   0.58933328  0.07299737  0.40401803
   0.51748389  0.15259668  0.47754373
   0.41669572  0.24555446  0.58540817
   0.40634492  0.23049730  0.73768733
   0.32951344  0.32116178  0.84125265
   0.26923929  0.39688326  0.91921992
   0.16344470  0.49655574  0.01305846
   0.08929526  0.56858080  0.08946643
   0.97636434  0.66349663  0.15616322
   0.91257253  0.74720488  0.24562277
   0.85549462  0.81665864  0.34782208
   0.76893878  0.91451065  0.39544275
   0.67279798  0.00368228  0.50268261
   0.56812472  0.07030448  0.57055017
   0.50176129  0.17072043  0.63574024
   0.50193378  0.20081989  0.81669423
   0.42604739  0.25910726  0.92832406
   0.37475094  0.35721533  0.01567204
   0.25323684  0.44352222  0.08360485
   0.16597971  0.50012011  0.16462827
   0.09228922  0.60602293  0.22763868
   0.99454030  0.67687376  0.32223042
   0.91854353  0.73987675  0.42005721
   0.83556595  0.82563773  0.50304146
   0.76970138  0.92328428  0.58384319
   0.66004458  0.97792376  0.68566756
   0.55591131  0.07749629  0.78479534
   0.57944724  0.09918961  0.87373825
   0.50407508  0.19207270  0.00791557
   0.44244587  0.26496895  0.12581399
   0.33311843  0.34566046  0.18704288
   0.24992938  0.41860878  0.25586812
   0.19144982  0.51208717  0.35493889
   0.07114344  0.58290372  0.41756355
   0.98899540  0.64533783  0.52474124
   0.92197559  0.75446647  0.59038419
   0.82702735  0.84545694  0.67310930
   0.74778863  0.90319760  0.77023922
   0.67422649  0.99585854  0.83588860
   0.66857437  0.01007443  0.98216796
   0.57544601  0.08498691  0.07789050
   0.50198315  0.18234416  0.17497976
   0.39170115  0.22742971  0.26913465
   0.34663230  0.34500241  0.33964400
   0.27644067  0.41975455  0.41940038
   0.15389078  0.48423141  0.50708685
   0.06296300  0.56479491  0.59579339
   0.98570653  0.65429470  0.69574980
   0.90464169  0.73573731  0.75623423
   0.85422077  0.84213408  0.85390979
   0.75703474  0.92397997  0.89750272
   0.76619896  0.91056159  0.09513094
   0.66232608  0.98800827  0.18077763
   0.57531086  0.08858134  0.23103510
   0.50483417  0.15145528  0.34284684
   0.42579707  0.23386308  0.37775763
   0.34653057  0.34074288  0.47580188
   0.26082945  0.42712453  0.60372161
   0.17252759  0.48121524  0.66972663
   0.09834455  0.58716190  0.74029058
   0.01438688  0.68912087  0.87000947
   0.92969391  0.73583287  0.91362155
   0.83828331  0.83353569  0.97317159
   0.41454752  0.42130923  0.58765951
   0.33764005  0.47775321  0.66726247
   0.24991266  0.55930643  0.73979799
   0.18001574  0.63935717  0.82519878
   0.09227651  0.76127530  0.91685134
   0.99393596  0.84811722  0.96138963
   0.92793941  0.90952512  0.08312192
   0.83408195  0.98471003  0.15389762
   0.75850339  0.07392099  0.21997121
   0.68361218  0.15139428  0.32680450
   0.60436467  0.23752347  0.41893927
   0.50854422  0.31960411  0.49748053
   0.50593050  0.31889472  0.64243191
   0.39157747  0.36698335  0.73621458
   0.36423253  0.47265806  0.87439374
   0.23697008  0.56263953  0.91845254
   0.17623432  0.67006441  0.98946844
   0.09436787  0.74401627  0.11012235
   0.00621408  0.83025823  0.15261143
   0.89611397  0.89348048  0.22360423
   0.81971921  0.00894071  0.31077913
   0.75661485  0.10653807  0.41568950
   0.64748745  0.16641632  0.49285303
   0.55264123  0.25674040  0.56719297
   0.60295336  0.27944022  0.75675421
   0.48204272  0.34229998  0.85591927
   0.43348733  0.43185010  0.91268327
   0.36166303  0.53111063  0.01732236
   0.24191824  0.58673055  0.07190071
   0.17895525  0.69746759  0.16592056
   0.08896861  0.72816647  0.24514211
   0.98983591  0.83286628  0.33653506
   0.89906460  0.91508491  0.40266731
   0.84628159  0.02641071  0.50101329
   0.74256576  0.09817320  0.59824321
   0.64262190  0.15457510  0.68097574
   0.68878802  0.16888747  0.84417744
   0.56007521  0.27017356  0.88892961
   0.49261675  0.37435829  0.99941525
   0.43258949  0.44866835  0.11921527
   0.31190784  0.52533284  0.20567019
   0.24896006  0.61477970  0.24533067
   0.18427300  0.66725049  0.34584527
   0.07325549  0.72680857  0.41940383
   0.00323424  0.83672833  0.49124477
   0.90576203  0.91388754  0.59183217
   0.84879055  0.02712378  0.68039862
   0.74673225  0.07737834  0.76545898
   0.74204698  0.07358401  0.93588734
   0.65518873  0.19731928  0.99046528
   0.57312410  0.25545898  0.08417489
   0.50677924  0.34166298  0.20093781
   0.43571398  0.44655646  0.23372186
   0.34569625  0.51296466  0.34411188
   0.23595139  0.58141596  0.44954649
   0.15003862  0.65630000  0.52718976
   0.05275128  0.71936493  0.60593628
   0.97935840  0.84900255  0.69106077
   0.90559694  0.93154521  0.76300224
   0.83775727  0.02065273  0.81228266
   0.86244124  0.99621472  0.00958452
   0.76139225  0.08259315  0.06451037
   0.68248074  0.15815762  0.15086953
   0.59385959  0.23758539  0.25045614
   0.49802532  0.30541309  0.32160112
   0.43719295  0.39724119  0.42612659
   0.31111680  0.49132315  0.49045237
   0.24098457  0.56793466  0.60397577
   0.15285344  0.65623701  0.66513511
   0.09866667  0.76012118  0.74531622
   0.00056030  0.82940674  0.82140340
   0.92868752  0.93858642  0.91832714
