 432 432   0   0
  0.2035379E+02  0.2064000E-08  0.2064000E-08  0.2064000E-08  0.5000000E-15
  1.000000000000000E-004
  CAR 
 Li                                      
      3.58474574     -3.44410888  301      0.38974982      1.00000000
     -3.444  0.0000E+00  0.0000E+00
     -3.421  0.0000E+00  0.0000E+00
     -3.397  0.0000E+00  0.0000E+00
     -3.374  0.0000E+00  0.0000E+00
     -3.350  0.0000E+00  0.0000E+00
     -3.327  0.0000E+00  0.0000E+00
     -3.304  0.0000E+00  0.0000E+00
     -3.280  0.9176E-11  0.2150E-12
     -3.257  0.1932E-07  0.4528E-09
     -3.233  0.1234E-04  0.2895E-06
     -3.210  0.2412E-02  0.5680E-04
     -3.186  0.1464E+00  0.3486E-02
     -3.163  0.2807E+01  0.6925E-01
     -3.140  0.1737E+02  0.4763E+00
     -3.116  0.3537E+02  0.1305E+01
     -3.093  0.2393E+02  0.1866E+01
     -3.069  0.5573E+01  0.1996E+01
     -3.046  0.4533E+01  0.2102E+01
     -3.022  0.2743E+02  0.2745E+01
     -2.999  0.7453E+02  0.4491E+01
     -2.976  0.9053E+02  0.6612E+01
     -2.952  0.4820E+02  0.7742E+01
     -2.929  0.1111E+02  0.8002E+01
     -2.905  0.1101E+02  0.8260E+01
     -2.882  0.4596E+02  0.9336E+01
     -2.858  0.8851E+02  0.1141E+02
     -2.835  0.7720E+02  0.1322E+02
     -2.812  0.2907E+02  0.1390E+02
     -2.788  0.7604E+01  0.1408E+02
     -2.765  0.2720E+02  0.1472E+02
     -2.741  0.8653E+02  0.1674E+02
     -2.718  0.1223E+03  0.1961E+02
     -2.694  0.7831E+02  0.2144E+02
     -2.671  0.2312E+02  0.2199E+02
     -2.648  0.2029E+02  0.2246E+02
     -2.624  0.7745E+02  0.2428E+02
     -2.601  0.1505E+03  0.2780E+02
     -2.577  0.1490E+03  0.3129E+02
     -2.554  0.8348E+02  0.3325E+02
     -2.530  0.2902E+02  0.3393E+02
     -2.507  0.1972E+02  0.3439E+02
     -2.483  0.5600E+02  0.3570E+02
     -2.460  0.9028E+02  0.3782E+02
     -2.437  0.6749E+02  0.3940E+02
     -2.413  0.2365E+02  0.3995E+02
     -2.390  0.1774E+02  0.4037E+02
     -2.366  0.6635E+02  0.4192E+02
     -2.343  0.1305E+03  0.4498E+02
     -2.319  0.1481E+03  0.4845E+02
     -2.296  0.1065E+03  0.5095E+02
     -2.273  0.4655E+02  0.5204E+02
     -2.249  0.5234E+02  0.5326E+02
     -2.226  0.1269E+03  0.5624E+02
     -2.202  0.1932E+03  0.6076E+02
     -2.179  0.1984E+03  0.6541E+02
     -2.155  0.1353E+03  0.6858E+02
     -2.132  0.5337E+02  0.6983E+02
     -2.109  0.2582E+02  0.7044E+02
     -2.085  0.5627E+02  0.7176E+02
     -2.062  0.8705E+02  0.7380E+02
     -2.038  0.6744E+02  0.7538E+02
     -2.015  0.2630E+02  0.7599E+02
     -1.991  0.2948E+02  0.7668E+02
     -1.968  0.9426E+02  0.7889E+02
     -1.945  0.1595E+03  0.8263E+02
     -1.921  0.1609E+03  0.8640E+02
     -1.898  0.1073E+03  0.8891E+02
     -1.874  0.4830E+02  0.9004E+02
     -1.851  0.5917E+02  0.9143E+02
     -1.827  0.1397E+03  0.9470E+02
     -1.804  0.1980E+03  0.9934E+02
     -1.781  0.1917E+03  0.1038E+03
     -1.757  0.1268E+03  0.1068E+03
     -1.734  0.5020E+02  0.1080E+03
     -1.710  0.4530E+02  0.1090E+03
     -1.687  0.1106E+03  0.1116E+03
     -1.663  0.1554E+03  0.1153E+03
     -1.640  0.1270E+03  0.1183E+03
     -1.617  0.6690E+02  0.1198E+03
     -1.593  0.5868E+02  0.1212E+03
     -1.570  0.1282E+03  0.1242E+03
     -1.546  0.2032E+03  0.1290E+03
     -1.523  0.2110E+03  0.1339E+03
     -1.499  0.1298E+03  0.1369E+03
     -1.476  0.5170E+02  0.1382E+03
     -1.453  0.7110E+02  0.1398E+03
     -1.429  0.1640E+03  0.1437E+03
     -1.406  0.2199E+03  0.1488E+03
     -1.382  0.1828E+03  0.1531E+03
     -1.359  0.9522E+02  0.1553E+03
     -1.335  0.4157E+02  0.1563E+03
     -1.312  0.6815E+02  0.1579E+03
     -1.289  0.1298E+03  0.1609E+03
     -1.265  0.1439E+03  0.1643E+03
     -1.242  0.1040E+03  0.1667E+03
     -1.218  0.4678E+02  0.1678E+03
     -1.195  0.3211E+02  0.1686E+03
     -1.171  0.8532E+02  0.1706E+03
     -1.148  0.1440E+03  0.1740E+03
     -1.125  0.1452E+03  0.1774E+03
     -1.101  0.1064E+03  0.1799E+03
     -1.078  0.1103E+03  0.1824E+03
     -1.054  0.1810E+03  0.1867E+03
     -1.031  0.2534E+03  0.1926E+03
     -1.007  0.2787E+03  0.1992E+03
     -0.984  0.2416E+03  0.2048E+03
     -0.961  0.1635E+03  0.2086E+03
     -0.937  0.1191E+03  0.2114E+03
     -0.914  0.1549E+03  0.2151E+03
     -0.890  0.1924E+03  0.2196E+03
     -0.867  0.1745E+03  0.2237E+03
     -0.843  0.1205E+03  0.2265E+03
     -0.820  0.6155E+02  0.2279E+03
     -0.797  0.6010E+02  0.2293E+03
     -0.773  0.1304E+03  0.2324E+03
     -0.750  0.1840E+03  0.2367E+03
     -0.726  0.1495E+03  0.2402E+03
     -0.703  0.8332E+02  0.2422E+03
     -0.679  0.9861E+02  0.2445E+03
     -0.656  0.1831E+03  0.2488E+03
     -0.633  0.2432E+03  0.2545E+03
     -0.609  0.2422E+03  0.2601E+03
     -0.586  0.1804E+03  0.2644E+03
     -0.562  0.1125E+03  0.2670E+03
     -0.539  0.9206E+02  0.2691E+03
     -0.515  0.7732E+02  0.2710E+03
     -0.492  0.4162E+02  0.2719E+03
     -0.469  0.4580E+02  0.2730E+03
     -0.445  0.1208E+03  0.2758E+03
     -0.422  0.1992E+03  0.2805E+03
     -0.398  0.2323E+03  0.2859E+03
     -0.375  0.2299E+03  0.2913E+03
     -0.351  0.1893E+03  0.2958E+03
     -0.328  0.1571E+03  0.2994E+03
     -0.305  0.1636E+03  0.3033E+03
     -0.281  0.1829E+03  0.3076E+03
     -0.258  0.2101E+03  0.3125E+03
     -0.234  0.2428E+03  0.3182E+03
     -0.211  0.2503E+03  0.3240E+03
     -0.187  0.2068E+03  0.3289E+03
     -0.164  0.1469E+03  0.3323E+03
     -0.141  0.1202E+03  0.3351E+03
     -0.117  0.1260E+03  0.3381E+03
     -0.094  0.1345E+03  0.3412E+03
     -0.070  0.1304E+03  0.3443E+03
     -0.047  0.1596E+03  0.3480E+03
     -0.023  0.2142E+03  0.3531E+03
      0.000  0.2437E+03  0.3588E+03
      0.023  0.2543E+03  0.3647E+03
      0.047  0.2534E+03  0.3707E+03
      0.070  0.2240E+03  0.3759E+03
      0.094  0.1713E+03  0.3799E+03
      0.117  0.1630E+03  0.3837E+03
      0.141  0.1953E+03  0.3883E+03
      0.164  0.2079E+03  0.3932E+03
      0.187  0.1975E+03  0.3978E+03
      0.211  0.1644E+03  0.4017E+03
      0.234  0.1226E+03  0.4045E+03
      0.258  0.1256E+03  0.4075E+03
      0.281  0.1531E+03  0.4111E+03
      0.305  0.1763E+03  0.4152E+03
      0.328  0.2000E+03  0.4199E+03
      0.351  0.2040E+03  0.4247E+03
      0.375  0.1917E+03  0.4292E+03
      0.398  0.1922E+03  0.4337E+03
      0.422  0.1938E+03  0.4382E+03
      0.445  0.1968E+03  0.4428E+03
      0.469  0.2162E+03  0.4479E+03
      0.492  0.2162E+03  0.4529E+03
      0.515  0.1944E+03  0.4575E+03
      0.539  0.1794E+03  0.4617E+03
      0.562  0.1750E+03  0.4658E+03
      0.586  0.1800E+03  0.4700E+03
      0.609  0.1957E+03  0.4746E+03
      0.633  0.2116E+03  0.4796E+03
      0.656  0.2136E+03  0.4846E+03
      0.679  0.2199E+03  0.4897E+03
      0.703  0.2328E+03  0.4952E+03
      0.726  0.2455E+03  0.5009E+03
      0.750  0.2575E+03  0.5070E+03
      0.773  0.2659E+03  0.5132E+03
      0.797  0.2577E+03  0.5192E+03
      0.820  0.2506E+03  0.5251E+03
      0.843  0.2574E+03  0.5311E+03
      0.867  0.2476E+03  0.5369E+03
      0.890  0.2290E+03  0.5423E+03
      0.914  0.2128E+03  0.5473E+03
      0.937  0.2007E+03  0.5520E+03
      0.961  0.2110E+03  0.5569E+03
      0.984  0.2234E+03  0.5622E+03
      1.007  0.2183E+03  0.5673E+03
      1.031  0.2152E+03  0.5723E+03
      1.054  0.2268E+03  0.5776E+03
      1.078  0.2357E+03  0.5832E+03
      1.101  0.2330E+03  0.5886E+03
      1.125  0.2301E+03  0.5940E+03
      1.148  0.2222E+03  0.5992E+03
      1.172  0.2088E+03  0.6041E+03
      1.195  0.1966E+03  0.6087E+03
      1.218  0.1907E+03  0.6132E+03
      1.242  0.1907E+03  0.6176E+03
      1.265  0.1959E+03  0.6222E+03
      1.289  0.1893E+03  0.6267E+03
      1.312  0.1825E+03  0.6309E+03
      1.336  0.1874E+03  0.6353E+03
      1.359  0.1956E+03  0.6399E+03
      1.382  0.1897E+03  0.6444E+03
      1.406  0.1573E+03  0.6481E+03
      1.429  0.1141E+03  0.6507E+03
      1.453  0.1036E+03  0.6532E+03
      1.476  0.1272E+03  0.6561E+03
      1.500  0.1519E+03  0.6597E+03
      1.523  0.1558E+03  0.6633E+03
      1.546  0.1493E+03  0.6668E+03
      1.570  0.1574E+03  0.6705E+03
      1.593  0.1656E+03  0.6744E+03
      1.617  0.1621E+03  0.6782E+03
      1.640  0.1681E+03  0.6821E+03
      1.664  0.1737E+03  0.6862E+03
      1.687  0.1679E+03  0.6901E+03
      1.710  0.1512E+03  0.6937E+03
      1.734  0.1486E+03  0.6972E+03
      1.757  0.1614E+03  0.7010E+03
      1.781  0.1818E+03  0.7052E+03
      1.804  0.1916E+03  0.7097E+03
      1.828  0.1857E+03  0.7141E+03
      1.851  0.1849E+03  0.7184E+03
      1.874  0.1793E+03  0.7226E+03
      1.898  0.1818E+03  0.7268E+03
      1.921  0.1898E+03  0.7313E+03
      1.945  0.1870E+03  0.7357E+03
      1.968  0.1866E+03  0.7400E+03
      1.992  0.1825E+03  0.7443E+03
      2.015  0.1702E+03  0.7483E+03
      2.038  0.1558E+03  0.7520E+03
      2.062  0.1479E+03  0.7554E+03
      2.085  0.1422E+03  0.7588E+03
      2.109  0.1440E+03  0.7621E+03
      2.132  0.1421E+03  0.7655E+03
      2.156  0.1344E+03  0.7686E+03
      2.179  0.1297E+03  0.7716E+03
      2.202  0.1288E+03  0.7747E+03
      2.226  0.1323E+03  0.7778E+03
      2.249  0.1278E+03  0.7808E+03
      2.273  0.1095E+03  0.7833E+03
      2.296  0.1001E+03  0.7857E+03
      2.320  0.1076E+03  0.7882E+03
      2.343  0.1080E+03  0.7907E+03
      2.366  0.9893E+02  0.7930E+03
      2.390  0.7804E+02  0.7949E+03
      2.413  0.3795E+02  0.7958E+03
      2.437  0.9974E+01  0.7960E+03
      2.460  0.9422E+01  0.7962E+03
      2.484  0.3479E+02  0.7970E+03
      2.507  0.6471E+02  0.7985E+03
      2.530  0.6957E+02  0.8002E+03
      2.554  0.5164E+02  0.8014E+03
      2.577  0.2492E+02  0.8020E+03
      2.601  0.1899E+02  0.8024E+03
      2.624  0.3291E+02  0.8032E+03
      2.648  0.4513E+02  0.8042E+03
      2.671  0.5866E+02  0.8056E+03
      2.694  0.8128E+02  0.8075E+03
      2.718  0.1074E+03  0.8100E+03
      2.741  0.1198E+03  0.8128E+03
      2.765  0.1119E+03  0.8155E+03
      2.788  0.1045E+03  0.8179E+03
      2.812  0.1121E+03  0.8205E+03
      2.835  0.1250E+03  0.8235E+03
      2.858  0.1345E+03  0.8266E+03
      2.882  0.1400E+03  0.8299E+03
      2.905  0.1403E+03  0.8332E+03
      2.929  0.1205E+03  0.8360E+03
      2.952  0.1100E+03  0.8386E+03
      2.976  0.1158E+03  0.8413E+03
      2.999  0.1157E+03  0.8440E+03
      3.022  0.9505E+02  0.8462E+03
      3.046  0.6438E+02  0.8478E+03
      3.069  0.5229E+02  0.8490E+03
      3.093  0.5413E+02  0.8502E+03
      3.116  0.6122E+02  0.8517E+03
      3.140  0.7717E+02  0.8535E+03
      3.163  0.9944E+02  0.8558E+03
      3.186  0.1124E+03  0.8585E+03
      3.210  0.1210E+03  0.8613E+03
      3.233  0.1058E+03  0.8638E+03
      3.257  0.6333E+02  0.8652E+03
      3.280  0.2492E+02  0.8658E+03
      3.304  0.6291E+01  0.8660E+03
      3.327  0.7997E+00  0.8660E+03
      3.350  0.3897E-01  0.8660E+03
      3.374  0.6338E-03  0.8660E+03
      3.397  0.3251E-05  0.8660E+03
      3.421  0.5133E-08  0.8660E+03
      3.444  0.2459E-11  0.8660E+03
      3.468  0.0000E+00  0.8660E+03
      3.491  0.0000E+00  0.8660E+03
      3.514  0.0000E+00  0.8660E+03
      3.538  0.0000E+00  0.8660E+03
      3.561  0.0000E+00  0.8660E+03
      3.585  0.0000E+00  0.8660E+03
