       N       E                     dE             d eps       ncg     rms          rms(c)
DAV:   1    -0.244106571573E+03   -0.24411E+03   -0.10479E+05  3464   0.656E+02
DAV:   2    -0.761968610203E+03   -0.51786E+03   -0.47304E+03  4004   0.672E+01
DAV:   3    -0.798651764912E+03   -0.36683E+02   -0.33573E+02  4400   0.142E+01
DAV:   4    -0.799869268085E+03   -0.12175E+01   -0.12008E+01  3968   0.284E+00
DAV:   5    -0.799897037915E+03   -0.27770E-01   -0.27736E-01  4144   0.456E-01    0.861E+00
DAV:   6    -0.792220088356E+03    0.76769E+01   -0.94575E+00  3856   0.377E+00    0.527E+00
DAV:   7    -0.790919686421E+03    0.13004E+01   -0.66610E+00  3992   0.353E+00    0.420E+00
DAV:   8    -0.788765317239E+03    0.21544E+01   -0.32774E+00  3968   0.229E+00    0.222E+00
DAV:   9    -0.788369896156E+03    0.39542E+00   -0.19959E+00  3824   0.118E+00    0.108E+00
DAV:  10    -0.788391234851E+03   -0.21339E-01   -0.46877E-01  3896   0.647E-01    0.799E-01
DAV:  11    -0.788344104464E+03    0.47130E-01   -0.12873E-01  3832   0.420E-01    0.508E-01
DAV:  12    -0.788330055499E+03    0.14049E-01   -0.28246E-02  3776   0.170E-01    0.213E-01
DAV:  13    -0.788330035753E+03    0.19746E-04   -0.10085E-02  3936   0.979E-02    0.108E-01
DAV:  14    -0.788329680040E+03    0.35571E-03   -0.26800E-03  3944   0.643E-02    0.733E-02
DAV:  15    -0.788329199703E+03    0.48034E-03   -0.74469E-04  3928   0.375E-02    0.409E-02
DAV:  16    -0.788329060618E+03    0.13908E-03   -0.37936E-04  3760   0.185E-02    0.149E-02
DAV:  17    -0.788329065787E+03   -0.51691E-05   -0.80803E-05  4048   0.110E-02
   1 F= -.78832907E+03 E0= -.78828557E+03  d E =-.869946E-01
