Li                                      
           1
    20.640000    0.000000    0.000000
     0.000000   20.640000    0.000000
     0.000000    0.000000   20.640000
   Li
   432
Direct configuration=     1
   0.99964109  0.01246340  0.98299628
   0.93248031  0.09345646  0.10988356
   0.82562655  0.17576536  0.18102628
   0.74092135  0.25632366  0.25022430
   0.65154727  0.35866013  0.32498420
   0.55520694  0.42550923  0.41504755
   0.48185644  0.52751468  0.51494527
   0.41596073  0.59605607  0.59999499
   0.33752840  0.64769635  0.69067048
   0.25567524  0.77241728  0.76864775
   0.15334210  0.82767645  0.83774268
   0.08120906  0.91958456  0.91757475
   0.08430763  0.90853419  0.07546150
   0.00909856  0.97472650  0.16390962
   0.90891103  0.06644997  0.25278911
   0.82028325  0.16816855  0.32304998
   0.76259663  0.25788968  0.38535219
   0.67073471  0.33915521  0.50573884
   0.57099516  0.43764544  0.57163625
   0.50164032  0.52789877  0.68988313
   0.42603603  0.58728201  0.78805940
   0.33759692  0.63669712  0.85524667
   0.27123185  0.76667088  0.90708921
   0.18607135  0.83647509  0.98388530
   0.16236281  0.83591593  0.16067477
   0.10146571  0.89881074  0.26049373
   0.01035199  0.98968665  0.36443433
   0.92539666  0.09657986  0.42108414
   0.80207020  0.14088610  0.49993127
   0.73964373  0.23758812  0.56482485
   0.68588176  0.32904744  0.63882175
   0.58583190  0.42351135  0.76727738
   0.49447308  0.49202095  0.86021292
   0.42148868  0.57407145  0.91490286
   0.32661361  0.66730389  0.98746201
   0.25064777  0.77299840  0.05566159
   0.24556035  0.74559100  0.20889328
   0.19078174  0.83377274  0.33874862
   0.09605220  0.90562587  0.42952527
   0.00307157  0.00593556  0.51837222
   0.90669617  0.07638751  0.56486752
   0.82268463  0.13883495  0.64828287
   0.73524384  0.22372727  0.74982481
   0.67281344  0.33914736  0.83760465
   0.58071479  0.40710633  0.92170852
   0.51847687  0.48208872  0.99054873
   0.40680683  0.56838372  0.06346923
   0.34262429  0.64284519  0.13939919
   0.32353132  0.66314697  0.31553180
   0.27024448  0.74513247  0.42474689
   0.17887257  0.82508277  0.51536494
   0.08550696  0.91170937  0.58737441
   0.01777978  0.98956456  0.65311521
   0.91775655  0.06945997  0.75953882
   0.85222389  0.16546836  0.81135944
   0.77517817  0.25783822  0.92912621
   0.66473275  0.34337717  0.01955013
   0.57266541  0.40806804  0.09036830
   0.48368174  0.48719219  0.16495806
   0.40960227  0.58895422  0.24568725
   0.41164689  0.59241663  0.42233582
   0.34339307  0.66256047  0.50813619
   0.25966077  0.74535938  0.58040591
   0.16510613  0.83856418  0.66025501
   0.07038956  0.89266553  0.74990854
   0.99372507  0.01690993  0.83445572
   0.89745280  0.08449803  0.91338297
   0.82278207  0.16107856  0.01390115
   0.74320207  0.25975382  0.09742113
   0.67629541  0.34086851  0.17667686
   0.57802236  0.42842350  0.24051315
   0.47739863  0.51284496  0.33730320
   0.09694122  0.08265730  0.90212875
   0.00402803  0.14420462  0.98439585
   0.93052509  0.23325101  0.09159293
   0.83116178  0.32978526  0.15777763
   0.74336697  0.39737017  0.25923187
   0.64659396  0.50329443  0.32244965
   0.58457430  0.59506882  0.40324827
   0.49760080  0.66990419  0.49817628
   0.41718970  0.74451761  0.59424841
   0.34402711  0.83272721  0.66616261
   0.23963607  0.88579022  0.75452985
   0.16117103  0.98299400  0.82461211
   0.17192499  0.00625805  0.00163205
   0.10852216  0.07806271  0.09400920
   0.00584994  0.17388653  0.18673169
   0.90191809  0.24021536  0.26750973
   0.82541640  0.31101527  0.32619317
   0.76521605  0.42838035  0.41165759
   0.65376895  0.50648909  0.48183400
   0.59271619  0.59196908  0.58283481
   0.51396500  0.66675263  0.67724120
   0.41645007  0.73171072  0.76982832
   0.36416747  0.84041032  0.84356938
   0.25208761  0.93340532  0.91065924
   0.24905838  0.91905694  0.07525819
   0.18327466  0.99305315  0.18123707
   0.08046313  0.08109189  0.26670177
   0.98664395  0.17597522  0.31687313
   0.90971727  0.25037104  0.43421676
   0.82049029  0.31630080  0.49198657
   0.75582005  0.43637298  0.56912056
   0.68626442  0.48479892  0.68894436
   0.60637306  0.56725746  0.76181196
   0.52042986  0.66185372  0.82128858
   0.43607603  0.73287314  0.91886136
   0.35649404  0.85568250  0.99470906
   0.34019330  0.82918089  0.12989949
   0.28077735  0.93005765  0.25326353
   0.16324330  0.00036448  0.33102177
   0.10614742  0.09424722  0.42709448
   0.00845065  0.16645685  0.49606431
   0.89869004  0.24983618  0.57509742
   0.82283727  0.34174203  0.66374198
   0.76493457  0.41516877  0.76362422
   0.68691193  0.49867046  0.85734151
   0.61505240  0.58112770  0.90704653
   0.49971812  0.64970938  0.98987596
   0.42241105  0.74431054  0.08078911
   0.38612288  0.74174235  0.23567827
   0.31174454  0.82950387  0.33938137
   0.24304805  0.92177859  0.43060711
   0.15603021  0.99025858  0.51614472
   0.09133786  0.09402717  0.59294007
   0.99538298  0.16084042  0.64901473
   0.90180791  0.23183028  0.72051321
   0.83731445  0.30536483  0.81369328
   0.77817123  0.40912648  0.91037200
   0.69733289  0.48340636  0.98712862
   0.58655139  0.54820062  0.08402887
   0.50324566  0.66370441  0.14440169
   0.48471175  0.66193449  0.31351427
   0.41313489  0.74158472  0.42665775
   0.33962537  0.82842154  0.48446359
   0.26799718  0.91165776  0.59299737
   0.14601931  0.99801215  0.66261570
   0.06567739  0.08878843  0.76368858
   0.98568730  0.18731293  0.83960295
   0.92758953  0.23942588  0.91463173
   0.86570494  0.33393335  0.02653383
   0.75427017  0.43723196  0.08785870
   0.66811376  0.50744300  0.17843007
   0.55287733  0.58674142  0.23774580
   0.15975979  0.18087875  0.83885234
   0.09294905  0.24891012  0.92119014
   0.99328175  0.32090984  0.99420241
   0.94099143  0.42038895  0.09188722
   0.82980611  0.50153149  0.18637550
   0.74789806  0.57953500  0.25239052
   0.65465684  0.66736841  0.31297579
   0.57348951  0.76553296  0.39950192
   0.48407461  0.84417997  0.50749818
   0.42015315  0.93066807  0.56849035
   0.34169030  0.99246450  0.67244342
   0.25283888  0.07144851  0.77581816
   0.25023782  0.09598024  0.89616052
   0.17915941  0.17130878  0.00693102
   0.08997784  0.25276146  0.09426371
   0.98610543  0.32065522  0.18359810
   0.90333522  0.42500859  0.25676680
   0.83657366  0.49721035  0.33126673
   0.74374582  0.59296412  0.40334491
   0.66319874  0.68752146  0.45362831
   0.56989736  0.74901711  0.55888941
   0.50075063  0.83174964  0.65831216
   0.43761640  0.90641412  0.73364699
   0.33960581  0.97095727  0.82075177
   0.33635081  0.99942556  0.97581728
   0.26475874  0.08280386  0.07235720
   0.17531873  0.18942550  0.16607829
   0.09083434  0.25536838  0.25586574
   0.00467833  0.33705837  0.33502591
   0.91356327  0.39824971  0.43489170
   0.82927745  0.51374036  0.48789296
   0.73985107  0.59777641  0.59522926
   0.65220726  0.67869937  0.69839284
   0.60032859  0.74509096  0.75126109
   0.52697456  0.82937426  0.84310997
   0.43055556  0.93604740  0.91127386
   0.39915634  0.93941346  0.08988185
   0.33072140  0.01878522  0.16148087
   0.26971313  0.10093658  0.26312061
   0.17369168  0.18417092  0.34006289
   0.07305767  0.25805099  0.41485588
   0.98877680  0.31618944  0.49383270
   0.90042112  0.42571059  0.56680861
   0.83276171  0.51851640  0.67458794
   0.73543361  0.58628117  0.76973488
   0.67714030  0.64960258  0.84190629
   0.57926646  0.75052263  0.93233038
   0.48288346  0.82773782  0.00924712
   0.49475643  0.82967268  0.17277518
   0.39431605  0.91761513  0.26204500
   0.31411433  0.01238654  0.36082884
   0.24501333  0.07229203  0.43131410
   0.15816503  0.17989487  0.51798670
   0.07063405  0.25244029  0.59650233
   0.99114866  0.32697771  0.65466330
   0.91804072  0.40826048  0.74626254
   0.83513792  0.51412146  0.83064239
   0.77013117  0.58990769  0.94245670
   0.66971799  0.66171605  0.02058464
   0.58412012  0.73348152  0.06820982
   0.57202050  0.73625950  0.23655113
   0.48155293  0.83162882  0.33229207
   0.39979740  0.92145740  0.41474945
   0.34349615  0.00878748  0.49366566
   0.24742675  0.07823611  0.61247927
   0.16529898  0.15834233  0.67738010
   0.07597783  0.25416081  0.74037344
   0.00401092  0.32607104  0.83271949
   0.91202323  0.41513872  0.91832054
   0.85131045  0.47705485  0.00516837
   0.75388009  0.56621938  0.07953842
   0.65774374  0.66421504  0.14332678
   0.25174233  0.24703566  0.75405398
   0.16218254  0.33821762  0.82422197
   0.06061559  0.41337804  0.91378089
   0.00467665  0.49547122  0.99477517
   0.91880986  0.56955667  0.07788568
   0.83752009  0.67344169  0.15665003
   0.75220862  0.76894960  0.25315305
   0.66396062  0.83013161  0.29795717
   0.57335706  0.91202099  0.40419914
   0.50878949  0.98775153  0.50502387
   0.43886243  0.09078768  0.57810014
   0.33922139  0.15537033  0.68797728
   0.33095670  0.16960285  0.83315326
   0.24199400  0.27573494  0.93023442
   0.15771327  0.34208235  0.00310111
   0.05497600  0.41451137  0.09807524
   0.99670739  0.51264018  0.19279397
   0.91065607  0.60586563  0.27028614
   0.80744918  0.68743353  0.33419245
   0.74302168  0.76987912  0.43191150
   0.63936887  0.84218753  0.49453776
   0.57836026  0.92024347  0.56685975
   0.50968057  0.01147911  0.67535630
   0.43355197  0.08482286  0.76352945
   0.42091540  0.08022900  0.89444793
   0.34606081  0.16939050  0.96753970
   0.24076561  0.26378056  0.07481106
   0.16320838  0.34389321  0.15354276
   0.07721546  0.40967008  0.24729671
   0.99942070  0.50284331  0.32435967
   0.90545107  0.58316367  0.39289105
   0.82744715  0.65937800  0.49238480
   0.73084778  0.76383324  0.56967728
   0.65752740  0.83734091  0.64807122
   0.58604590  0.89373468  0.72211648
   0.51915497  0.98023203  0.85309109
   0.50618120  0.01174227  0.99712737
   0.41019599  0.09007244  0.06983655
   0.32007743  0.15852779  0.15885391
   0.25437117  0.26487407  0.25404785
   0.15051202  0.32472255  0.33736985
   0.08391329  0.40183146  0.43063178
   0.00399050  0.51824108  0.48891938
   0.92296843  0.59479077  0.56936600
   0.83369949  0.66473811  0.65556106
   0.76294905  0.76670647  0.75145079
   0.67514519  0.82233724  0.84271355
   0.59619598  0.89514726  0.91734103
   0.56882128  0.88762226  0.07428651
   0.50190581  0.98181055  0.16461017
   0.40440731  0.06172870  0.24297167
   0.36239170  0.17590279  0.34911658
   0.25633482  0.24709232  0.42080500
   0.16452188  0.30345713  0.48770235
   0.07548226  0.41220707  0.55977007
   0.99898288  0.52791193  0.66249955
   0.91085873  0.60815123  0.71960666
   0.85240473  0.67571849  0.81852883
   0.74615204  0.73366362  0.93626326
   0.67407599  0.82944643  0.00778226
   0.65695652  0.82320900  0.16745700
   0.57076733  0.92437002  0.26294069
   0.48902404  0.99997954  0.33565154
   0.44014036  0.08037339  0.39683401
   0.33681408  0.18281900  0.50273891
   0.25567476  0.25226932  0.61513927
   0.16338115  0.34202199  0.66157628
   0.06590850  0.41950988  0.74237824
   0.97777569  0.49673935  0.82945918
   0.90944460  0.57976250  0.94257228
   0.85177700  0.68869751  0.03077477
   0.74051578  0.75455508  0.09737154
   0.33784612  0.32538822  0.67342781
   0.23871919  0.40643445  0.76056368
   0.15582159  0.49033048  0.83633211
   0.08241190  0.58333787  0.90945467
   0.00997102  0.65663644  0.00463089
   0.93480327  0.77811397  0.09343953
   0.85490094  0.84992117  0.17670827
   0.75605856  0.92748551  0.24084080
   0.66643499  0.99969301  0.32804527
   0.59456372  0.06857596  0.39814066
   0.51918322  0.15956265  0.49030111
   0.44268646  0.24412204  0.57858985
   0.42264696  0.24568675  0.73547841
   0.33691541  0.30795815  0.80805508
   0.25414906  0.40173038  0.89946632
   0.16214133  0.49981460  0.97920963
   0.08321344  0.57025508  0.08169039
   0.00532328  0.67136781  0.18063142
   0.91521902  0.76184305  0.24841786
   0.83327098  0.84330230  0.34545319
   0.75449878  0.90408684  0.41530871
   0.65732334  0.99005527  0.48973790
   0.59464821  0.06719358  0.57266345
   0.53078380  0.17537603  0.67515165
   0.52017420  0.18669058  0.83456877
   0.40839364  0.25739350  0.91477678
   0.32065785  0.33257252  0.99806953
   0.25840827  0.43228547  0.07029512
   0.15332069  0.48477762  0.16298169
   0.08614336  0.60684446  0.27218056
   0.99595845  0.67354828  0.33997125
   0.89916157  0.76767147  0.40958024
   0.83006529  0.84135101  0.51235589
   0.74507705  0.91053294  0.59299248
   0.66990639  0.00262204  0.68242492
   0.58011020  0.09687889  0.75662687
   0.59679634  0.08457272  0.91466098
   0.50498712  0.17158246  0.97516271
   0.41280873  0.24355179  0.07128161
   0.32594672  0.32610468  0.14734640
   0.26826152  0.42499008  0.25092222
   0.14923478  0.49714130  0.33279933
   0.10328703  0.59176874  0.41343030
   0.99004418  0.65407284  0.48830518
   0.90775992  0.74397962  0.56250531
   0.83929313  0.83846507  0.66506293
   0.74824137  0.90478355  0.74869886
   0.66701514  0.95778641  0.84181560
   0.66590645  0.99223224  0.01113885
   0.57279712  0.07766611  0.09814643
   0.50628207  0.17595544  0.17961851
   0.39206831  0.26695790  0.25039023
   0.32170605  0.33917238  0.35879278
   0.24067246  0.42861121  0.42873265
   0.17888447  0.49947978  0.49085972
   0.08890857  0.58818305  0.58500259
   0.99455337  0.67889533  0.66081809
   0.91005791  0.74412715  0.72769883
   0.84094497  0.83651530  0.83589171
   0.75358778  0.90693586  0.93438582
   0.74279216  0.90340182  0.09013872
   0.64763846  0.99653925  0.18207585
   0.58707359  0.06432785  0.25086907
   0.52031460  0.18493857  0.32542186
   0.41731556  0.26159052  0.41899481
   0.33346714  0.33188426  0.51177299
   0.23614420  0.40354467  0.59523308
   0.16617123  0.49457310  0.65596770
   0.08674587  0.57994608  0.75411698
   0.98530211  0.66907841  0.83564573
   0.92426401  0.73302541  0.93711078
   0.83552834  0.83093187  0.00865507
   0.42857032  0.41937189  0.59863901
   0.33288844  0.49567681  0.70393960
   0.23660741  0.57487229  0.74527421
   0.18481368  0.65697896  0.83759918
   0.08338505  0.74971472  0.91941825
   0.99092853  0.83533531  0.99247670
   0.92683942  0.91222803  0.08845495
   0.84318262  0.00388935  0.14272781
   0.76576451  0.06121246  0.24314674
   0.65400043  0.16362108  0.31848426
   0.58927962  0.24918349  0.40564038
   0.47676826  0.34632526  0.48630377
   0.53209478  0.33550561  0.66569399
   0.44397275  0.41978646  0.76237076
   0.33102853  0.48509554  0.83373183
   0.25291975  0.57087711  0.89629093
   0.16932848  0.67540109  0.99064305
   0.04825127  0.77047906  0.07948746
   0.01787573  0.84348935  0.17674525
   0.91533867  0.93195878  0.26288667
   0.83100170  0.00096549  0.36295951
   0.75481944  0.08055295  0.39636979
   0.65969742  0.16290175  0.47974076
   0.58261517  0.26340846  0.57545425
   0.61570717  0.26236997  0.74696294
   0.50166199  0.33964864  0.83450550
   0.39141529  0.40455380  0.93774889
   0.32391375  0.50026131  0.98229762
   0.25139429  0.58450374  0.05717967
   0.16106009  0.65220827  0.13667151
   0.09880191  0.74588582  0.24359371
   0.01732546  0.83091499  0.32096964
   0.92263576  0.90184747  0.43076159
   0.83775177  0.00092330  0.47809251
   0.72641479  0.04408522  0.56363709
   0.66117959  0.15565045  0.65194695
   0.67115642  0.18559884  0.84307099
   0.61103063  0.27772909  0.91888084
   0.51113256  0.31556999  0.99908067
   0.42580059  0.43308378  0.05723869
   0.31944723  0.51285371  0.15351949
   0.24574910  0.60125024  0.26424811
   0.16933113  0.68552384  0.33653014
   0.10052447  0.75040480  0.41614016
   0.00895881  0.82455051  0.50984649
   0.90954448  0.92322191  0.58294442
   0.82102324  0.99492048  0.64826735
   0.74035902  0.07816971  0.76785042
   0.74285697  0.08056392  0.91983509
   0.65684297  0.17445535  0.01785528
   0.57555894  0.24546038  0.10216344
   0.47364824  0.32766129  0.17291876
   0.38647358  0.42374058  0.24447334
   0.33049113  0.52055930  0.33859859
   0.24841998  0.58801928  0.43018110
   0.17845262  0.68279326  0.51630438
   0.08713343  0.74829019  0.59348995
   0.99587260  0.82766179  0.65675108
   0.90222727  0.93282593  0.74930661
   0.82763459  0.97994237  0.83306847
   0.85049516  0.00312198  0.01411726
   0.73205156  0.08207775  0.11109917
   0.65488304  0.16445297  0.18577495
   0.58045727  0.28387837  0.24106192
   0.47763441  0.34949074  0.31823175
   0.40296057  0.42484357  0.42421794
   0.32876087  0.50295538  0.50948550
   0.25910981  0.57516763  0.60021890
   0.16589902  0.66932640  0.67715825
   0.06805398  0.73830980  0.74644554
   0.97176657  0.82960295  0.82877199
   0.91090187  0.94449460  0.91975766
