 504 504   0   0
  0.2106490E+02  0.2170700E-08  0.2148436E-08  0.2276500E-08  0.5000000E-15
  1.000000000000000E-004
  CAR 
 Li                                      
      3.34418547     -3.48572522  301      0.30575099      1.00000000
     -3.486  0.0000E+00  0.0000E+00
     -3.463  0.0000E+00  0.0000E+00
     -3.440  0.0000E+00  0.0000E+00
     -3.417  0.0000E+00  0.0000E+00
     -3.395  0.0000E+00  0.0000E+00
     -3.372  0.0000E+00  0.0000E+00
     -3.349  0.9753E-14  0.2220E-15
     -3.326  0.4536E-10  0.1033E-11
     -3.304  0.6247E-07  0.1423E-08
     -3.281  0.2792E-04  0.6371E-06
     -3.258  0.4087E-02  0.9368E-04
     -3.235  0.1983E+00  0.4608E-02
     -3.213  0.3242E+01  0.7841E-01
     -3.190  0.1818E+02  0.4922E+00
     -3.167  0.3552E+02  0.1301E+01
     -3.144  0.2439E+02  0.1856E+01
     -3.121  0.6652E+01  0.2008E+01
     -3.099  0.1029E+02  0.2242E+01
     -3.076  0.4729E+02  0.3319E+01
     -3.053  0.9505E+02  0.5483E+01
     -3.030  0.7997E+02  0.7303E+01
     -3.008  0.2739E+02  0.7927E+01
     -2.985  0.9983E+01  0.8154E+01
     -2.962  0.3947E+02  0.9052E+01
     -2.939  0.9099E+02  0.1112E+02
     -2.917  0.8595E+02  0.1308E+02
     -2.894  0.3607E+02  0.1390E+02
     -2.871  0.1998E+02  0.1436E+02
     -2.848  0.4980E+02  0.1549E+02
     -2.826  0.9350E+02  0.1762E+02
     -2.803  0.1091E+03  0.2010E+02
     -2.780  0.6663E+02  0.2162E+02
     -2.757  0.3178E+02  0.2234E+02
     -2.734  0.6730E+02  0.2388E+02
     -2.712  0.1314E+03  0.2687E+02
     -2.689  0.1547E+03  0.3039E+02
     -2.666  0.1114E+03  0.3293E+02
     -2.643  0.4360E+02  0.3392E+02
     -2.621  0.2768E+02  0.3455E+02
     -2.598  0.6497E+02  0.3603E+02
     -2.575  0.9280E+02  0.3814E+02
     -2.552  0.6789E+02  0.3969E+02
     -2.530  0.4425E+02  0.4069E+02
     -2.507  0.5930E+02  0.4204E+02
     -2.484  0.9025E+02  0.4410E+02
     -2.461  0.1192E+03  0.4681E+02
     -2.438  0.1283E+03  0.4973E+02
     -2.416  0.1115E+03  0.5227E+02
     -2.393  0.1051E+03  0.5466E+02
     -2.370  0.1203E+03  0.5740E+02
     -2.347  0.1601E+03  0.6105E+02
     -2.325  0.1874E+03  0.6531E+02
     -2.302  0.1466E+03  0.6865E+02
     -2.279  0.8209E+02  0.7052E+02
     -2.256  0.4904E+02  0.7164E+02
     -2.234  0.4296E+02  0.7261E+02
     -2.211  0.6701E+02  0.7414E+02
     -2.188  0.6829E+02  0.7569E+02
     -2.165  0.6702E+02  0.7722E+02
     -2.143  0.1039E+03  0.7959E+02
     -2.120  0.1338E+03  0.8263E+02
     -2.097  0.1511E+03  0.8607E+02
     -2.074  0.1471E+03  0.8942E+02
     -2.051  0.1158E+03  0.9206E+02
     -2.029  0.1032E+03  0.9441E+02
     -2.006  0.1225E+03  0.9720E+02
     -1.983  0.1674E+03  0.1010E+03
     -1.960  0.2081E+03  0.1057E+03
     -1.938  0.1734E+03  0.1097E+03
     -1.915  0.8238E+02  0.1116E+03
     -1.892  0.2965E+02  0.1122E+03
     -1.869  0.5911E+02  0.1136E+03
     -1.847  0.1292E+03  0.1165E+03
     -1.824  0.1513E+03  0.1200E+03
     -1.801  0.1336E+03  0.1230E+03
     -1.778  0.1396E+03  0.1262E+03
     -1.755  0.1529E+03  0.1297E+03
     -1.733  0.1723E+03  0.1336E+03
     -1.710  0.1864E+03  0.1378E+03
     -1.687  0.1533E+03  0.1413E+03
     -1.664  0.1188E+03  0.1440E+03
     -1.642  0.1257E+03  0.1469E+03
     -1.619  0.1466E+03  0.1502E+03
     -1.596  0.1733E+03  0.1542E+03
     -1.573  0.1625E+03  0.1579E+03
     -1.551  0.1137E+03  0.1605E+03
     -1.528  0.8948E+02  0.1625E+03
     -1.505  0.1030E+03  0.1649E+03
     -1.482  0.1155E+03  0.1675E+03
     -1.460  0.9641E+02  0.1697E+03
     -1.437  0.1014E+03  0.1720E+03
     -1.414  0.1437E+03  0.1753E+03
     -1.391  0.1467E+03  0.1786E+03
     -1.368  0.1422E+03  0.1818E+03
     -1.346  0.1672E+03  0.1856E+03
     -1.323  0.1714E+03  0.1895E+03
     -1.300  0.1600E+03  0.1932E+03
     -1.277  0.1724E+03  0.1971E+03
     -1.255  0.2123E+03  0.2019E+03
     -1.232  0.2461E+03  0.2075E+03
     -1.209  0.2376E+03  0.2130E+03
     -1.186  0.1990E+03  0.2175E+03
     -1.164  0.1728E+03  0.2214E+03
     -1.141  0.1614E+03  0.2251E+03
     -1.118  0.1438E+03  0.2284E+03
     -1.095  0.1121E+03  0.2309E+03
     -1.072  0.8938E+02  0.2330E+03
     -1.050  0.1268E+03  0.2358E+03
     -1.027  0.1653E+03  0.2396E+03
     -1.004  0.1554E+03  0.2431E+03
     -0.981  0.1489E+03  0.2465E+03
     -0.959  0.1623E+03  0.2502E+03
     -0.936  0.1830E+03  0.2544E+03
     -0.913  0.2045E+03  0.2591E+03
     -0.890  0.1918E+03  0.2634E+03
     -0.868  0.1655E+03  0.2672E+03
     -0.845  0.1368E+03  0.2703E+03
     -0.822  0.1210E+03  0.2731E+03
     -0.799  0.1583E+03  0.2767E+03
     -0.777  0.1771E+03  0.2807E+03
     -0.754  0.1460E+03  0.2840E+03
     -0.731  0.1442E+03  0.2873E+03
     -0.708  0.1628E+03  0.2910E+03
     -0.685  0.1926E+03  0.2954E+03
     -0.663  0.2318E+03  0.3007E+03
     -0.640  0.2402E+03  0.3061E+03
     -0.617  0.2245E+03  0.3112E+03
     -0.594  0.2076E+03  0.3160E+03
     -0.572  0.2078E+03  0.3207E+03
     -0.549  0.2347E+03  0.3260E+03
     -0.526  0.2392E+03  0.3315E+03
     -0.503  0.2109E+03  0.3363E+03
     -0.481  0.1691E+03  0.3401E+03
     -0.458  0.1297E+03  0.3431E+03
     -0.435  0.1529E+03  0.3466E+03
     -0.412  0.1939E+03  0.3510E+03
     -0.389  0.1835E+03  0.3552E+03
     -0.367  0.1525E+03  0.3586E+03
     -0.344  0.1607E+03  0.3623E+03
     -0.321  0.1935E+03  0.3667E+03
     -0.298  0.2041E+03  0.3714E+03
     -0.276  0.1913E+03  0.3757E+03
     -0.253  0.1950E+03  0.3801E+03
     -0.230  0.1899E+03  0.3845E+03
     -0.207  0.1943E+03  0.3889E+03
     -0.185  0.2354E+03  0.3943E+03
     -0.162  0.2770E+03  0.4006E+03
     -0.139  0.2990E+03  0.4074E+03
     -0.116  0.2790E+03  0.4137E+03
     -0.094  0.2169E+03  0.4187E+03
     -0.071  0.1770E+03  0.4227E+03
     -0.048  0.1935E+03  0.4271E+03
     -0.025  0.2110E+03  0.4319E+03
     -0.002  0.2050E+03  0.4366E+03
      0.020  0.2047E+03  0.4412E+03
      0.043  0.2087E+03  0.4460E+03
      0.066  0.2061E+03  0.4507E+03
      0.089  0.1953E+03  0.4551E+03
      0.111  0.1824E+03  0.4593E+03
      0.134  0.1878E+03  0.4635E+03
      0.157  0.1948E+03  0.4680E+03
      0.180  0.1827E+03  0.4721E+03
      0.202  0.1864E+03  0.4764E+03
      0.225  0.2218E+03  0.4814E+03
      0.248  0.2570E+03  0.4873E+03
      0.271  0.2773E+03  0.4936E+03
      0.293  0.2934E+03  0.5003E+03
      0.316  0.3054E+03  0.5072E+03
      0.339  0.3035E+03  0.5141E+03
      0.362  0.3014E+03  0.5210E+03
      0.385  0.3046E+03  0.5279E+03
      0.407  0.2976E+03  0.5347E+03
      0.430  0.2966E+03  0.5415E+03
      0.453  0.2943E+03  0.5482E+03
      0.476  0.2758E+03  0.5544E+03
      0.498  0.2495E+03  0.5601E+03
      0.521  0.2356E+03  0.5655E+03
      0.544  0.2492E+03  0.5712E+03
      0.567  0.2755E+03  0.5774E+03
      0.589  0.2729E+03  0.5836E+03
      0.612  0.2240E+03  0.5887E+03
      0.635  0.1712E+03  0.5926E+03
      0.658  0.1787E+03  0.5967E+03
      0.681  0.2218E+03  0.6018E+03
      0.703  0.2378E+03  0.6072E+03
      0.726  0.2246E+03  0.6123E+03
      0.749  0.2130E+03  0.6171E+03
      0.772  0.2004E+03  0.6217E+03
      0.794  0.1859E+03  0.6259E+03
      0.817  0.1911E+03  0.6303E+03
      0.840  0.2064E+03  0.6350E+03
      0.863  0.2200E+03  0.6400E+03
      0.885  0.2368E+03  0.6454E+03
      0.908  0.2489E+03  0.6510E+03
      0.931  0.2491E+03  0.6567E+03
      0.954  0.2410E+03  0.6622E+03
      0.976  0.2437E+03  0.6678E+03
      0.999  0.2535E+03  0.6735E+03
      1.022  0.2499E+03  0.6792E+03
      1.045  0.2385E+03  0.6846E+03
      1.068  0.2302E+03  0.6899E+03
      1.090  0.2217E+03  0.6949E+03
      1.113  0.2269E+03  0.7001E+03
      1.136  0.2377E+03  0.7055E+03
      1.159  0.2349E+03  0.7109E+03
      1.181  0.2363E+03  0.7162E+03
      1.204  0.2487E+03  0.7219E+03
      1.227  0.2485E+03  0.7276E+03
      1.250  0.2216E+03  0.7326E+03
      1.272  0.1883E+03  0.7369E+03
      1.295  0.1753E+03  0.7409E+03
      1.318  0.1854E+03  0.7451E+03
      1.341  0.2059E+03  0.7498E+03
      1.364  0.2202E+03  0.7548E+03
      1.386  0.2243E+03  0.7599E+03
      1.409  0.2219E+03  0.7650E+03
      1.432  0.2218E+03  0.7700E+03
      1.455  0.2239E+03  0.7751E+03
      1.477  0.2259E+03  0.7802E+03
      1.500  0.2220E+03  0.7853E+03
      1.523  0.2190E+03  0.7903E+03
      1.546  0.2163E+03  0.7952E+03
      1.568  0.2201E+03  0.8002E+03
      1.591  0.2352E+03  0.8056E+03
      1.614  0.2360E+03  0.8110E+03
      1.637  0.2318E+03  0.8162E+03
      1.659  0.2413E+03  0.8217E+03
      1.682  0.2494E+03  0.8274E+03
      1.705  0.2352E+03  0.8328E+03
      1.728  0.2087E+03  0.8375E+03
      1.751  0.2041E+03  0.8422E+03
      1.773  0.2047E+03  0.8468E+03
      1.796  0.2067E+03  0.8515E+03
      1.819  0.2128E+03  0.8564E+03
      1.842  0.2047E+03  0.8610E+03
      1.864  0.1999E+03  0.8656E+03
      1.887  0.1974E+03  0.8701E+03
      1.910  0.1942E+03  0.8745E+03
      1.933  0.1935E+03  0.8789E+03
      1.955  0.1869E+03  0.8832E+03
      1.978  0.1761E+03  0.8872E+03
      2.001  0.1731E+03  0.8911E+03
      2.024  0.1747E+03  0.8951E+03
      2.047  0.1748E+03  0.8991E+03
      2.069  0.1651E+03  0.9028E+03
      2.092  0.1533E+03  0.9063E+03
      2.115  0.1523E+03  0.9098E+03
      2.138  0.1530E+03  0.9133E+03
      2.160  0.1512E+03  0.9167E+03
      2.183  0.1601E+03  0.9203E+03
      2.206  0.1667E+03  0.9241E+03
      2.229  0.1613E+03  0.9278E+03
      2.251  0.1512E+03  0.9313E+03
      2.274  0.1436E+03  0.9345E+03
      2.297  0.1374E+03  0.9377E+03
      2.320  0.1328E+03  0.9407E+03
      2.342  0.1347E+03  0.9437E+03
      2.365  0.1378E+03  0.9469E+03
      2.388  0.1428E+03  0.9501E+03
      2.411  0.1511E+03  0.9536E+03
      2.434  0.1546E+03  0.9571E+03
      2.456  0.1551E+03  0.9606E+03
      2.479  0.1511E+03  0.9641E+03
      2.502  0.1433E+03  0.9673E+03
      2.525  0.1312E+03  0.9703E+03
      2.547  0.1225E+03  0.9731E+03
      2.570  0.1266E+03  0.9760E+03
      2.593  0.1346E+03  0.9790E+03
      2.616  0.1431E+03  0.9823E+03
      2.638  0.1292E+03  0.9852E+03
      2.661  0.1045E+03  0.9876E+03
      2.684  0.9964E+02  0.9899E+03
      2.707  0.1140E+03  0.9925E+03
      2.729  0.1184E+03  0.9952E+03
      2.752  0.1061E+03  0.9976E+03
      2.775  0.1041E+03  0.1000E+04
      2.798  0.1010E+03  0.1002E+04
      2.821  0.7302E+02  0.1004E+04
      2.843  0.4716E+02  0.1005E+04
      2.866  0.3339E+02  0.1006E+04
      2.889  0.2603E+02  0.1006E+04
      2.912  0.3106E+02  0.1007E+04
      2.934  0.2697E+02  0.1008E+04
      2.957  0.1239E+02  0.1008E+04
      2.980  0.7275E+01  0.1008E+04
      3.003  0.1792E+02  0.1009E+04
      3.025  0.3049E+02  0.1009E+04
      3.048  0.2446E+02  0.1010E+04
      3.071  0.8463E+01  0.1010E+04
      3.094  0.1173E+01  0.1010E+04
      3.117  0.6149E-01  0.1010E+04
      3.139  0.1159E-02  0.1010E+04
      3.162  0.7549E-05  0.1010E+04
      3.185  0.1649E-07  0.1010E+04
      3.208  0.1184E-10  0.1010E+04
      3.230  0.2438E-14  0.1010E+04
      3.253  0.0000E+00  0.1010E+04
      3.276  0.0000E+00  0.1010E+04
      3.299  0.0000E+00  0.1010E+04
      3.321  0.0000E+00  0.1010E+04
      3.344  0.0000E+00  0.1010E+04
