 500 500   0   0
  0.2029568E+02  0.2165000E-08  0.2165000E-08  0.2165000E-08  0.5000000E-15
  1.000000000000000E-004
  CAR 
 Li                                      
      3.53714593     -3.44500362  301      0.39638872      1.00000000
     -3.445  0.0000E+00  0.0000E+00
     -3.422  0.0000E+00  0.0000E+00
     -3.398  0.0000E+00  0.0000E+00
     -3.375  0.0000E+00  0.0000E+00
     -3.352  0.0000E+00  0.0000E+00
     -3.329  0.0000E+00  0.0000E+00
     -3.305  0.0000E+00  0.0000E+00
     -3.282  0.1398E-10  0.3254E-12
     -3.259  0.2645E-07  0.6159E-09
     -3.236  0.1543E-04  0.3596E-06
     -3.212  0.2799E-02  0.6551E-04
     -3.189  0.1602E+00  0.3793E-02
     -3.166  0.2940E+01  0.7222E-01
     -3.142  0.1767E+02  0.4835E+00
     -3.119  0.3544E+02  0.1308E+01
     -3.096  0.2392E+02  0.1865E+01
     -3.073  0.5875E+01  0.2002E+01
     -3.049  0.8257E+01  0.2194E+01
     -3.026  0.4606E+02  0.3266E+01
     -3.003  0.9869E+02  0.5563E+01
     -2.980  0.7876E+02  0.7396E+01
     -2.956  0.2368E+02  0.7947E+01
     -2.933  0.8568E+01  0.8147E+01
     -2.910  0.3942E+02  0.9064E+01
     -2.886  0.9423E+02  0.1126E+02
     -2.863  0.8513E+02  0.1324E+02
     -2.840  0.2938E+02  0.1392E+02
     -2.817  0.1067E+02  0.1417E+02
     -2.793  0.4472E+02  0.1521E+02
     -2.770  0.1132E+03  0.1785E+02
     -2.747  0.1187E+03  0.2061E+02
     -2.724  0.5137E+02  0.2180E+02
     -2.700  0.1788E+02  0.2222E+02
     -2.677  0.5886E+02  0.2359E+02
     -2.654  0.1507E+03  0.2710E+02
     -2.630  0.1762E+03  0.3120E+02
     -2.607  0.9543E+02  0.3342E+02
     -2.584  0.2477E+02  0.3400E+02
     -2.561  0.2232E+02  0.3452E+02
     -2.537  0.7250E+02  0.3620E+02
     -2.514  0.9930E+02  0.3851E+02
     -2.491  0.5270E+02  0.3974E+02
     -2.468  0.1499E+02  0.4009E+02
     -2.444  0.3822E+02  0.4098E+02
     -2.421  0.1250E+03  0.4389E+02
     -2.398  0.1834E+03  0.4816E+02
     -2.374  0.1240E+03  0.5104E+02
     -2.351  0.4370E+02  0.5206E+02
     -2.328  0.5467E+02  0.5333E+02
     -2.305  0.1582E+03  0.5701E+02
     -2.281  0.2463E+03  0.6275E+02
     -2.258  0.2056E+03  0.6753E+02
     -2.235  0.8831E+02  0.6959E+02
     -2.211  0.2468E+02  0.7016E+02
     -2.188  0.4488E+02  0.7120E+02
     -2.165  0.9469E+02  0.7341E+02
     -2.142  0.8096E+02  0.7529E+02
     -2.118  0.2892E+02  0.7596E+02
     -2.095  0.2594E+02  0.7657E+02
     -2.072  0.1011E+03  0.7892E+02
     -2.049  0.1955E+03  0.8347E+02
     -2.025  0.1811E+03  0.8769E+02
     -2.002  0.8360E+02  0.8963E+02
     -1.979  0.3944E+02  0.9055E+02
     -1.955  0.1080E+03  0.9306E+02
     -1.932  0.2234E+03  0.9826E+02
     -1.909  0.2392E+03  0.1038E+03
     -1.886  0.1365E+03  0.1070E+03
     -1.862  0.4330E+02  0.1080E+03
     -1.839  0.4398E+02  0.1090E+03
     -1.816  0.1244E+03  0.1119E+03
     -1.793  0.1798E+03  0.1161E+03
     -1.769  0.1253E+03  0.1190E+03
     -1.746  0.5691E+02  0.1204E+03
     -1.723  0.9498E+02  0.1226E+03
     -1.699  0.2013E+03  0.1273E+03
     -1.676  0.2386E+03  0.1328E+03
     -1.653  0.1602E+03  0.1365E+03
     -1.630  0.6253E+02  0.1380E+03
     -1.606  0.6352E+02  0.1395E+03
     -1.583  0.1692E+03  0.1434E+03
     -1.560  0.2497E+03  0.1492E+03
     -1.537  0.1950E+03  0.1538E+03
     -1.513  0.8329E+02  0.1557E+03
     -1.490  0.4642E+02  0.1568E+03
     -1.467  0.1073E+03  0.1593E+03
     -1.443  0.1722E+03  0.1633E+03
     -1.420  0.1408E+03  0.1666E+03
     -1.397  0.6355E+02  0.1680E+03
     -1.374  0.5830E+02  0.1694E+03
     -1.350  0.1127E+03  0.1720E+03
     -1.327  0.1452E+03  0.1754E+03
     -1.304  0.1234E+03  0.1783E+03
     -1.281  0.7138E+02  0.1799E+03
     -1.257  0.8593E+02  0.1819E+03
     -1.234  0.2118E+03  0.1869E+03
     -1.211  0.3370E+03  0.1947E+03
     -1.187  0.3405E+03  0.2026E+03
     -1.164  0.2233E+03  0.2078E+03
     -1.141  0.1080E+03  0.2103E+03
     -1.118  0.1270E+03  0.2133E+03
     -1.094  0.2241E+03  0.2185E+03
     -1.071  0.2319E+03  0.2239E+03
     -1.048  0.1373E+03  0.2271E+03
     -1.025  0.6481E+02  0.2286E+03
     -1.001  0.6837E+02  0.2302E+03
     -0.978  0.1275E+03  0.2332E+03
     -0.955  0.1879E+03  0.2375E+03
     -0.931  0.1605E+03  0.2413E+03
     -0.908  0.1439E+03  0.2446E+03
     -0.885  0.2111E+03  0.2495E+03
     -0.862  0.2569E+03  0.2555E+03
     -0.838  0.2382E+03  0.2611E+03
     -0.815  0.1522E+03  0.2646E+03
     -0.792  0.5450E+02  0.2659E+03
     -0.769  0.2967E+02  0.2666E+03
     -0.745  0.7005E+02  0.2682E+03
     -0.722  0.9409E+02  0.2704E+03
     -0.699  0.6462E+02  0.2719E+03
     -0.675  0.7389E+02  0.2736E+03
     -0.652  0.1805E+03  0.2778E+03
     -0.629  0.2952E+03  0.2847E+03
     -0.606  0.3212E+03  0.2922E+03
     -0.582  0.2970E+03  0.2991E+03
     -0.559  0.2495E+03  0.3049E+03
     -0.536  0.1911E+03  0.3093E+03
     -0.513  0.2070E+03  0.3141E+03
     -0.489  0.2795E+03  0.3206E+03
     -0.466  0.2866E+03  0.3273E+03
     -0.443  0.2202E+03  0.3324E+03
     -0.419  0.1471E+03  0.3359E+03
     -0.396  0.9346E+02  0.3380E+03
     -0.373  0.1022E+03  0.3404E+03
     -0.350  0.1421E+03  0.3437E+03
     -0.326  0.1661E+03  0.3476E+03
     -0.303  0.1899E+03  0.3520E+03
     -0.280  0.1799E+03  0.3562E+03
     -0.256  0.1749E+03  0.3603E+03
     -0.233  0.1732E+03  0.3643E+03
     -0.210  0.1417E+03  0.3676E+03
     -0.187  0.1569E+03  0.3712E+03
     -0.163  0.2456E+03  0.3770E+03
     -0.140  0.3101E+03  0.3842E+03
     -0.117  0.3021E+03  0.3912E+03
     -0.094  0.2321E+03  0.3966E+03
     -0.070  0.1903E+03  0.4010E+03
     -0.047  0.2187E+03  0.4061E+03
     -0.024  0.2203E+03  0.4113E+03
     -0.000  0.1479E+03  0.4147E+03
      0.023  0.7933E+02  0.4165E+03
      0.046  0.1154E+03  0.4192E+03
      0.069  0.2097E+03  0.4241E+03
      0.093  0.2710E+03  0.4304E+03
      0.116  0.2867E+03  0.4371E+03
      0.139  0.2537E+03  0.4430E+03
      0.162  0.2003E+03  0.4477E+03
      0.186  0.1998E+03  0.4523E+03
      0.209  0.2243E+03  0.4575E+03
      0.232  0.2076E+03  0.4624E+03
      0.256  0.1862E+03  0.4667E+03
      0.279  0.2040E+03  0.4714E+03
      0.302  0.2322E+03  0.4768E+03
      0.325  0.2401E+03  0.4824E+03
      0.349  0.2517E+03  0.4883E+03
      0.372  0.2527E+03  0.4942E+03
      0.395  0.2385E+03  0.4997E+03
      0.418  0.2237E+03  0.5049E+03
      0.442  0.2400E+03  0.5105E+03
      0.465  0.2427E+03  0.5162E+03
      0.488  0.2185E+03  0.5213E+03
      0.512  0.2211E+03  0.5264E+03
      0.535  0.2698E+03  0.5327E+03
      0.558  0.3206E+03  0.5401E+03
      0.581  0.3550E+03  0.5484E+03
      0.605  0.3698E+03  0.5570E+03
      0.628  0.3516E+03  0.5652E+03
      0.651  0.3185E+03  0.5726E+03
      0.674  0.2950E+03  0.5795E+03
      0.698  0.2846E+03  0.5861E+03
      0.721  0.2868E+03  0.5928E+03
      0.744  0.2796E+03  0.5993E+03
      0.768  0.2605E+03  0.6053E+03
      0.791  0.2232E+03  0.6105E+03
      0.814  0.1551E+03  0.6141E+03
      0.837  0.8044E+02  0.6160E+03
      0.861  0.7350E+02  0.6177E+03
      0.884  0.1206E+03  0.6205E+03
      0.907  0.1469E+03  0.6240E+03
      0.930  0.1597E+03  0.6277E+03
      0.954  0.1740E+03  0.6317E+03
      0.977  0.1851E+03  0.6360E+03
      1.000  0.2074E+03  0.6409E+03
      1.024  0.2347E+03  0.6463E+03
      1.047  0.2493E+03  0.6521E+03
      1.070  0.2481E+03  0.6579E+03
      1.093  0.2500E+03  0.6637E+03
      1.117  0.2693E+03  0.6700E+03
      1.140  0.2846E+03  0.6766E+03
      1.163  0.2885E+03  0.6833E+03
      1.186  0.2929E+03  0.6901E+03
      1.210  0.2888E+03  0.6969E+03
      1.233  0.2614E+03  0.7029E+03
      1.256  0.2320E+03  0.7083E+03
      1.280  0.2131E+03  0.7133E+03
      1.303  0.1871E+03  0.7177E+03
      1.326  0.1733E+03  0.7217E+03
      1.349  0.1913E+03  0.7261E+03
      1.373  0.2109E+03  0.7310E+03
      1.396  0.2336E+03  0.7365E+03
      1.419  0.2486E+03  0.7423E+03
      1.443  0.2406E+03  0.7479E+03
      1.466  0.2292E+03  0.7532E+03
      1.489  0.2125E+03  0.7582E+03
      1.512  0.1773E+03  0.7623E+03
      1.536  0.1586E+03  0.7660E+03
      1.559  0.1467E+03  0.7694E+03
      1.582  0.1293E+03  0.7724E+03
      1.605  0.1386E+03  0.7756E+03
      1.629  0.1588E+03  0.7793E+03
      1.652  0.1626E+03  0.7831E+03
      1.675  0.1441E+03  0.7865E+03
      1.699  0.1155E+03  0.7891E+03
      1.722  0.9858E+02  0.7914E+03
      1.745  0.1125E+03  0.7941E+03
      1.768  0.1527E+03  0.7976E+03
      1.792  0.1974E+03  0.8022E+03
      1.815  0.2197E+03  0.8073E+03
      1.838  0.2342E+03  0.8128E+03
      1.861  0.2532E+03  0.8187E+03
      1.885  0.2592E+03  0.8247E+03
      1.908  0.2594E+03  0.8307E+03
      1.931  0.2608E+03  0.8368E+03
      1.955  0.2542E+03  0.8427E+03
      1.978  0.2380E+03  0.8483E+03
      2.001  0.2130E+03  0.8532E+03
      2.024  0.1977E+03  0.8578E+03
      2.048  0.1798E+03  0.8620E+03
      2.071  0.1573E+03  0.8657E+03
      2.094  0.1507E+03  0.8692E+03
      2.117  0.1504E+03  0.8727E+03
      2.141  0.1368E+03  0.8758E+03
      2.164  0.1133E+03  0.8785E+03
      2.187  0.1144E+03  0.8811E+03
      2.211  0.1427E+03  0.8845E+03
      2.234  0.1658E+03  0.8883E+03
      2.257  0.1693E+03  0.8923E+03
      2.280  0.1652E+03  0.8961E+03
      2.304  0.1557E+03  0.8997E+03
      2.327  0.1440E+03  0.9031E+03
      2.350  0.1468E+03  0.9065E+03
      2.373  0.1547E+03  0.9101E+03
      2.397  0.1451E+03  0.9135E+03
      2.420  0.1268E+03  0.9164E+03
      2.443  0.1162E+03  0.9191E+03
      2.467  0.1312E+03  0.9222E+03
      2.490  0.1617E+03  0.9259E+03
      2.513  0.1703E+03  0.9299E+03
      2.536  0.1601E+03  0.9336E+03
      2.560  0.1501E+03  0.9371E+03
      2.583  0.1350E+03  0.9403E+03
      2.606  0.1159E+03  0.9430E+03
      2.629  0.8766E+02  0.9450E+03
      2.653  0.6351E+02  0.9465E+03
      2.676  0.8038E+02  0.9484E+03
      2.699  0.1158E+03  0.9511E+03
      2.723  0.1305E+03  0.9541E+03
      2.746  0.1385E+03  0.9573E+03
      2.769  0.1659E+03  0.9612E+03
      2.792  0.1787E+03  0.9653E+03
      2.816  0.1744E+03  0.9694E+03
      2.839  0.1710E+03  0.9734E+03
      2.862  0.1737E+03  0.9774E+03
      2.885  0.1614E+03  0.9812E+03
      2.909  0.1297E+03  0.9842E+03
      2.932  0.9262E+02  0.9863E+03
      2.955  0.5143E+02  0.9875E+03
      2.979  0.1690E+02  0.9879E+03
      3.002  0.2592E+01  0.9880E+03
      3.025  0.3969E+00  0.9880E+03
      3.048  0.2978E+01  0.9881E+03
      3.072  0.1350E+02  0.9884E+03
      3.095  0.3005E+02  0.9891E+03
      3.118  0.5576E+02  0.9904E+03
      3.141  0.8653E+02  0.9924E+03
      3.165  0.1065E+03  0.9949E+03
      3.188  0.1167E+03  0.9976E+03
      3.211  0.1048E+03  0.1000E+04
      3.235  0.6276E+02  0.1001E+04
      3.258  0.1914E+02  0.1002E+04
      3.281  0.2405E+01  0.1002E+04
      3.304  0.1094E+00  0.1002E+04
      3.328  0.1674E-02  0.1002E+04
      3.351  0.8294E-05  0.1002E+04
      3.374  0.1299E-07  0.1002E+04
      3.398  0.6349E-11  0.1002E+04
      3.421  0.0000E+00  0.1002E+04
      3.444  0.0000E+00  0.1002E+04
      3.467  0.0000E+00  0.1002E+04
      3.491  0.0000E+00  0.1002E+04
      3.514  0.0000E+00  0.1002E+04
      3.537  0.0000E+00  0.1002E+04
