 running on   64 total cores
 distrk:  each k-point on   32 cores,    2 groups
 distr:  one band on   32 cores,    1 groups
 vasp.6.2.1 16May21 (build Nov 23 2021 15:40:41) complex                        
  
 POSCAR found type information on POSCAR Li
 POSCAR found :  1 types and     500 ions
 scaLAPACK will be used
 -----------------------------------------------------------------------------
|                                                                             |
|           W    W    AA    RRRRR   N    N  II  N    N   GGGG   !!!           |
|           W    W   A  A   R    R  NN   N  II  NN   N  G    G  !!!           |
|           W    W  A    A  R    R  N N  N  II  N N  N  G       !!!           |
|           W WW W  AAAAAA  RRRRR   N  N N  II  N  N N  G  GGG   !            |
|           WW  WW  A    A  R   R   N   NN  II  N   NN  G    G                |
|           W    W  A    A  R    R  N    N  II  N    N   GGGG   !!!           |
|                                                                             |
|     For optimal performance we recommend to set                             |
|       NCORE = 2 up to number-of-cores-per-socket                            |
|     NCORE specifies how many cores store one orbital (NPAR=cpu/NCORE).      |
|     This setting can greatly improve the performance of VASP for DFT.       |
|     The default, NCORE=1 might be grossly inefficient on modern             |
|     multi-core architectures or massively parallel machines. Do your        |
|     own testing! More info at https://www.vasp.at/wiki/index.php/NCORE      |
|     Unfortunately you need to use the default for GW and RPA                |
|     calculations (for HF NCORE is supported but not extensively tested      |
|     yet).                                                                   |
|                                                                             |
 -----------------------------------------------------------------------------

 -----------------------------------------------------------------------------
|                                                                             |
|               ----> ADVICE to this user running VASP <----                  |
|                                                                             |
|     You have a (more or less) 'large supercell' and for larger cells it     |
|     might be more efficient to use real-space projection operators.         |
|     Therefore, try LREAL= Auto in the INCAR file.                           |
|     Mind: If you want to do very accurate calculations, keep the            |
|     reciprocal projection scheme (i.e. LREAL=.FALSE.).                      |
|                                                                             |
 -----------------------------------------------------------------------------

 LDA part: xc-table for Pade appr. of Perdew
 POSCAR found type information on POSCAR Li
 POSCAR found :  1 types and     500 ions
 POSCAR, INCAR and KPOINTS ok, starting setup
 FFT: planning ...
 WAVECAR not read
 entering main loop
       N       E                     dE             d eps       ncg     rms          rms(c)
DAV:   1    -0.302773795506E+03   -0.30277E+03   -0.12125E+05  4008   0.656E+02
DAV:   2    -0.892129152900E+03   -0.58936E+03   -0.54059E+03  4604   0.671E+01
DAV:   3    -0.933593060375E+03   -0.41464E+02   -0.37735E+02  5176   0.140E+01
DAV:   4    -0.934985168051E+03   -0.13921E+01   -0.13707E+01  4624   0.280E+00
DAV:   5    -0.935016518790E+03   -0.31351E-01   -0.31301E-01  4808   0.449E-01    0.741E+00
DAV:   6    -0.935082423258E+03   -0.65904E-01   -0.70488E+00  4608   0.380E+00    0.691E+00
DAV:   7    -0.928667407535E+03    0.64150E+01   -0.63511E+00  4688   0.359E+00    0.386E+00
DAV:   8    -0.927304390346E+03    0.13630E+01   -0.31843E+00  4552   0.177E+00    0.223E+00
DAV:   9    -0.926891312882E+03    0.41308E+00   -0.17214E+00  4304   0.105E+00    0.110E+00
DAV:  10    -0.926981886991E+03   -0.90574E-01   -0.34257E-01  4792   0.629E-01    0.108E+00
DAV:  11    -0.926844601385E+03    0.13729E+00   -0.19241E-01  4640   0.483E-01    0.484E-01
DAV:  12    -0.926838309587E+03    0.62918E-02   -0.46778E-02  4360   0.186E-01    0.249E-01
DAV:  13    -0.926838852234E+03   -0.54265E-03   -0.14157E-02  4584   0.127E-01    0.186E-01
DAV:  14    -0.926836248317E+03    0.26039E-02   -0.55716E-03  4544   0.907E-02    0.112E-01
DAV:  15    -0.926835080092E+03    0.11682E-02   -0.14864E-03  4496   0.457E-02    0.483E-02
DAV:  16    -0.926835080052E+03    0.39749E-07   -0.75069E-04  4520   0.258E-02    0.320E-02
DAV:  17    -0.926834959659E+03    0.12039E-03   -0.27560E-04  4504   0.181E-02    0.153E-02
DAV:  18    -0.926834937187E+03    0.22472E-04   -0.55069E-05  4440   0.751E-03    0.876E-03
DAV:  19    -0.926834927439E+03    0.97482E-05   -0.17737E-05  2952   0.473E-03
   1 F= -.92683493E+03 E0= -.92678398E+03  d E =-.101895E+00
