Li                                      
           1
    21.650000    0.000000    0.000000
     0.000000   21.650000    0.000000
    -0.000000   -0.000000   21.650000
   Li
   500
Direct configuration=     1
   0.01491313  0.98670157  0.00211942
   0.00577162  0.09525633  0.09221363
   0.99643796  0.20781505  0.17856949
   0.00142179  0.28887468  0.31227778
   0.98941960  0.41300470  0.39502153
   0.99499174  0.50260857  0.49580619
   0.00592736  0.58975671  0.60037568
   0.01241078  0.70043321  0.70270772
   0.00898391  0.79055924  0.79910346
   0.00840058  0.88467262  0.90353885
   0.10152222  0.99117283  0.08980529
   0.09726272  0.10807198  0.18465154
   0.09268061  0.19790017  0.29900887
   0.09988959  0.31215220  0.40107518
   0.11484019  0.40033240  0.49511806
   0.10392475  0.49882962  0.59253745
   0.11724575  0.59552556  0.69920852
   0.11159332  0.70081311  0.79837894
   0.10728617  0.79145075  0.87800042
   0.10514781  0.88412957  0.00105393
   0.19712200  0.99553126  0.19396041
   0.20116959  0.10415530  0.29307301
   0.18921136  0.17842180  0.39451151
   0.20434592  0.29769951  0.49364498
   0.21805173  0.38513430  0.60140655
   0.20887915  0.48984230  0.68381409
   0.21098111  0.58635975  0.79500366
   0.19914549  0.68831338  0.89753041
   0.21062951  0.80219719  0.99911445
   0.19169053  0.88519679  0.09127448
   0.28872169  0.99796774  0.28452233
   0.29093984  0.09186493  0.40364858
   0.31018946  0.19659132  0.48246259
   0.31126669  0.29644158  0.59317986
   0.32268648  0.39991229  0.70366757
   0.31184089  0.49735001  0.79501453
   0.30823536  0.59980404  0.90167975
   0.29265712  0.69392636  0.01889857
   0.29512595  0.80716273  0.10189449
   0.30294807  0.91303180  0.20537447
   0.39226325  0.99600501  0.40885619
   0.39871871  0.09482446  0.48875862
   0.41237864  0.18690373  0.59826156
   0.41107487  0.27998628  0.69740946
   0.39825863  0.38816276  0.79677411
   0.40219084  0.51250874  0.90058727
   0.39788257  0.60406120  0.00219248
   0.38445382  0.70140905  0.09988920
   0.40173381  0.79987943  0.20100500
   0.40074993  0.88747926  0.30215385
   0.50088662  0.00509930  0.49440704
   0.51644897  0.10133192  0.59255152
   0.51197565  0.19065312  0.70913669
   0.50215168  0.30121223  0.80248223
   0.49714207  0.40310596  0.89779230
   0.50026640  0.49498376  0.00216317
   0.49964376  0.61292939  0.10858699
   0.50862262  0.70494306  0.19778543
   0.50958750  0.80553505  0.31420787
   0.50289628  0.90699914  0.41560103
   0.60030098  0.00467799  0.59953658
   0.59270447  0.08693675  0.70340943
   0.61095289  0.19517440  0.81352417
   0.59772793  0.27517224  0.91880282
   0.59272082  0.40868037  0.00151794
   0.59267129  0.49572030  0.10297764
   0.60894576  0.57897276  0.21118703
   0.59500192  0.69626464  0.29402435
   0.59202640  0.79667980  0.40529805
   0.60341761  0.90689630  0.50447452
   0.71606345  0.00134197  0.68947832
   0.69368792  0.09603940  0.79950101
   0.69798752  0.18150226  0.89514241
   0.69561188  0.29514058  0.01815262
   0.71185124  0.40718547  0.10738479
   0.70180001  0.48485285  0.19976662
   0.70611707  0.59707481  0.29854278
   0.70166329  0.69547638  0.40779347
   0.68173909  0.80290666  0.49908535
   0.71287570  0.89704489  0.61799741
   0.81196695  0.99877466  0.81424105
   0.80814726  0.09081261  0.89346950
   0.81150168  0.20191634  0.98285607
   0.80875603  0.30329588  0.10910952
   0.79988952  0.41725261  0.19581997
   0.80006583  0.49792240  0.30278117
   0.78543105  0.59873383  0.40780339
   0.79886336  0.70404651  0.49983243
   0.79802838  0.79922822  0.58801009
   0.81832887  0.90432540  0.69230413
   0.91248609  0.99530225  0.90619818
   0.91072014  0.09192853  0.99087146
   0.89488055  0.21087683  0.09013044
   0.90104632  0.31149929  0.19057849
   0.90060617  0.40331187  0.31532342
   0.88919704  0.51722095  0.40506450
   0.89322820  0.59610965  0.51353447
   0.89782681  0.68987562  0.60768877
   0.91191414  0.79103993  0.68084325
   0.90267365  0.87805822  0.79880457
   0.10487989  0.09133659  0.99859195
   0.09612494  0.20398608  0.09859616
   0.08931226  0.29998117  0.19808418
   0.08426475  0.39523714  0.29813150
   0.10718408  0.51673523  0.39799625
   0.10905016  0.57764747  0.48761121
   0.11221371  0.68014924  0.58624466
   0.11006769  0.79826663  0.68857517
   0.10252444  0.88364544  0.78658471
   0.11593463  0.97989049  0.90302127
   0.17985712  0.11878278  0.09483670
   0.18422300  0.20178337  0.20395656
   0.19682688  0.30597948  0.29720937
   0.20955996  0.40543216  0.39225450
   0.21969307  0.49001119  0.50265109
   0.22607118  0.58806730  0.60856369
   0.20199466  0.69484138  0.68173672
   0.21852418  0.81045600  0.78987557
   0.20891011  0.89616452  0.90706517
   0.20323403  0.00094112  0.00048154
   0.29166492  0.09161857  0.18179121
   0.29668357  0.18592895  0.31266037
   0.29543687  0.28628298  0.40884388
   0.31601751  0.38019506  0.48676287
   0.31773260  0.49187389  0.60368442
   0.31411999  0.58064325  0.70502813
   0.30140670  0.70024737  0.79525841
   0.30855984  0.79266758  0.90859775
   0.29712446  0.90301620  0.98836547
   0.27575338  0.00795433  0.09454121
   0.38397562  0.10222418  0.30021404
   0.41729258  0.20162281  0.39992759
   0.41248419  0.27506273  0.49160101
   0.40437081  0.39087687  0.59803928
   0.42713298  0.48654002  0.70860394
   0.40964508  0.62627720  0.79362363
   0.41111853  0.70021286  0.90315051
   0.39452259  0.80266322  0.00781251
   0.40093464  0.90405661  0.10430443
   0.39755348  0.00831928  0.20950045
   0.50104623  0.09551160  0.39836270
   0.51953963  0.18339381  0.49908137
   0.50688367  0.29118439  0.61633537
   0.51207529  0.38470162  0.71270372
   0.50539579  0.49617880  0.79141229
   0.50291509  0.60136268  0.91485848
   0.48406981  0.70080499  0.01283648
   0.49017533  0.80993550  0.10408049
   0.49982013  0.90948946  0.19960418
   0.49961838  0.99441382  0.30576344
   0.60649935  0.09928904  0.49039857
   0.61602903  0.19107187  0.59952507
   0.60531498  0.29560466  0.70136329
   0.60566794  0.39381107  0.79496349
   0.60626475  0.50288136  0.87802834
   0.59187524  0.59861534  0.98954548
   0.58665391  0.70473564  0.09720959
   0.60943300  0.82088524  0.20277704
   0.60251942  0.91565354  0.29974227
   0.61172785  0.00236276  0.40325096
   0.70569962  0.10690588  0.59193892
   0.69248260  0.20746986  0.71145511
   0.69248671  0.29396661  0.80174915
   0.68633883  0.39699062  0.90505317
   0.69535895  0.50453420  0.01019280
   0.68482580  0.60848575  0.09344034
   0.67946744  0.72004119  0.19549802
   0.68874365  0.80822936  0.30879027
   0.69015885  0.89796483  0.38670106
   0.69924611  0.99901564  0.50916243
   0.79467021  0.10864811  0.70698061
   0.80274905  0.19971539  0.80846053
   0.79753047  0.29866578  0.89485928
   0.78364951  0.40467011  0.99729528
   0.80029455  0.52132822  0.10607744
   0.79038012  0.60016702  0.20345633
   0.79532766  0.70409091  0.29152083
   0.80144640  0.80512019  0.41988209
   0.80523632  0.88667653  0.49607320
   0.81186094  0.99677812  0.59683659
   0.89824085  0.11126278  0.79719451
   0.91129271  0.19732647  0.90356428
   0.90232864  0.30923781  0.99338894
   0.88389153  0.41606746  0.08633341
   0.88885092  0.50326449  0.20633961
   0.88686410  0.60672411  0.30127573
   0.89586438  0.69564828  0.41765593
   0.90476338  0.79278122  0.50653420
   0.90992881  0.90103132  0.59170662
   0.89678773  0.99308683  0.69289142
   0.01386443  0.09947779  0.88785419
   0.00369408  0.18089772  0.00092851
   0.99802089  0.30728736  0.09591941
   0.99417804  0.40439194  0.20174002
   0.99145241  0.51679186  0.31187650
   0.98579745  0.60660046  0.41468994
   0.00709880  0.69096627  0.50490797
   0.00339184  0.77941394  0.60458281
   0.99757629  0.89066035  0.69712581
   0.00208377  0.97949027  0.79772248
   0.18708432  0.20597536  0.98632001
   0.20195659  0.29386407  0.09344224
   0.19647391  0.38819613  0.17874947
   0.20286615  0.50072810  0.27747016
   0.23273032  0.60647367  0.39339740
   0.21716002  0.69118970  0.50165890
   0.18594138  0.79663420  0.59779488
   0.20994450  0.90809174  0.68999113
   0.19550287  0.99130423  0.78611558
   0.20819891  0.10003747  0.89869509
   0.30464725  0.18935123  0.09364954
   0.30242443  0.28935315  0.19597481
   0.30526701  0.40029789  0.29362011
   0.30601770  0.49335491  0.39133003
   0.31740097  0.60996478  0.50247880
   0.30409078  0.70045470  0.59127479
   0.28551878  0.81563399  0.69534632
   0.29455832  0.90234673  0.80451365
   0.30215897  0.99675713  0.88756656
   0.29789917  0.10881066  0.00172212
   0.39809571  0.18097055  0.20890497
   0.40087480  0.28471105  0.29526942
   0.41014125  0.38998872  0.38525602
   0.38453888  0.49325050  0.50045442
   0.40693142  0.60512030  0.61341130
   0.41434285  0.71857422  0.69499962
   0.39624449  0.79757892  0.79276371
   0.39219840  0.90591047  0.89831830
   0.39170209  0.00044689  0.99584877
   0.39522492  0.08660034  0.11462437
   0.50231608  0.20057203  0.28281187
   0.50852796  0.29149830  0.40561336
   0.50681790  0.38810463  0.50150157
   0.50382644  0.49027041  0.60448422
   0.50315259  0.60304562  0.69603626
   0.50358503  0.70209875  0.79343490
   0.49389908  0.80449320  0.89233231
   0.47997539  0.91434650  0.00306778
   0.49750049  0.00963917  0.09377377
   0.50367826  0.09562064  0.20811756
   0.59843563  0.20711284  0.37828659
   0.59411368  0.28690846  0.48685662
   0.60017283  0.38641609  0.60308501
   0.59290288  0.49957614  0.70096656
   0.59574197  0.60524748  0.79134296
   0.58322754  0.71336437  0.88242827
   0.58552639  0.79804439  0.98222985
   0.59502869  0.90294095  0.09224347
   0.59030045  0.00149187  0.20099995
   0.60509478  0.10101773  0.29644818
   0.70210345  0.20928571  0.49841662
   0.69965752  0.29479228  0.60544424
   0.69249135  0.39782768  0.71281384
   0.69786192  0.51863185  0.80895492
   0.68676699  0.61024846  0.89054495
   0.67086226  0.70124717  0.99838928
   0.68120836  0.80340304  0.09335860
   0.70498019  0.91213679  0.20359662
   0.71155176  0.01080835  0.29772867
   0.72165524  0.10591898  0.38631896
   0.79706258  0.20534718  0.61194591
   0.78247408  0.30910808  0.71460927
   0.78212074  0.40716938  0.82806567
   0.78701762  0.50776356  0.91666872
   0.77978665  0.61755568  0.99226204
   0.79236611  0.69983436  0.10739947
   0.80143377  0.80823753  0.19586129
   0.80568031  0.89890432  0.29472567
   0.79292088  0.99172543  0.39947851
   0.78782120  0.09298212  0.49783906
   0.89946595  0.20613138  0.70472711
   0.90781877  0.28869857  0.79688925
   0.88974615  0.39727414  0.90346814
   0.89052811  0.52530848  0.99193737
   0.90217465  0.60949621  0.11053255
   0.89806524  0.69714692  0.19802197
   0.89589618  0.79862084  0.30995725
   0.91195478  0.89556129  0.40225022
   0.89665501  0.00471243  0.48678815
   0.88839276  0.10866321  0.60055559
   0.00482729  0.20095539  0.77640053
   0.99279652  0.29450616  0.91305061
   0.98681432  0.42006345  0.99924131
   0.01108775  0.49549353  0.11397162
   0.00215841  0.59376892  0.20117953
   0.99121216  0.67726080  0.29545961
   0.02001809  0.78533034  0.40396998
   0.00556942  0.89337385  0.50423985
   0.00725343  0.00127177  0.59326581
   0.99971201  0.10014672  0.70226489
   0.10241806  0.18625012  0.89238703
   0.07382724  0.29473695  0.00284546
   0.09531218  0.40252504  0.09970258
   0.11177933  0.49835558  0.21243349
   0.10999781  0.60027747  0.30703221
   0.11441525  0.67851987  0.40037804
   0.10321094  0.78810923  0.49394358
   0.08836336  0.88913485  0.59243291
   0.08744832  0.98757274  0.69630671
   0.10331079  0.09703683  0.79178694
   0.30153912  0.28974156  0.01130951
   0.30331579  0.39657186  0.09484616
   0.29685621  0.48473698  0.20222459
   0.29311830  0.61069617  0.30353953
   0.30573250  0.71694726  0.40718519
   0.29629587  0.82071869  0.50563068
   0.28167493  0.91132811  0.60595047
   0.30999219  0.00698940  0.71016236
   0.28441245  0.10628405  0.79239354
   0.30615129  0.20359792  0.90002358
   0.39971605  0.29959020  0.10345965
   0.39210347  0.39802020  0.19444233
   0.40013131  0.49957122  0.30551497
   0.40994539  0.60647251  0.38987218
   0.40228755  0.70652030  0.49649563
   0.40232532  0.81374802  0.59077102
   0.40915637  0.91447040  0.69827939
   0.40703088  0.99391925  0.80582462
   0.40117042  0.10787463  0.89972966
   0.40524924  0.19806389  0.01180444
   0.49763671  0.29870607  0.19459112
   0.50705093  0.40233468  0.30224789
   0.50355483  0.50334689  0.40345464
   0.48131883  0.59000250  0.51616859
   0.50800962  0.70540885  0.60713430
   0.50807345  0.81247876  0.70033956
   0.47704947  0.88475511  0.81581417
   0.49409523  0.00541491  0.91061212
   0.48529917  0.09974002  0.01821358
   0.50168977  0.19434855  0.10446580
   0.59515675  0.31017865  0.30291330
   0.59765265  0.40283618  0.40152865
   0.58778442  0.50183970  0.50657409
   0.59852929  0.59827285  0.59694735
   0.60030332  0.69780514  0.69225165
   0.59815366  0.81261136  0.79734836
   0.58872764  0.91419433  0.90540972
   0.59481743  0.00807350  0.00128207
   0.61034171  0.09723656  0.10233892
   0.60270698  0.20432284  0.19574255
   0.71218598  0.30078403  0.38892578
   0.68950638  0.39290520  0.49829415
   0.70026278  0.49068376  0.60653533
   0.68553886  0.58622337  0.69364748
   0.68926748  0.70696289  0.80727252
   0.68854936  0.78802464  0.89689002
   0.69602773  0.89534994  0.98748381
   0.69415056  0.99961127  0.10905365
   0.71505541  0.09302071  0.19456268
   0.71213371  0.19465962  0.28403674
   0.79076186  0.28918064  0.50669308
   0.79124592  0.39645382  0.59520341
   0.79221219  0.48811901  0.69373864
   0.80070360  0.60147609  0.80169019
   0.78761062  0.69285656  0.89217641
   0.80097140  0.79355814  0.00623724
   0.79709159  0.89809343  0.09884160
   0.80796856  0.01286348  0.22057687
   0.81901723  0.11137339  0.29263577
   0.80586797  0.20264533  0.40472325
   0.88139764  0.30472844  0.59991454
   0.89172196  0.39472828  0.70754424
   0.89540738  0.49081552  0.81698887
   0.90172339  0.60878365  0.90082902
   0.90368154  0.69104003  0.99652447
   0.91551222  0.79895394  0.09568717
   0.89581430  0.90939260  0.20406010
   0.91011863  0.00299223  0.29787849
   0.89269935  0.10263136  0.40752219
   0.89659081  0.21082799  0.50004485
   0.98565995  0.30539088  0.71474388
   0.00744342  0.40111291  0.81512646
   0.00445265  0.50465214  0.90352906
   0.01198531  0.58640771  0.99511299
   0.00259969  0.69549489  0.09880705
   0.99065187  0.80314796  0.21361794
   0.99831059  0.90673180  0.30511476
   0.98738156  0.02373398  0.41661481
   0.99082205  0.10508544  0.50347476
   0.99345364  0.20381395  0.60865819
   0.09266329  0.31297053  0.79022999
   0.10427333  0.39317365  0.91197017
   0.10878281  0.51303507  0.00661542
   0.10615138  0.61452780  0.09707797
   0.09213260  0.69460160  0.21169896
   0.09992425  0.79069861  0.31016749
   0.07719651  0.92035514  0.40633373
   0.08659817  0.01193334  0.50052787
   0.09961765  0.10853217  0.59521822
   0.09709914  0.21083801  0.69175776
   0.19895343  0.30602754  0.90418835
   0.18927257  0.40018852  0.01856609
   0.19823627  0.50373447  0.10651191
   0.19869048  0.61585429  0.20653982
   0.22177510  0.72235287  0.31180072
   0.19646551  0.81675162  0.40229845
   0.17684030  0.92000006  0.49604423
   0.19343016  0.00674413  0.59743342
   0.18522992  0.10322252  0.67897662
   0.21264517  0.21154687  0.79465920
   0.39058614  0.38747052  0.99681532
   0.40404563  0.50066030  0.09350970
   0.39796276  0.60466480  0.20130582
   0.39639508  0.70639542  0.30405612
   0.40909103  0.80750783  0.41388423
   0.39152292  0.92229853  0.50191402
   0.40785787  0.01269528  0.58108866
   0.39943950  0.10011783  0.69801085
   0.39097380  0.20648745  0.79322735
   0.41159100  0.29599321  0.91073551
   0.51332525  0.39515195  0.10742142
   0.48684928  0.48791866  0.20164939
   0.48925843  0.59867392  0.29268245
   0.50843016  0.70315927  0.40522555
   0.50233819  0.81162983  0.50509675
   0.48912551  0.90914685  0.59556904
   0.49806278  0.98364644  0.68908657
   0.48947427  0.08099683  0.80738083
   0.48745021  0.18112830  0.88810444
   0.51334585  0.29046915  0.99575916
   0.59249804  0.41103629  0.20328954
   0.59786340  0.51346212  0.31781695
   0.59123904  0.59559182  0.42615029
   0.60311642  0.72541582  0.50618322
   0.59120229  0.80999473  0.61339145
   0.60245832  0.92581789  0.70162988
   0.59275876  0.99747924  0.80588898
   0.60210870  0.08902529  0.90579101
   0.59688822  0.18676560  0.00008035
   0.59652153  0.30459948  0.10223714
   0.70300215  0.41288273  0.29318747
   0.69402967  0.49783063  0.40662677
   0.70035771  0.59360274  0.52122515
   0.69176820  0.70832751  0.59271923
   0.69374856  0.81409186  0.69634116
   0.69933085  0.90980011  0.80198446
   0.71227403  0.00492662  0.91051520
   0.70845521  0.09660211  0.01863372
   0.70338819  0.20756353  0.10841584
   0.70566177  0.31889210  0.19828462
   0.79697406  0.40180857  0.39572055
   0.80027112  0.49579215  0.50069477
   0.79744936  0.60339297  0.61828802
   0.78014014  0.70869731  0.70945512
   0.80142156  0.80648268  0.79850192
   0.79696225  0.91511909  0.91113509
   0.81156868  0.00491011  0.01507326
   0.80704369  0.10270003  0.10415215
   0.80258404  0.20536093  0.18916717
   0.80513753  0.29913468  0.28236238
   0.88782276  0.39531573  0.49635607
   0.88437837  0.50275854  0.60569645
   0.90629642  0.60412842  0.69720355
   0.90256779  0.71287698  0.79034758
   0.89583655  0.79236069  0.90611039
   0.89494666  0.89417703  0.00664751
   0.90747867  0.99657945  0.08845602
   0.90355804  0.10580651  0.19404085
   0.90559687  0.20716913  0.29497898
   0.89361328  0.29575072  0.40834409
   0.98631323  0.41721988  0.59920592
   0.00394541  0.50152420  0.71506677
   0.99372067  0.57784614  0.80064658
   0.99654075  0.69337417  0.90379932
   0.01479073  0.80278941  0.99665197
   0.00243330  0.89809677  0.10099278
   0.99666157  0.01306479  0.19589221
   0.99237886  0.11257258  0.29425263
   0.00496781  0.19998598  0.41096940
   0.99610560  0.30640732  0.50896187
   0.09387522  0.39236530  0.68259745
   0.11571830  0.47791381  0.79686989
   0.09164508  0.58865566  0.89414587
   0.10009252  0.69415030  0.98272042
   0.10817920  0.77337782  0.11035265
   0.10021729  0.89086146  0.19611595
   0.09026267  0.00581568  0.28890765
   0.09023167  0.09052965  0.39247605
   0.10496876  0.20578358  0.51796039
   0.10042348  0.29880776  0.60584691
   0.19531539  0.39575459  0.79095771
   0.19830091  0.49546056  0.89755338
   0.20574314  0.58949347  0.00105747
   0.21313518  0.70864970  0.10016108
   0.20256997  0.79752536  0.19160656
   0.18395736  0.89796291  0.29542666
   0.19679688  0.00264584  0.39483587
   0.19084087  0.09397342  0.48651055
   0.20731482  0.20991650  0.59319594
   0.20908322  0.29294432  0.68996142
   0.30610236  0.38631421  0.89623381
   0.30584846  0.49230891  0.00404806
   0.30023463  0.59976491  0.10603658
   0.31238407  0.71019836  0.19675875
   0.30473088  0.81446083  0.28729249
   0.30735894  0.90781240  0.38647078
   0.29475855  0.00154075  0.50695086
   0.29335422  0.10039918  0.58219260
   0.30456419  0.19663489  0.70137856
   0.31089097  0.30804254  0.79436795
