 432 432   0   0
  0.2356206E+02  0.2167200E-08  0.2167200E-08  0.2167200E-08  0.5000000E-15
  1.000000000000000E-004
  CAR 
 Li                                      
      2.75882714     -3.59529361  301      0.01746645      1.00000000
     -3.595  0.0000E+00  0.0000E+00
     -3.574  0.0000E+00  0.0000E+00
     -3.553  0.0000E+00  0.0000E+00
     -3.532  0.0000E+00  0.0000E+00
     -3.511  0.0000E+00  0.0000E+00
     -3.489  0.0000E+00  0.0000E+00
     -3.468  0.1573E-13  0.3331E-15
     -3.447  0.3752E-10  0.7950E-12
     -3.426  0.3353E-07  0.7111E-09
     -3.405  0.1131E-04  0.2402E-06
     -3.383  0.1447E-02  0.3089E-04
     -3.362  0.7092E-01  0.1533E-02
     -3.341  0.1345E+01  0.3001E-01
     -3.320  0.9980E+01  0.2414E+00
     -3.299  0.2933E+02  0.8626E+00
     -3.278  0.3438E+02  0.1591E+01
     -3.256  0.1616E+02  0.1933E+01
     -3.235  0.4206E+01  0.2022E+01
     -3.214  0.1062E+02  0.2247E+01
     -3.193  0.3984E+02  0.3091E+01
     -3.172  0.7508E+02  0.4681E+01
     -3.151  0.8008E+02  0.6377E+01
     -3.129  0.5280E+02  0.7496E+01
     -3.108  0.2136E+02  0.7948E+01
     -3.087  0.1520E+02  0.8270E+01
     -3.066  0.4055E+02  0.9129E+01
     -3.045  0.7266E+02  0.1067E+02
     -3.023  0.7851E+02  0.1233E+02
     -3.002  0.5403E+02  0.1347E+02
     -2.981  0.2607E+02  0.1403E+02
     -2.960  0.3090E+02  0.1468E+02
     -2.939  0.7029E+02  0.1617E+02
     -2.918  0.1028E+03  0.1835E+02
     -2.896  0.9602E+02  0.2038E+02
     -2.875  0.5792E+02  0.2161E+02
     -2.854  0.3130E+02  0.2227E+02
     -2.833  0.4872E+02  0.2330E+02
     -2.812  0.9265E+02  0.2527E+02
     -2.790  0.1333E+03  0.2809E+02
     -2.769  0.1386E+03  0.3103E+02
     -2.748  0.9490E+02  0.3304E+02
     -2.727  0.4070E+02  0.3390E+02
     -2.706  0.2625E+02  0.3445E+02
     -2.685  0.5447E+02  0.3561E+02
     -2.663  0.8651E+02  0.3744E+02
     -2.642  0.7891E+02  0.3911E+02
     -2.621  0.4336E+02  0.4003E+02
     -2.600  0.4091E+02  0.4090E+02
     -2.579  0.7485E+02  0.4248E+02
     -2.557  0.1126E+03  0.4487E+02
     -2.536  0.1332E+03  0.4769E+02
     -2.515  0.1150E+03  0.5012E+02
     -2.494  0.7672E+02  0.5175E+02
     -2.473  0.6851E+02  0.5320E+02
     -2.452  0.1042E+03  0.5541E+02
     -2.430  0.1511E+03  0.5861E+02
     -2.409  0.1801E+03  0.6242E+02
     -2.388  0.1668E+03  0.6596E+02
     -2.367  0.1162E+03  0.6842E+02
     -2.346  0.6351E+02  0.6976E+02
     -2.324  0.4719E+02  0.7076E+02
     -2.303  0.7018E+02  0.7225E+02
     -2.282  0.8513E+02  0.7405E+02
     -2.261  0.6543E+02  0.7544E+02
     -2.240  0.4458E+02  0.7638E+02
     -2.219  0.6570E+02  0.7777E+02
     -2.197  0.1098E+03  0.8010E+02
     -2.176  0.1373E+03  0.8301E+02
     -2.155  0.1423E+03  0.8602E+02
     -2.134  0.1189E+03  0.8854E+02
     -2.113  0.8259E+02  0.9029E+02
     -2.091  0.8904E+02  0.9218E+02
     -2.070  0.1336E+03  0.9500E+02
     -2.049  0.1749E+03  0.9871E+02
     -2.028  0.1813E+03  0.1025E+03
     -2.007  0.1429E+03  0.1056E+03
     -1.986  0.8884E+02  0.1075E+03
     -1.964  0.6964E+02  0.1089E+03
     -1.943  0.1034E+03  0.1111E+03
     -1.922  0.1385E+03  0.1141E+03
     -1.901  0.1393E+03  0.1170E+03
     -1.880  0.1054E+03  0.1192E+03
     -1.859  0.8023E+02  0.1209E+03
     -1.837  0.1122E+03  0.1233E+03
     -1.816  0.1630E+03  0.1268E+03
     -1.795  0.1833E+03  0.1307E+03
     -1.774  0.1662E+03  0.1342E+03
     -1.753  0.1215E+03  0.1367E+03
     -1.731  0.9354E+02  0.1387E+03
     -1.710  0.1138E+03  0.1411E+03
     -1.689  0.1517E+03  0.1444E+03
     -1.668  0.1802E+03  0.1482E+03
     -1.647  0.1757E+03  0.1519E+03
     -1.626  0.1265E+03  0.1546E+03
     -1.604  0.7717E+02  0.1562E+03
     -1.583  0.7966E+02  0.1579E+03
     -1.562  0.1100E+03  0.1602E+03
     -1.541  0.1263E+03  0.1629E+03
     -1.520  0.1210E+03  0.1655E+03
     -1.498  0.9588E+02  0.1675E+03
     -1.477  0.8885E+02  0.1694E+03
     -1.456  0.1192E+03  0.1719E+03
     -1.435  0.1440E+03  0.1749E+03
     -1.414  0.1378E+03  0.1779E+03
     -1.393  0.1216E+03  0.1804E+03
     -1.371  0.1317E+03  0.1832E+03
     -1.350  0.1708E+03  0.1868E+03
     -1.329  0.2140E+03  0.1914E+03
     -1.308  0.2349E+03  0.1964E+03
     -1.287  0.2208E+03  0.2010E+03
     -1.265  0.1960E+03  0.2052E+03
     -1.244  0.1708E+03  0.2088E+03
     -1.223  0.1574E+03  0.2121E+03
     -1.202  0.1712E+03  0.2158E+03
     -1.181  0.1799E+03  0.2196E+03
     -1.160  0.1622E+03  0.2230E+03
     -1.138  0.1371E+03  0.2259E+03
     -1.117  0.1165E+03  0.2284E+03
     -1.096  0.1160E+03  0.2308E+03
     -1.075  0.1379E+03  0.2338E+03
     -1.054  0.1547E+03  0.2370E+03
     -1.032  0.1433E+03  0.2401E+03
     -1.011  0.1130E+03  0.2425E+03
     -0.990  0.1154E+03  0.2449E+03
     -0.969  0.1612E+03  0.2483E+03
     -0.948  0.2100E+03  0.2528E+03
     -0.927  0.2304E+03  0.2576E+03
     -0.905  0.2081E+03  0.2621E+03
     -0.884  0.1538E+03  0.2653E+03
     -0.863  0.1202E+03  0.2679E+03
     -0.842  0.1084E+03  0.2701E+03
     -0.821  0.8297E+02  0.2719E+03
     -0.799  0.8213E+02  0.2736E+03
     -0.778  0.1258E+03  0.2763E+03
     -0.757  0.1738E+03  0.2800E+03
     -0.736  0.2068E+03  0.2844E+03
     -0.715  0.2242E+03  0.2891E+03
     -0.694  0.2262E+03  0.2939E+03
     -0.672  0.2059E+03  0.2983E+03
     -0.651  0.1855E+03  0.3022E+03
     -0.630  0.1923E+03  0.3063E+03
     -0.609  0.2088E+03  0.3107E+03
     -0.588  0.2195E+03  0.3153E+03
     -0.566  0.2306E+03  0.3202E+03
     -0.545  0.2291E+03  0.3251E+03
     -0.524  0.1987E+03  0.3293E+03
     -0.503  0.1529E+03  0.3325E+03
     -0.482  0.1373E+03  0.3354E+03
     -0.461  0.1518E+03  0.3387E+03
     -0.439  0.1583E+03  0.3420E+03
     -0.418  0.1637E+03  0.3455E+03
     -0.397  0.1836E+03  0.3494E+03
     -0.376  0.2148E+03  0.3539E+03
     -0.355  0.2350E+03  0.3589E+03
     -0.334  0.2297E+03  0.3638E+03
     -0.312  0.2163E+03  0.3683E+03
     -0.291  0.2099E+03  0.3728E+03
     -0.270  0.2075E+03  0.3772E+03
     -0.249  0.2038E+03  0.3815E+03
     -0.228  0.2073E+03  0.3859E+03
     -0.206  0.2094E+03  0.3903E+03
     -0.185  0.1956E+03  0.3945E+03
     -0.164  0.1809E+03  0.3983E+03
     -0.143  0.1711E+03  0.4019E+03
     -0.122  0.1692E+03  0.4055E+03
     -0.101  0.1749E+03  0.4092E+03
     -0.079  0.1782E+03  0.4130E+03
     -0.058  0.1828E+03  0.4168E+03
     -0.037  0.1872E+03  0.4208E+03
     -0.016  0.1973E+03  0.4250E+03
      0.005  0.2100E+03  0.4294E+03
      0.027  0.2098E+03  0.4339E+03
      0.048  0.1996E+03  0.4381E+03
      0.069  0.1979E+03  0.4423E+03
      0.090  0.2034E+03  0.4466E+03
      0.111  0.2069E+03  0.4510E+03
      0.132  0.2107E+03  0.4555E+03
      0.154  0.2113E+03  0.4599E+03
      0.175  0.2118E+03  0.4644E+03
      0.196  0.2127E+03  0.4689E+03
      0.217  0.2087E+03  0.4733E+03
      0.238  0.2123E+03  0.4778E+03
      0.260  0.2230E+03  0.4826E+03
      0.281  0.2211E+03  0.4872E+03
      0.302  0.2236E+03  0.4920E+03
      0.323  0.2333E+03  0.4969E+03
      0.344  0.2395E+03  0.5020E+03
      0.365  0.2390E+03  0.5071E+03
      0.387  0.2364E+03  0.5121E+03
      0.408  0.2386E+03  0.5171E+03
      0.429  0.2434E+03  0.5223E+03
      0.450  0.2446E+03  0.5275E+03
      0.471  0.2440E+03  0.5326E+03
      0.493  0.2446E+03  0.5378E+03
      0.514  0.2408E+03  0.5429E+03
      0.535  0.2363E+03  0.5479E+03
      0.556  0.2328E+03  0.5528E+03
      0.577  0.2282E+03  0.5577E+03
      0.598  0.2304E+03  0.5626E+03
      0.620  0.2352E+03  0.5675E+03
      0.641  0.2319E+03  0.5724E+03
      0.662  0.2216E+03  0.5771E+03
      0.683  0.2105E+03  0.5816E+03
      0.704  0.2025E+03  0.5859E+03
      0.726  0.2001E+03  0.5901E+03
      0.747  0.2074E+03  0.5945E+03
      0.768  0.2125E+03  0.5990E+03
      0.789  0.2060E+03  0.6034E+03
      0.810  0.2017E+03  0.6076E+03
      0.831  0.2071E+03  0.6120E+03
      0.853  0.1995E+03  0.6163E+03
      0.874  0.1862E+03  0.6202E+03
      0.895  0.1886E+03  0.6242E+03
      0.916  0.1914E+03  0.6283E+03
      0.937  0.1956E+03  0.6324E+03
      0.958  0.2039E+03  0.6367E+03
      0.980  0.2045E+03  0.6410E+03
      1.001  0.1931E+03  0.6451E+03
      1.022  0.1788E+03  0.6489E+03
      1.043  0.1773E+03  0.6527E+03
      1.064  0.1818E+03  0.6565E+03
      1.086  0.1790E+03  0.6603E+03
      1.107  0.1803E+03  0.6641E+03
      1.128  0.1890E+03  0.6681E+03
      1.149  0.1890E+03  0.6721E+03
      1.170  0.1881E+03  0.6761E+03
      1.191  0.1920E+03  0.6802E+03
      1.213  0.1946E+03  0.6843E+03
      1.234  0.1972E+03  0.6885E+03
      1.255  0.1993E+03  0.6927E+03
      1.276  0.1968E+03  0.6969E+03
      1.297  0.1903E+03  0.7009E+03
      1.319  0.1852E+03  0.7048E+03
      1.340  0.1873E+03  0.7088E+03
      1.361  0.1885E+03  0.7128E+03
      1.382  0.1829E+03  0.7167E+03
      1.403  0.1818E+03  0.7205E+03
      1.424  0.1839E+03  0.7244E+03
      1.446  0.1772E+03  0.7282E+03
      1.467  0.1748E+03  0.7319E+03
      1.488  0.1840E+03  0.7358E+03
      1.509  0.1866E+03  0.7397E+03
      1.530  0.1785E+03  0.7435E+03
      1.552  0.1703E+03  0.7471E+03
      1.573  0.1676E+03  0.7507E+03
      1.594  0.1604E+03  0.7541E+03
      1.615  0.1553E+03  0.7573E+03
      1.636  0.1564E+03  0.7607E+03
      1.657  0.1506E+03  0.7638E+03
      1.679  0.1404E+03  0.7668E+03
      1.700  0.1367E+03  0.7697E+03
      1.721  0.1353E+03  0.7726E+03
      1.742  0.1307E+03  0.7753E+03
      1.763  0.1270E+03  0.7780E+03
      1.785  0.1301E+03  0.7808E+03
      1.806  0.1320E+03  0.7836E+03
      1.827  0.1222E+03  0.7862E+03
      1.848  0.1169E+03  0.7887E+03
      1.869  0.1189E+03  0.7912E+03
      1.890  0.9714E+02  0.7932E+03
      1.912  0.6643E+02  0.7946E+03
      1.933  0.5671E+02  0.7958E+03
      1.954  0.6406E+02  0.7972E+03
      1.975  0.8193E+02  0.7989E+03
      1.996  0.9182E+02  0.8009E+03
      2.018  0.9520E+02  0.8029E+03
      2.039  0.1040E+03  0.8051E+03
      2.060  0.1089E+03  0.8074E+03
      2.081  0.1123E+03  0.8098E+03
      2.102  0.1230E+03  0.8124E+03
      2.123  0.1297E+03  0.8151E+03
      2.145  0.1317E+03  0.8179E+03
      2.166  0.1413E+03  0.8209E+03
      2.187  0.1469E+03  0.8240E+03
      2.208  0.1526E+03  0.8273E+03
      2.229  0.1611E+03  0.8307E+03
      2.250  0.1648E+03  0.8342E+03
      2.272  0.1639E+03  0.8376E+03
      2.293  0.1658E+03  0.8411E+03
      2.314  0.1644E+03  0.8446E+03
      2.335  0.1609E+03  0.8480E+03
      2.356  0.1621E+03  0.8515E+03
      2.378  0.1658E+03  0.8550E+03
      2.399  0.1588E+03  0.8583E+03
      2.420  0.1338E+03  0.8612E+03
      2.441  0.1087E+03  0.8635E+03
      2.462  0.7642E+02  0.8651E+03
      2.483  0.3401E+02  0.8658E+03
      2.505  0.7765E+01  0.8660E+03
      2.526  0.8115E+00  0.8660E+03
      2.547  0.3611E-01  0.8660E+03
      2.568  0.6530E-03  0.8660E+03
      2.589  0.4657E-05  0.8660E+03
      2.611  0.1286E-07  0.8660E+03
      2.632  0.1360E-10  0.8660E+03
      2.653  0.5242E-14  0.8660E+03
      2.674  0.0000E+00  0.8660E+03
      2.695  0.0000E+00  0.8660E+03
      2.716  0.0000E+00  0.8660E+03
      2.738  0.0000E+00  0.8660E+03
      2.759  0.0000E+00  0.8660E+03
