Li                                      
           1
    21.672000    0.000000    0.000000
     0.000000   21.672000    0.000000
     0.000000    0.000000   21.672000
   Li
   432
Direct configuration=     1
   0.02605412  0.00569506  0.99214385
   0.92528473  0.07693110  0.08005657
   0.82674425  0.16633082  0.16724756
   0.77416746  0.24130158  0.25212125
   0.68199045  0.30335467  0.31766446
   0.58903525  0.37941673  0.41142646
   0.51161966  0.46546747  0.49161202
   0.43305916  0.56912597  0.57440594
   0.36690108  0.68925678  0.67019434
   0.23312082  0.77203332  0.75009397
   0.17145293  0.80509954  0.84393982
   0.08310301  0.91584907  0.94587593
   0.08905562  0.92457476  0.06721045
   0.01920040  0.99202344  0.14804218
   0.89901315  0.07388773  0.27128513
   0.83616811  0.17034571  0.33061782
   0.78365615  0.24612542  0.45448320
   0.68740542  0.31720918  0.49661495
   0.58119733  0.42037534  0.57349584
   0.48640473  0.49464640  0.65344357
   0.43974499  0.58569283  0.77056156
   0.36133191  0.67687832  0.82231236
   0.30834263  0.75666961  0.90527104
   0.17320007  0.81579683  0.00954093
   0.15445523  0.80228781  0.14642185
   0.09443421  0.94011850  0.22285095
   0.99067511  0.99879212  0.32821059
   0.92203180  0.08123084  0.41545317
   0.85857708  0.14648443  0.51835342
   0.77157919  0.23293711  0.61210846
   0.66289179  0.33576259  0.66616533
   0.59838561  0.41486375  0.71604100
   0.53023570  0.47378109  0.81762089
   0.42697609  0.53720448  0.92707361
   0.38166447  0.65983123  0.02535323
   0.27022308  0.74047083  0.09738484
   0.25803734  0.73190476  0.25240452
   0.15714575  0.82231527  0.34124348
   0.10084787  0.91002122  0.37864702
   0.03211619  0.97470261  0.50484031
   0.90470469  0.06360293  0.57933376
   0.82411118  0.14267310  0.69755911
   0.74727018  0.20554452  0.74508931
   0.64898715  0.32083082  0.76866067
   0.61369510  0.39685211  0.89343453
   0.52162836  0.46888125  0.99901034
   0.44942382  0.55121795  0.08930302
   0.34932936  0.63438009  0.18278814
   0.35476800  0.65512068  0.32323111
   0.27419029  0.76470792  0.39790078
   0.19497979  0.85501278  0.51621850
   0.07503685  0.91073105  0.59298601
   0.02612749  0.01178396  0.68600566
   0.92373994  0.05915450  0.75099554
   0.85987244  0.18119339  0.79827360
   0.74346706  0.26533153  0.88450922
   0.66600934  0.31471957  0.00193933
   0.57751215  0.39892968  0.10439924
   0.51304843  0.46514693  0.17215453
   0.41912574  0.55322266  0.25277632
   0.40441631  0.56596320  0.39244499
   0.34605466  0.66779577  0.47716247
   0.26491151  0.76314464  0.54689538
   0.18121457  0.83117754  0.65953237
   0.10154583  0.88826782  0.75682125
   0.02510725  0.01129441  0.82914013
   0.91752054  0.08883109  0.89303356
   0.87032026  0.18614419  0.98346725
   0.73535207  0.26165685  0.06439319
   0.66637791  0.31773613  0.19238098
   0.58855675  0.38368246  0.24595107
   0.48085398  0.47221196  0.34682220
   0.11206494  0.09283217  0.89131874
   0.98294761  0.17550413  0.97081525
   0.93211255  0.23009419  0.09716450
   0.83783324  0.33471541  0.19331627
   0.77473937  0.41570597  0.26883232
   0.66357325  0.49490868  0.32416870
   0.53623266  0.57198288  0.40546586
   0.49385024  0.68306095  0.48486111
   0.43535015  0.74386479  0.61534804
   0.32951626  0.85054773  0.70133753
   0.24646649  0.92808706  0.77180618
   0.15267031  0.99256828  0.83010818
   0.16416485  0.01054726  0.98185786
   0.07981681  0.11451170  0.08160767
   0.97439347  0.15583545  0.18221154
   0.91748353  0.25863125  0.25743888
   0.84988967  0.33225963  0.35917360
   0.74464599  0.40422179  0.43383784
   0.68417005  0.48073220  0.48638193
   0.57010590  0.58240758  0.56720663
   0.51353115  0.66417381  0.69491421
   0.43098339  0.75483173  0.75559226
   0.35286661  0.84513373  0.83262479
   0.23494507  0.89585451  0.91396542
   0.24513534  0.91484364  0.08948577
   0.16609504  0.01619745  0.14863663
   0.07888255  0.06106522  0.25241505
   0.98651850  0.13634594  0.34745349
   0.93629024  0.24535046  0.42025860
   0.85932410  0.34075097  0.53979450
   0.73729814  0.43044995  0.59204985
   0.67796097  0.53295986  0.64568443
   0.56233058  0.58419010  0.77328651
   0.48033083  0.66860522  0.87176643
   0.42459420  0.76602356  0.93679156
   0.33466878  0.82144346  0.00423142
   0.34447369  0.80376318  0.19898126
   0.24378705  0.89996808  0.22484358
   0.17231169  0.00387205  0.32420683
   0.08781870  0.05363574  0.45255381
   0.01775471  0.15767284  0.52573067
   0.91583233  0.24494589  0.60657528
   0.81348104  0.35318407  0.70130162
   0.75382785  0.41792320  0.73616135
   0.66983248  0.50746499  0.82609181
   0.56972623  0.56617564  0.93719286
   0.51394780  0.64098863  0.00835042
   0.45350967  0.72233688  0.10643807
   0.42621687  0.73302277  0.26080450
   0.36255623  0.85777861  0.31811436
   0.26833648  0.90146205  0.38670639
   0.19270199  0.96489892  0.50023386
   0.14023864  0.09118850  0.58591493
   0.00166242  0.14588790  0.67613880
   0.92791079  0.26258124  0.72076685
   0.84524215  0.33831898  0.82926425
   0.74293559  0.39349235  0.88854491
   0.67317529  0.47445915  0.01335693
   0.60683702  0.53542193  0.10662727
   0.50523162  0.64658041  0.19381150
   0.50927960  0.66515341  0.32790608
   0.41958980  0.74442582  0.42010678
   0.35199546  0.84433938  0.51043814
   0.28377715  0.91305574  0.61145708
   0.17184024  0.99871269  0.67633593
   0.10294116  0.09191149  0.74323028
   0.97833466  0.18600388  0.81829553
   0.90390752  0.27736101  0.91474034
   0.83866184  0.32669633  0.02366136
   0.71587272  0.42042827  0.10671620
   0.68683369  0.49429222  0.19427261
   0.55852831  0.56356801  0.26257475
   0.17249967  0.20532067  0.81289166
   0.10166412  0.25672758  0.90493426
   0.99412507  0.31785463  0.01969209
   0.92274280  0.41830462  0.08931361
   0.84050065  0.50952281  0.16382147
   0.78361699  0.59979528  0.26766778
   0.65538449  0.65215642  0.32584460
   0.58408614  0.78920436  0.38611369
   0.49545666  0.85954159  0.52454025
   0.40420944  0.90836292  0.58968255
   0.31362734  0.01146896  0.70256493
   0.26772092  0.08990058  0.76880293
   0.23970623  0.09884608  0.89036192
   0.15625284  0.16299893  0.98211463
   0.05828598  0.23213207  0.07696731
   0.96586733  0.35043812  0.15773783
   0.90902746  0.43328051  0.28694719
   0.84194631  0.49532133  0.36127189
   0.74499934  0.60308322  0.42220768
   0.65544004  0.68184209  0.48822653
   0.55249819  0.77627197  0.60193071
   0.49737789  0.85260806  0.67142890
   0.43641168  0.93976593  0.76803289
   0.36550600  0.98712214  0.84114210
   0.30444612  0.99331604  0.96465086
   0.23890274  0.08431584  0.09437839
   0.14702993  0.16854510  0.16402266
   0.06448918  0.26566276  0.25768878
   0.99836892  0.36427546  0.33104111
   0.90674069  0.40067245  0.43343123
   0.81116534  0.49536645  0.50658463
   0.73406098  0.60201689  0.57287215
   0.65711007  0.71143938  0.67384268
   0.55959449  0.76746798  0.76300902
   0.51080790  0.84957353  0.85876961
   0.44143689  0.92919193  0.94523035
   0.39472029  0.91086305  0.10912465
   0.33408286  0.99810634  0.17372875
   0.24411743  0.09610183  0.21501980
   0.13295374  0.16132842  0.35352946
   0.08250913  0.27275075  0.42764299
   0.98754378  0.33171693  0.51653442
   0.89141984  0.44975647  0.63029839
   0.81012244  0.49526787  0.70065859
   0.75500324  0.60989128  0.75479483
   0.65489312  0.69126713  0.85000563
   0.57431392  0.72634793  0.93519590
   0.51425642  0.78817390  0.03886078
   0.48564240  0.82387207  0.18302475
   0.41461910  0.93811752  0.24707522
   0.30588342  0.01753159  0.33651002
   0.22698665  0.06852122  0.41806986
   0.16763836  0.16955553  0.47534516
   0.09633120  0.24089661  0.58011747
   0.01511761  0.36687889  0.68485714
   0.93735405  0.43574131  0.77347832
   0.81645808  0.53329318  0.83070914
   0.69245967  0.57364777  0.92498114
   0.67206443  0.69056801  0.01299184
   0.61027762  0.74394325  0.10984874
   0.58315299  0.76458222  0.26336737
   0.45926585  0.86415724  0.32130371
   0.40787280  0.95925789  0.42285182
   0.32097560  0.98263662  0.50074020
   0.25559208  0.08671088  0.59614651
   0.18224880  0.17978207  0.67434202
   0.07074017  0.26182612  0.74406569
   0.02055672  0.33687435  0.84401061
   0.92170435  0.43282874  0.93229054
   0.81591015  0.48217065  0.98816780
   0.73660639  0.58116856  0.08718595
   0.67744316  0.65314624  0.21081125
   0.25236825  0.28200320  0.73719964
   0.17340116  0.32975491  0.80914711
   0.10044484  0.41705151  0.94760480
   0.97800758  0.49651148  0.97783999
   0.89753002  0.60601597  0.06213598
   0.83732397  0.68167872  0.17615048
   0.75793747  0.76793335  0.26335753
   0.68810659  0.87269487  0.29475435
   0.55836235  0.90530511  0.38692661
   0.48007104  0.00235557  0.50727855
   0.39097931  0.06416494  0.57032109
   0.31219584  0.16437543  0.70642473
   0.35947742  0.18265843  0.81461072
   0.26511073  0.24218576  0.90693785
   0.18710697  0.31295774  0.99853016
   0.07686970  0.40635992  0.06934764
   0.97970491  0.49634570  0.17256629
   0.90985108  0.56962471  0.25928695
   0.82446165  0.67775168  0.30713836
   0.78566683  0.76337634  0.40629304
   0.64503390  0.81942270  0.49073909
   0.56650534  0.91076645  0.56778939
   0.48100149  0.98578416  0.64436823
   0.41688850  0.09699747  0.73779255
   0.40565100  0.09772673  0.91243312
   0.33886594  0.16272939  0.96958360
   0.26133930  0.23824250  0.07679674
   0.16319721  0.33254403  0.15944873
   0.07471668  0.40806846  0.25975606
   0.00241732  0.53082098  0.37144409
   0.89548045  0.61182706  0.42670898
   0.83712731  0.68105803  0.50976184
   0.73010339  0.78093504  0.60726274
   0.61640780  0.85559788  0.70401083
   0.58368590  0.94841672  0.73120924
   0.49940289  0.02638750  0.83774450
   0.50873784  0.00643032  0.99991438
   0.40692176  0.10199305  0.06671483
   0.33026236  0.16118685  0.13336391
   0.23713613  0.27098056  0.23863651
   0.15088999  0.32925272  0.33693800
   0.08256609  0.39802955  0.42917185
   0.95257482  0.51004108  0.49419742
   0.89547270  0.56282500  0.55624816
   0.80993972  0.66978263  0.67040507
   0.73959138  0.78682710  0.75755485
   0.62075210  0.83412272  0.84523814
   0.54857591  0.90651687  0.91724761
   0.58454904  0.92159736  0.09400284
   0.49541855  0.03539013  0.16518456
   0.42320203  0.09320631  0.22775144
   0.31439234  0.18097726  0.33651813
   0.22267447  0.23116411  0.40004766
   0.16490536  0.32234616  0.51157209
   0.08060849  0.45257846  0.59657941
   0.98238132  0.51535835  0.67456052
   0.91702026  0.60008840  0.75030164
   0.80282897  0.67477025  0.85097038
   0.74907532  0.77076547  0.93569649
   0.65010527  0.85341149  0.99794404
   0.68109744  0.83163165  0.15651833
   0.57771248  0.93932635  0.21104665
   0.51507918  0.02001547  0.32338722
   0.41408890  0.08564721  0.42271449
   0.29038945  0.18141104  0.50558876
   0.22093994  0.24945529  0.58505468
   0.14768087  0.32080837  0.65611334
   0.08405473  0.42932226  0.78185137
   0.01675153  0.52934428  0.84166980
   0.87992481  0.58088083  0.93164867
   0.83016271  0.67127317  0.99130303
   0.74036655  0.74095547  0.07815434
   0.32527856  0.34836799  0.63376464
   0.27498581  0.42289290  0.73571872
   0.18830557  0.49631213  0.83126862
   0.08829449  0.59042080  0.91763581
   0.98623345  0.66914962  0.97098569
   0.92778751  0.75058658  0.06333355
   0.86252256  0.83351717  0.17087588
   0.76273239  0.92428643  0.21679170
   0.66198005  0.00158683  0.33117043
   0.57316961  0.10969518  0.40846274
   0.48336338  0.16882686  0.50196359
   0.42944227  0.23886549  0.58981664
   0.42966921  0.26016982  0.74665052
   0.33714817  0.33519490  0.81112118
   0.27510001  0.40790377  0.93439946
   0.19182765  0.52018637  0.00673911
   0.05127215  0.57619978  0.04867655
   0.97775344  0.64397105  0.17569952
   0.91905759  0.76284527  0.24500355
   0.84592663  0.87154332  0.33245387
   0.72881858  0.89394381  0.43227683
   0.63952030  0.98508046  0.50112969
   0.57335856  0.07538104  0.57591153
   0.50260151  0.16280752  0.67960550
   0.53198087  0.16388218  0.85269644
   0.42322105  0.27231484  0.92257343
   0.32875514  0.32707035  0.01542759
   0.22844977  0.43291652  0.09944945
   0.12460124  0.47564329  0.16490473
   0.05273818  0.57738587  0.25895364
   0.99088023  0.66178242  0.32802073
   0.92118316  0.77637624  0.40743611
   0.86567947  0.84792528  0.50192240
   0.70904787  0.87409347  0.60317039
   0.67358413  0.00301377  0.64587570
   0.59317618  0.07631429  0.75414546
   0.56036185  0.06116557  0.91775032
   0.50973386  0.17143723  0.97895266
   0.40423924  0.24990303  0.03981199
   0.33719597  0.33240923  0.14050019
   0.22438504  0.38069414  0.24324804
   0.13727059  0.47546304  0.33837451
   0.08981580  0.61919469  0.41607374
   0.98055597  0.70074858  0.50708075
   0.90504224  0.75373053  0.57656834
   0.83527983  0.84611399  0.70170124
   0.72213990  0.92551002  0.77508492
   0.66144436  0.00413080  0.86285251
   0.68349233  0.02546416  0.95671599
   0.59748454  0.10213509  0.03656851
   0.50327932  0.17724839  0.13337152
   0.37276783  0.23631961  0.24512601
   0.32952718  0.31384406  0.32895452
   0.22408721  0.39148992  0.41603242
   0.17416746  0.51772158  0.49273440
   0.07922119  0.58298125  0.57563006
   0.99844502  0.65951469  0.63926899
   0.88048837  0.76427723  0.76616908
   0.81962236  0.83163801  0.82107559
   0.75704454  0.91467260  0.91628789
   0.75650481  0.89341171  0.05888744
   0.66373578  0.03207050  0.17528221
   0.59205609  0.08224085  0.24519652
   0.51499725  0.19458216  0.29361486
   0.37588676  0.21958639  0.43263208
   0.32480224  0.32925121  0.49641583
   0.23333568  0.42021142  0.57867792
   0.17673396  0.50202722  0.68945930
   0.10336028  0.57926621  0.74872052
   0.96901886  0.66357191  0.84703405
   0.91032845  0.77711816  0.92126616
   0.81549044  0.82380882  0.01750759
   0.39939942  0.42984532  0.55520653
   0.37976832  0.51019642  0.65228960
   0.28049673  0.56543896  0.76122960
   0.19451117  0.64869291  0.83822503
   0.07094386  0.74804202  0.90526349
   0.01169008  0.85909209  0.01721094
   0.94050505  0.93947431  0.04101763
   0.84264835  0.99801518  0.13017761
   0.75664141  0.05989180  0.24209580
   0.70879938  0.17776062  0.33263898
   0.57110194  0.23130196  0.39265161
   0.46100920  0.32691783  0.47829797
   0.48607682  0.32147206  0.64119396
   0.41642924  0.40802074  0.72114750
   0.36400836  0.47599424  0.82891170
   0.26628314  0.59724912  0.91561926
   0.18243087  0.70591576  0.97754699
   0.04313748  0.72294262  0.06386610
   0.98570968  0.82677242  0.16356474
   0.91267860  0.94362008  0.22629974
   0.80095828  0.98792880  0.34595928
   0.75698084  0.08456604  0.44389677
   0.66433211  0.14578924  0.53464889
   0.57586615  0.25096872  0.57367679
   0.58027124  0.22922973  0.75515787
   0.51236125  0.34605185  0.80188346
   0.42816949  0.39403661  0.92719113
   0.32976458  0.49866783  0.00441123
   0.26221258  0.59072518  0.08157417
   0.16054526  0.64868010  0.15637101
   0.08863327  0.73957384  0.22662611
   0.00282181  0.83252700  0.30486338
   0.96108472  0.93633978  0.42105509
   0.83018588  0.97799638  0.51887205
   0.76248494  0.06597036  0.59306345
   0.66369038  0.15616622  0.67437919
   0.66071805  0.15334903  0.86613127
   0.58156585  0.27414946  0.88951455
   0.52933561  0.35423224  0.00340702
   0.40952028  0.41819058  0.08578478
   0.31994292  0.47910561  0.18590509
   0.24857267  0.54962304  0.24919420
   0.15988911  0.69911278  0.30374228
   0.09847770  0.73623312  0.44206934
   0.01104103  0.86291601  0.48121652
   0.90676576  0.93362456  0.60688552
   0.82970203  0.00416788  0.69087887
   0.74056213  0.06552031  0.79192974
   0.80059446  0.10477200  0.89349394
   0.68695629  0.15377618  0.94071894
   0.60477313  0.23469449  0.04676469
   0.50576412  0.27473458  0.16776325
   0.41084945  0.39649477  0.25422541
   0.31631135  0.47677803  0.31665950
   0.24641584  0.56813992  0.37825115
   0.19441178  0.67628797  0.49177623
   0.10669820  0.76241765  0.60139379
   0.98050109  0.81244988  0.66994965
   0.91153531  0.89963202  0.76302023
   0.84970304  0.00134668  0.83849204
   0.85159522  0.01642311  0.97743903
   0.76632511  0.08893241  0.04692221
   0.66532855  0.15007780  0.15503568
   0.58860123  0.22547139  0.22506817
   0.46664658  0.28336548  0.31474677
   0.40421404  0.41269212  0.40510901
   0.29760614  0.51675895  0.51431558
   0.26918049  0.60514687  0.57461863
   0.18430346  0.66127715  0.68240577
   0.06502419  0.74560280  0.75841937
   0.00265997  0.83782624  0.83972980
   0.92542666  0.91030518  0.90621361
