 504 504   0   0
  0.2301818E+02  0.2235821E-08  0.2212889E-08  0.2344795E-08  0.5000000E-15
  1.000000000000000E-004
  CAR 
 Li                                      
      2.84629886     -3.56852334  301      0.07796341      1.00000000
     -3.569  0.0000E+00  0.0000E+00
     -3.547  0.0000E+00  0.0000E+00
     -3.526  0.0000E+00  0.0000E+00
     -3.504  0.0000E+00  0.0000E+00
     -3.483  0.0000E+00  0.0000E+00
     -3.462  0.0000E+00  0.0000E+00
     -3.440  0.2596E-13  0.5551E-15
     -3.419  0.6258E-10  0.1339E-11
     -3.397  0.5536E-07  0.1185E-08
     -3.376  0.1814E-04  0.3890E-06
     -3.355  0.2216E-02  0.4777E-04
     -3.333  0.1019E+00  0.2226E-02
     -3.312  0.1782E+01  0.4033E-01
     -3.291  0.1202E+02  0.2973E+00
     -3.269  0.3158E+02  0.9726E+00
     -3.248  0.3263E+02  0.1670E+01
     -3.226  0.1389E+02  0.1967E+01
     -3.205  0.9116E+01  0.2162E+01
     -3.184  0.3264E+02  0.2860E+01
     -3.162  0.7401E+02  0.4443E+01
     -3.141  0.9011E+02  0.6370E+01
     -3.119  0.5727E+02  0.7594E+01
     -3.098  0.2106E+02  0.8044E+01
     -3.077  0.2712E+02  0.8624E+01
     -3.055  0.6804E+02  0.1008E+02
     -3.034  0.8987E+02  0.1200E+02
     -3.013  0.6434E+02  0.1338E+02
     -2.991  0.3055E+02  0.1403E+02
     -2.970  0.3317E+02  0.1474E+02
     -2.948  0.6970E+02  0.1623E+02
     -2.927  0.1025E+03  0.1842E+02
     -2.906  0.9878E+02  0.2053E+02
     -2.884  0.5871E+02  0.2179E+02
     -2.863  0.4492E+02  0.2275E+02
     -2.842  0.8888E+02  0.2465E+02
     -2.820  0.1349E+03  0.2753E+02
     -2.799  0.1379E+03  0.3048E+02
     -2.777  0.1039E+03  0.3270E+02
     -2.756  0.5396E+02  0.3386E+02
     -2.735  0.3932E+02  0.3470E+02
     -2.713  0.7023E+02  0.3620E+02
     -2.692  0.8937E+02  0.3811E+02
     -2.670  0.7008E+02  0.3961E+02
     -2.649  0.5464E+02  0.4078E+02
     -2.628  0.7027E+02  0.4228E+02
     -2.606  0.9572E+02  0.4433E+02
     -2.585  0.1178E+03  0.4685E+02
     -2.564  0.1300E+03  0.4963E+02
     -2.542  0.1157E+03  0.5210E+02
     -2.521  0.1048E+03  0.5434E+02
     -2.499  0.1226E+03  0.5696E+02
     -2.478  0.1548E+03  0.6027E+02
     -2.457  0.1756E+03  0.6403E+02
     -2.435  0.1558E+03  0.6736E+02
     -2.414  0.1051E+03  0.6961E+02
     -2.392  0.6715E+02  0.7104E+02
     -2.371  0.5727E+02  0.7227E+02
     -2.350  0.7002E+02  0.7376E+02
     -2.328  0.7518E+02  0.7537E+02
     -2.307  0.7238E+02  0.7692E+02
     -2.286  0.9879E+02  0.7903E+02
     -2.264  0.1293E+03  0.8180E+02
     -2.243  0.1464E+03  0.8493E+02
     -2.221  0.1447E+03  0.8802E+02
     -2.200  0.1284E+03  0.9077E+02
     -2.179  0.1147E+03  0.9322E+02
     -2.157  0.1227E+03  0.9584E+02
     -2.136  0.1467E+03  0.9898E+02
     -2.114  0.1692E+03  0.1026E+03
     -2.093  0.1716E+03  0.1063E+03
     -2.072  0.1446E+03  0.1094E+03
     -2.050  0.9594E+02  0.1114E+03
     -2.029  0.6705E+02  0.1128E+03
     -2.008  0.8867E+02  0.1147E+03
     -1.986  0.1323E+03  0.1176E+03
     -1.965  0.1575E+03  0.1209E+03
     -1.943  0.1550E+03  0.1242E+03
     -1.922  0.1574E+03  0.1276E+03
     -1.901  0.1670E+03  0.1312E+03
     -1.879  0.1663E+03  0.1347E+03
     -1.858  0.1559E+03  0.1381E+03
     -1.837  0.1380E+03  0.1410E+03
     -1.815  0.1269E+03  0.1437E+03
     -1.794  0.1413E+03  0.1468E+03
     -1.772  0.1595E+03  0.1502E+03
     -1.751  0.1724E+03  0.1539E+03
     -1.730  0.1616E+03  0.1573E+03
     -1.708  0.1195E+03  0.1599E+03
     -1.687  0.9604E+02  0.1619E+03
     -1.665  0.1046E+03  0.1642E+03
     -1.644  0.1151E+03  0.1666E+03
     -1.623  0.1142E+03  0.1691E+03
     -1.601  0.1248E+03  0.1717E+03
     -1.580  0.1596E+03  0.1751E+03
     -1.559  0.1664E+03  0.1787E+03
     -1.537  0.1543E+03  0.1820E+03
     -1.516  0.1585E+03  0.1854E+03
     -1.494  0.1648E+03  0.1889E+03
     -1.473  0.1692E+03  0.1925E+03
     -1.452  0.1854E+03  0.1965E+03
     -1.430  0.2101E+03  0.2010E+03
     -1.409  0.2237E+03  0.2058E+03
     -1.387  0.2172E+03  0.2104E+03
     -1.366  0.2015E+03  0.2147E+03
     -1.345  0.1874E+03  0.2187E+03
     -1.323  0.1793E+03  0.2226E+03
     -1.302  0.1719E+03  0.2262E+03
     -1.281  0.1521E+03  0.2295E+03
     -1.259  0.1246E+03  0.2322E+03
     -1.238  0.1181E+03  0.2347E+03
     -1.216  0.1396E+03  0.2377E+03
     -1.195  0.1611E+03  0.2411E+03
     -1.174  0.1648E+03  0.2446E+03
     -1.152  0.1675E+03  0.2482E+03
     -1.131  0.1793E+03  0.2520E+03
     -1.110  0.1899E+03  0.2561E+03
     -1.088  0.1900E+03  0.2602E+03
     -1.067  0.1835E+03  0.2641E+03
     -1.045  0.1684E+03  0.2677E+03
     -1.024  0.1454E+03  0.2708E+03
     -1.003  0.1396E+03  0.2738E+03
     -0.981  0.1581E+03  0.2772E+03
     -0.960  0.1674E+03  0.2807E+03
     -0.938  0.1692E+03  0.2844E+03
     -0.917  0.1793E+03  0.2882E+03
     -0.896  0.1928E+03  0.2923E+03
     -0.874  0.2171E+03  0.2970E+03
     -0.853  0.2390E+03  0.3021E+03
     -0.832  0.2278E+03  0.3069E+03
     -0.810  0.2031E+03  0.3113E+03
     -0.789  0.2087E+03  0.3158E+03
     -0.767  0.2327E+03  0.3207E+03
     -0.746  0.2443E+03  0.3260E+03
     -0.725  0.2392E+03  0.3311E+03
     -0.703  0.2187E+03  0.3357E+03
     -0.682  0.1823E+03  0.3396E+03
     -0.660  0.1537E+03  0.3429E+03
     -0.639  0.1650E+03  0.3465E+03
     -0.618  0.1851E+03  0.3504E+03
     -0.596  0.1852E+03  0.3544E+03
     -0.575  0.1794E+03  0.3582E+03
     -0.554  0.1855E+03  0.3622E+03
     -0.532  0.1982E+03  0.3664E+03
     -0.511  0.2024E+03  0.3707E+03
     -0.489  0.1951E+03  0.3749E+03
     -0.468  0.1873E+03  0.3789E+03
     -0.447  0.1934E+03  0.3831E+03
     -0.425  0.2148E+03  0.3876E+03
     -0.404  0.2430E+03  0.3928E+03
     -0.382  0.2632E+03  0.3985E+03
     -0.361  0.2663E+03  0.4042E+03
     -0.340  0.2582E+03  0.4097E+03
     -0.318  0.2435E+03  0.4149E+03
     -0.297  0.2163E+03  0.4195E+03
     -0.276  0.2003E+03  0.4238E+03
     -0.254  0.2146E+03  0.4284E+03
     -0.233  0.2312E+03  0.4333E+03
     -0.211  0.2334E+03  0.4383E+03
     -0.190  0.2294E+03  0.4432E+03
     -0.169  0.2219E+03  0.4480E+03
     -0.147  0.2107E+03  0.4525E+03
     -0.126  0.1939E+03  0.4566E+03
     -0.105  0.1827E+03  0.4605E+03
     -0.083  0.1907E+03  0.4646E+03
     -0.062  0.2154E+03  0.4692E+03
     -0.040  0.2314E+03  0.4742E+03
     -0.019  0.2266E+03  0.4790E+03
      0.002  0.2182E+03  0.4837E+03
      0.024  0.2310E+03  0.4886E+03
      0.045  0.2677E+03  0.4943E+03
      0.067  0.2935E+03  0.5006E+03
      0.088  0.2964E+03  0.5070E+03
      0.109  0.3009E+03  0.5134E+03
      0.131  0.3003E+03  0.5198E+03
      0.152  0.2894E+03  0.5260E+03
      0.173  0.2842E+03  0.5321E+03
      0.195  0.2904E+03  0.5383E+03
      0.216  0.2895E+03  0.5445E+03
      0.238  0.2643E+03  0.5501E+03
      0.259  0.2441E+03  0.5553E+03
      0.280  0.2459E+03  0.5606E+03
      0.302  0.2547E+03  0.5660E+03
      0.323  0.2567E+03  0.5715E+03
      0.345  0.2617E+03  0.5771E+03
      0.366  0.2622E+03  0.5827E+03
      0.387  0.2507E+03  0.5881E+03
      0.409  0.2285E+03  0.5930E+03
      0.430  0.2191E+03  0.5977E+03
      0.451  0.2231E+03  0.6024E+03
      0.473  0.2157E+03  0.6071E+03
      0.494  0.2063E+03  0.6115E+03
      0.516  0.2147E+03  0.6161E+03
      0.537  0.2288E+03  0.6210E+03
      0.558  0.2252E+03  0.6258E+03
      0.580  0.2186E+03  0.6304E+03
      0.601  0.2254E+03  0.6353E+03
      0.622  0.2420E+03  0.6404E+03
      0.644  0.2535E+03  0.6459E+03
      0.665  0.2512E+03  0.6512E+03
      0.687  0.2524E+03  0.6566E+03
      0.708  0.2594E+03  0.6622E+03
      0.729  0.2683E+03  0.6679E+03
      0.751  0.2660E+03  0.6736E+03
      0.772  0.2517E+03  0.6790E+03
      0.794  0.2423E+03  0.6842E+03
      0.815  0.2406E+03  0.6893E+03
      0.836  0.2426E+03  0.6945E+03
      0.858  0.2415E+03  0.6997E+03
      0.879  0.2420E+03  0.7048E+03
      0.900  0.2412E+03  0.7100E+03
      0.922  0.2380E+03  0.7151E+03
      0.943  0.2296E+03  0.7200E+03
      0.965  0.2221E+03  0.7247E+03
      0.986  0.2146E+03  0.7293E+03
      1.007  0.2184E+03  0.7340E+03
      1.029  0.2346E+03  0.7390E+03
      1.050  0.2422E+03  0.7442E+03
      1.072  0.2398E+03  0.7493E+03
      1.093  0.2296E+03  0.7542E+03
      1.114  0.2194E+03  0.7589E+03
      1.136  0.2292E+03  0.7638E+03
      1.157  0.2483E+03  0.7691E+03
      1.178  0.2506E+03  0.7745E+03
      1.200  0.2412E+03  0.7796E+03
      1.221  0.2386E+03  0.7847E+03
      1.243  0.2348E+03  0.7898E+03
      1.264  0.2224E+03  0.7945E+03
      1.285  0.2174E+03  0.7992E+03
      1.307  0.2266E+03  0.8040E+03
      1.328  0.2394E+03  0.8091E+03
      1.350  0.2458E+03  0.8144E+03
      1.371  0.2356E+03  0.8194E+03
      1.392  0.2235E+03  0.8242E+03
      1.414  0.2227E+03  0.8290E+03
      1.435  0.2294E+03  0.8339E+03
      1.456  0.2322E+03  0.8388E+03
      1.478  0.2216E+03  0.8436E+03
      1.499  0.2104E+03  0.8481E+03
      1.521  0.2075E+03  0.8525E+03
      1.542  0.2094E+03  0.8570E+03
      1.563  0.2088E+03  0.8615E+03
      1.585  0.2039E+03  0.8658E+03
      1.606  0.2004E+03  0.8701E+03
      1.627  0.1941E+03  0.8743E+03
      1.649  0.1847E+03  0.8782E+03
      1.670  0.1899E+03  0.8823E+03
      1.692  0.1950E+03  0.8864E+03
      1.713  0.1853E+03  0.8904E+03
      1.734  0.1788E+03  0.8942E+03
      1.756  0.1836E+03  0.8981E+03
      1.777  0.1828E+03  0.9021E+03
      1.799  0.1726E+03  0.9057E+03
      1.820  0.1666E+03  0.9093E+03
      1.841  0.1723E+03  0.9130E+03
      1.863  0.1791E+03  0.9168E+03
      1.884  0.1693E+03  0.9204E+03
      1.905  0.1531E+03  0.9237E+03
      1.927  0.1510E+03  0.9269E+03
      1.948  0.1624E+03  0.9304E+03
      1.970  0.1678E+03  0.9340E+03
      1.991  0.1586E+03  0.9374E+03
      2.012  0.1538E+03  0.9407E+03
      2.034  0.1545E+03  0.9440E+03
      2.055  0.1452E+03  0.9471E+03
      2.077  0.1394E+03  0.9501E+03
      2.098  0.1483E+03  0.9532E+03
      2.119  0.1513E+03  0.9565E+03
      2.141  0.1499E+03  0.9597E+03
      2.162  0.1518E+03  0.9629E+03
      2.183  0.1519E+03  0.9662E+03
      2.205  0.1525E+03  0.9694E+03
      2.226  0.1524E+03  0.9727E+03
      2.248  0.1489E+03  0.9759E+03
      2.269  0.1466E+03  0.9790E+03
      2.290  0.1415E+03  0.9820E+03
      2.312  0.1262E+03  0.9847E+03
      2.333  0.1178E+03  0.9873E+03
      2.354  0.1226E+03  0.9899E+03
      2.376  0.1226E+03  0.9925E+03
      2.397  0.1198E+03  0.9951E+03
      2.419  0.1190E+03  0.9976E+03
      2.440  0.1206E+03  0.1000E+04
      2.461  0.1173E+03  0.1003E+04
      2.483  0.1023E+03  0.1005E+04
      2.504  0.8133E+02  0.1007E+04
      2.526  0.7032E+02  0.1008E+04
      2.547  0.5443E+02  0.1009E+04
      2.568  0.2606E+02  0.1010E+04
      2.590  0.6360E+01  0.1010E+04
      2.611  0.7121E+00  0.1010E+04
      2.632  0.3414E-01  0.1010E+04
      2.654  0.6671E-03  0.1010E+04
      2.675  0.5125E-05  0.1010E+04
      2.697  0.1508E-07  0.1010E+04
      2.718  0.1671E-10  0.1010E+04
      2.739  0.5192E-14  0.1010E+04
      2.761  0.0000E+00  0.1010E+04
      2.782  0.0000E+00  0.1010E+04
      2.804  0.0000E+00  0.1010E+04
      2.825  0.0000E+00  0.1010E+04
      2.846  0.0000E+00  0.1010E+04
