Li                                      
           1
   -11.179105   19.362778   -0.000000
   -19.164180  -11.064444   -0.000000
     0.000000   -0.000000   23.447950
   Li
   504
Direct configuration=     1
   0.99302491  0.99696333  0.00486915
   0.93898751  0.05283178  0.67120087
   0.86445405  0.09744924  0.32034546
   0.79122365  0.11635733  0.01794277
   0.73951807  0.16739773  0.66339897
   0.64685602  0.20506722  0.33678447
   0.56599808  0.24688681  0.00105647
   0.51406329  0.29595613  0.63444696
   0.41558924  0.32295843  0.31634077
   0.35346094  0.36920101  0.96326179
   0.27981600  0.42326070  0.66578274
   0.21478971  0.43101840  0.33618628
   0.07521565  0.04317354  0.68544639
   0.01349745  0.09444532  0.32946477
   0.92714040  0.11944171  0.99424521
   0.86019217  0.16993822  0.64758489
   0.81383054  0.23151572  0.30585613
   0.72010431  0.23843762  0.99137417
   0.66535501  0.29210696  0.65789601
   0.57294941  0.32484466  0.33535143
   0.49019017  0.38770669  0.99189161
   0.43327228  0.41589923  0.66819270
   0.34706427  0.44076383  0.29628697
   0.28813356  0.51096793  0.99269410
   0.14951407  0.08014343  0.32264741
   0.06920774  0.10843024  0.99217877
   0.00246306  0.16443170  0.67181215
   0.94139466  0.20049531  0.33278070
   0.85602840  0.24064672  0.00185710
   0.77892061  0.29240198  0.64557733
   0.71637757  0.34070405  0.34303874
   0.63705059  0.36884438  0.00047602
   0.58029146  0.41343069  0.67042652
   0.49107419  0.44462170  0.29675768
   0.43044187  0.50908423  0.99390290
   0.35887845  0.54371041  0.68347933
   0.20921407  0.11850700  0.01349148
   0.13524861  0.17798780  0.64719603
   0.07554327  0.19401335  0.34519666
   0.99595296  0.24152427  0.99688877
   0.92794655  0.27924008  0.67556037
   0.86126900  0.33819009  0.33370985
   0.79441000  0.37029489  0.99313703
   0.71640404  0.40956549  0.65336442
   0.64001794  0.45553615  0.34648500
   0.58147137  0.49904913  0.00127244
   0.49353702  0.54478122  0.64356794
   0.44267756  0.57149704  0.33074726
   0.28205670  0.16701108  0.65113488
   0.20329705  0.20065376  0.33032439
   0.15455115  0.24618979  0.98933670
   0.07032481  0.29073901  0.66162212
   0.01360506  0.33251182  0.31416978
   0.93474096  0.36505922  0.97603911
   0.86115682  0.40765689  0.65405690
   0.79711382  0.45530924  0.33389351
   0.71004185  0.48622886  0.97614274
   0.63890027  0.53931352  0.67026826
   0.57215330  0.57882035  0.33417889
   0.49873475  0.62316999  0.01591669
   0.33859577  0.19501092  0.31958272
   0.28541825  0.25252524  0.99275827
   0.19834454  0.30029288  0.66295865
   0.14197257  0.31426853  0.30332741
   0.06539308  0.36823020  0.98290147
   0.99163384  0.42368721  0.64975316
   0.95630555  0.46249330  0.30667031
   0.86292136  0.47733988  0.96715596
   0.78728259  0.54565387  0.66980209
   0.72342477  0.58833915  0.35043375
   0.64473111  0.61823758  0.01316141
   0.57029357  0.65308934  0.68120443
   0.43038678  0.25226977  0.98207282
   0.36237225  0.30366585  0.66967596
   0.27246738  0.31208592  0.33132010
   0.21652617  0.37049726  0.00296161
   0.14735530  0.41108658  0.63861800
   0.08425231  0.43922224  0.31305598
   0.99666042  0.49983295  0.99058826
   0.93535653  0.53314584  0.65729428
   0.86274209  0.57792943  0.31305660
   0.78583135  0.63017378  0.00557523
   0.72398725  0.67157962  0.67191938
   0.64178850  0.70428255  0.33339718
   0.13921112  0.49578606  0.01099306
   0.07365806  0.54758762  0.65668866
   0.00598444  0.58802528  0.32864384
   0.94159641  0.62333800  0.00346081
   0.86567658  0.66816374  0.65855846
   0.78751162  0.69797621  0.35589984
   0.72004575  0.74827503  0.98604311
   0.21795041  0.54024515  0.65121947
   0.14601278  0.59299733  0.33836829
   0.08473417  0.62087683  0.00186849
   0.98466792  0.66552603  0.63163337
   0.91420827  0.71607003  0.34526857
   0.87279645  0.76905272  0.99512114
   0.79585555  0.79103007  0.67336357
   0.28332342  0.57351495  0.34502912
   0.21726308  0.63221649  0.99551962
   0.13955291  0.66780320  0.66712052
   0.06751524  0.70611169  0.33545477
   0.00260240  0.74839164  0.02154720
   0.93391018  0.79243489  0.67044382
   0.85778925  0.82928078  0.34575561
   0.36094238  0.62942078  0.00680830
   0.27962339  0.67198310  0.68390290
   0.21463289  0.70612394  0.33820626
   0.13775516  0.75831124  0.01365121
   0.08678400  0.79514770  0.66837533
   0.00315190  0.83037039  0.35309854
   0.93089532  0.85950621  0.00410817
   0.41995422  0.67017737  0.67551762
   0.35562079  0.71868116  0.35505103
   0.28467599  0.74823498  0.01537468
   0.21069577  0.79558546  0.68471790
   0.14114903  0.83298750  0.34615411
   0.06572459  0.87760234  0.01149887
   0.01978386  0.92700309  0.66127905
   0.92113984  0.96503532  0.35582452
   0.86027360  0.98360470  0.01800983
   0.78693133  0.04771637  0.66621827
   0.70709038  0.09825860  0.32811279
   0.62821538  0.11314226  0.00445733
   0.57692020  0.16927350  0.67891149
   0.50587967  0.19733268  0.33393927
   0.06794430  0.95702830  0.37791759
   0.14273849  0.00583784  0.01972060
   0.19299269  0.04783025  0.68054982
   0.27954040  0.07209465  0.32188698
   0.35929968  0.12618980  0.96281601
   0.44117569  0.15649594  0.66052380
   0.86643608  0.92651582  0.68735690
   0.77849683  0.96579457  0.32769518
   0.72780636  0.98637835  0.99143276
   0.65550426  0.05615934  0.68810945
   0.56520837  0.07240006  0.34178254
   0.49687832  0.12669322  0.99462435
   0.15495827  0.91201153  0.68432659
   0.20586801  0.96624158  0.34403337
   0.27726103  0.00249427  0.99897996
   0.35019608  0.04336463  0.67914000
   0.42381458  0.08717681  0.33547181
   0.79932149  0.87940212  0.00135859
   0.71429588  0.92941982  0.69663725
   0.62790720  0.94583516  0.33844118
   0.56280312  0.00467827  0.99806234
   0.50753851  0.04663250  0.66823900
   0.19923519  0.87664116  0.01245291
   0.27747702  0.91909690  0.69654263
   0.36337783  0.96278009  0.32496818
   0.42766516  0.00743408  0.01757399
   0.71607082  0.83424438  0.34264749
   0.64469325  0.87060772  0.00918901
   0.56519625  0.92017808  0.67293435
   0.48790213  0.96102384  0.31485857
   0.28779129  0.84590272  0.34260251
   0.35631585  0.87107438  0.02578473
   0.41825144  0.91183827  0.67369279
   0.64459085  0.79196450  0.68755679
   0.56056436  0.83437988  0.31834367
   0.48960690  0.88350793  0.00748013
   0.35133537  0.80563962  0.70093263
   0.42485858  0.83715078  0.34692775
   0.57827760  0.74540906  0.01413862
   0.50403756  0.80876051  0.68989657
   0.43288267  0.74961159  0.00225888
   0.49674236  0.69901265  0.33045967
   0.99340089  0.01553081  0.79519135
   0.93772300  0.01558633  0.44386328
   0.87036379  0.08818936  0.14246285
   0.77787638  0.13854399  0.78116319
   0.73756677  0.15691515  0.41576962
   0.62417719  0.22538914  0.12512368
   0.56905335  0.23069430  0.75793101
   0.51048395  0.27959518  0.42743068
   0.39979857  0.33715504  0.08165036
   0.35911901  0.37190026  0.75325854
   0.26549056  0.40014113  0.44342616
   0.19676732  0.47021750  0.10340320
   0.03222692  0.05055891  0.43605878
   0.00095244  0.08375443  0.11581187
   0.92134213  0.13568494  0.78724456
   0.87566862  0.14416909  0.43514847
   0.76965894  0.21901877  0.10963902
   0.71494858  0.23695023  0.78154938
   0.63854514  0.30066743  0.43536166
   0.54513147  0.33367860  0.12468313
   0.50310817  0.39444722  0.74659153
   0.43231889  0.40691427  0.40949288
   0.35184034  0.47440017  0.08975437
   0.27394262  0.51161139  0.77431781
   0.13407502  0.10251297  0.11350587
   0.06418007  0.11789068  0.77514136
   0.00603654  0.17552679  0.44814892
   0.91695826  0.24458159  0.09846692
   0.85458810  0.24880440  0.77092046
   0.79975933  0.27807583  0.42944901
   0.69062338  0.34540141  0.10051704
   0.63861011  0.34417729  0.75739812
   0.56431580  0.42578442  0.41554619
   0.48179751  0.45506157  0.09995143
   0.42880740  0.48665091  0.77071161
   0.37301374  0.52889716  0.45179898
   0.21362233  0.14370005  0.76565335
   0.14779214  0.16856737  0.42073375
   0.08793001  0.21823166  0.12435371
   0.99351724  0.25068578  0.77985529
   0.92107905  0.31148020  0.43915785
   0.84890843  0.35027394  0.08300461
   0.77008701  0.36984153  0.76795324
   0.71648911  0.40902082  0.44593621
   0.62821037  0.43992444  0.10871151
   0.58813119  0.50852849  0.77736120
   0.49121577  0.52601083  0.45489366
   0.41893610  0.59188841  0.12234787
   0.28840256  0.17097770  0.42588701
   0.21004862  0.22917951  0.13286848
   0.13643625  0.25436914  0.75541411
   0.08200419  0.28772677  0.44563482
   0.99417232  0.34167749  0.09982823
   0.91669378  0.40465871  0.76849222
   0.82547826  0.41853546  0.44561864
   0.77856736  0.44754547  0.10056305
   0.70865015  0.50196130  0.76422596
   0.65459581  0.53703104  0.44965584
   0.55831438  0.55402517  0.13228017
   0.49282343  0.62129708  0.78950530
   0.35845471  0.19652780  0.08459390
   0.28701322  0.25407437  0.78623833
   0.21945598  0.28342083  0.43190667
   0.14464579  0.33280286  0.09835525
   0.08463461  0.38043379  0.77030511
   0.01593424  0.41672978  0.42936691
   0.94069960  0.46438661  0.08078504
   0.85734525  0.51479924  0.77360411
   0.79004302  0.52529647  0.43188957
   0.71873815  0.58030094  0.09359795
   0.64913137  0.62691910  0.81564148
   0.58108150  0.67097879  0.45767941
   0.43691554  0.25019411  0.75230772
   0.36094941  0.28521283  0.42548559
   0.27586658  0.33934190  0.10192022
   0.20638053  0.38670939  0.78459634
   0.15645760  0.42088825  0.44589947
   0.07476075  0.49118094  0.10119409
   0.99601228  0.50826152  0.75131438
   0.93529539  0.51793775  0.46551249
   0.86436759  0.56806082  0.08675697
   0.81444596  0.63479825  0.79282700
   0.72818542  0.66704764  0.44153291
   0.63119530  0.70578764  0.12092801
   0.15130511  0.51963243  0.76416473
   0.06446629  0.53028999  0.44787865
   0.98459707  0.57699810  0.10922518
   0.91756420  0.63758817  0.76897973
   0.86480128  0.64062458  0.43407668
   0.79148261  0.69952813  0.10880866
   0.72607380  0.75859283  0.78363634
   0.22029741  0.55310649  0.47734255
   0.14447806  0.58389208  0.11017012
   0.05235589  0.63021210  0.75264516
   0.99848676  0.65503513  0.44299588
   0.92709837  0.71210342  0.12163183
   0.83894261  0.75994400  0.74743107
   0.79674463  0.79332989  0.44127207
   0.29212169  0.60496337  0.10376341
   0.20396219  0.63915277  0.78508117
   0.14266648  0.66773398  0.43504358
   0.03648780  0.70830360  0.10990300
   0.97637989  0.74187209  0.78716558
   0.92748369  0.78172572  0.45241731
   0.85618131  0.83093986  0.09508142
   0.36104747  0.61784563  0.77595842
   0.29358851  0.64180699  0.45258607
   0.22720791  0.71882591  0.12485312
   0.13501159  0.75720239  0.80068715
   0.08578737  0.80297005  0.46130039
   0.99220558  0.84203469  0.13486534
   0.91464401  0.90053496  0.79039352
   0.44702307  0.67240915  0.44814235
   0.37053396  0.69529705  0.10900805
   0.27968539  0.75185552  0.78381478
   0.23575714  0.77828637  0.46461610
   0.14056966  0.82529144  0.12288188
   0.05836093  0.87376848  0.76590993
   0.01274253  0.90035238  0.45601794
   0.93075137  0.96699280  0.10545870
   0.83907467  0.00538429  0.81586437
   0.79178551  0.01174958  0.44196514
   0.69852382  0.08575859  0.11150654
   0.65033501  0.11999862  0.77760830
   0.57591377  0.16236404  0.43262290
   0.48586393  0.21025317  0.12533339
   0.07425579  0.96553050  0.15129069
   0.12199660  0.00886196  0.79905313
   0.20872454  0.04296133  0.44941840
   0.27463761  0.08841248  0.10029823
   0.35321309  0.12827116  0.77526957
   0.43365804  0.15094435  0.44952046
   0.87137476  0.91041682  0.44508617
   0.77709111  0.95914644  0.09716967
   0.70316536  0.99600033  0.79423530
   0.64972957  0.02794722  0.46103593
   0.56544435  0.09743805  0.12628155
   0.50466102  0.13431348  0.77281262
   0.15312791  0.94545124  0.47212563
   0.22569181  0.97386593  0.10952779
   0.27522331  0.03072687  0.77619617
   0.36327985  0.03596891  0.42376728
   0.42386969  0.07534433  0.11972164
   0.79142748  0.87423128  0.79670584
   0.71399716  0.91338993  0.45139734
   0.64167945  0.94781227  0.11698066
   0.57301867  0.99469140  0.78054981
   0.50723856  0.02381772  0.44951311
   0.20706678  0.90484709  0.80969769
   0.27898556  0.92967231  0.46484605
   0.33445849  0.96972677  0.10430277
   0.42561268  0.00361217  0.79077926
   0.71999021  0.81176881  0.10623456
   0.63765112  0.87673104  0.80572357
   0.57924818  0.89939231  0.43191912
   0.48720236  0.97863639  0.11021703
   0.29512222  0.81958159  0.12142022
   0.34758284  0.88262638  0.79243494
   0.44665788  0.91744940  0.43859639
   0.65573286  0.80374662  0.45125212
   0.55995985  0.84422545  0.12086801
   0.48904635  0.86941560  0.79686205
   0.34346932  0.78973392  0.47092349
   0.41509790  0.83727262  0.10035225
   0.56616736  0.76350596  0.79862563
   0.49817454  0.77261979  0.45419078
   0.42471527  0.75034368  0.79906924
   0.49849894  0.71223345  0.13160333
   0.99275776  0.97831391  0.25993827
   0.91675635  0.04686718  0.89444985
   0.88272030  0.08620193  0.55752081
   0.77876555  0.11331773  0.23405442
   0.71468973  0.17270108  0.89592811
   0.65813050  0.21848784  0.53274739
   0.57917537  0.25665907  0.23581820
   0.48606768  0.27900087  0.87242199
   0.42178776  0.34698401  0.55742830
   0.35204803  0.37451603  0.19768292
   0.28470030  0.40507967  0.87275258
   0.21164619  0.45806815  0.53897187
   0.07494120  0.03936316  0.90981807
   0.02618817  0.07892423  0.56747956
   0.92532156  0.13315387  0.22386735
   0.86618962  0.18002329  0.88000060
   0.79532761  0.21735864  0.55116116
   0.72368066  0.25218488  0.20742844
   0.64890636  0.29266580  0.88818540
   0.57377827  0.36084240  0.53127386
   0.49274641  0.39388127  0.19810375
   0.40762117  0.41785195  0.88617423
   0.34817432  0.44602816  0.57440980
   0.26892701  0.51187423  0.19467666
   0.15039788  0.06677856  0.55073510
   0.06293679  0.12202030  0.22215436
   0.00643727  0.16207087  0.87794597
   0.93008540  0.20887597  0.54740021
   0.85765666  0.23821728  0.21511593
   0.78246694  0.27861795  0.87259728
   0.72765228  0.34967272  0.53392689
   0.64098900  0.37261990  0.22391574
   0.55785533  0.41520360  0.88002655
   0.47835284  0.45554696  0.54165440
   0.42286657  0.53826764  0.17610223
   0.33915969  0.55579956  0.87960866
   0.23509568  0.13178279  0.21484186
   0.14368585  0.17262908  0.88572525
   0.08977487  0.20785521  0.53907161
   0.00444886  0.24990882  0.19923902
   0.91043207  0.28607375  0.87451249
   0.86741202  0.31926388  0.55817324
   0.78440113  0.35785389  0.20279674
   0.70638797  0.42217786  0.85182199
   0.63886846  0.47254028  0.56982764
   0.57336352  0.50384341  0.24195560
   0.48765372  0.52988250  0.87873323
   0.44149212  0.57443115  0.56668415
   0.29381844  0.18706037  0.91268761
   0.22831965  0.18868840  0.54728523
   0.14056219  0.23917913  0.21455009
   0.05928194  0.30167842  0.87274008
   0.02224196  0.32878486  0.56426863
   0.91829679  0.36677785  0.20028977
   0.83964448  0.40258876  0.84956574
   0.78214553  0.45360366  0.56426468
   0.72758766  0.50001541  0.20849476
   0.64333442  0.53364853  0.90085575
   0.57317064  0.59360142  0.56363357
   0.52101232  0.64490001  0.24606979
   0.35847996  0.20499217  0.56053491
   0.29029174  0.25631116  0.22574596
   0.19151181  0.28999837  0.90383894
   0.16616272  0.33666531  0.55169955
   0.08497789  0.36673367  0.19183054
   0.99008147  0.41390448  0.87919858
   0.92842055  0.45057128  0.56300482
   0.84273742  0.51759857  0.19888532
   0.78367364  0.52949395  0.89050981
   0.70579029  0.58045485  0.54170963
   0.64709463  0.62648268  0.22267062
   0.56161720  0.65931649  0.91527729
   0.44094580  0.25256606  0.20134713
   0.35292183  0.29911706  0.86440065
   0.26894048  0.33581189  0.55506096
   0.21621415  0.39371030  0.22015420
   0.13430376  0.42522972  0.87031948
   0.09006302  0.44091319  0.54687252
   0.99602693  0.48087401  0.19858507
   0.93074247  0.53495914  0.86041616
   0.83307693  0.57003640  0.56536441
   0.78815889  0.64102446  0.22208691
   0.73120689  0.64524902  0.90454666
   0.62875182  0.70655501  0.55715612
   0.14614634  0.49698342  0.21946066
   0.06915996  0.55872212  0.88632425
   0.98215206  0.54616039  0.53250154
   0.94986462  0.63840229  0.21394810
   0.85309155  0.65946756  0.89396757
   0.77883493  0.71770722  0.56996203
   0.72644349  0.75239101  0.21124219
   0.20263935  0.53733774  0.88849034
   0.13600394  0.58574741  0.55093694
   0.07385592  0.62823618  0.21838959
   0.98102165  0.67417976  0.87586953
   0.92109779  0.69089693  0.54378788
   0.87493641  0.75495185  0.23961766
   0.77407113  0.78016907  0.87502858
   0.30201510  0.56420637  0.55822782
   0.19628526  0.64168211  0.22769202
   0.13388459  0.66288505  0.90337267
   0.06380795  0.68833973  0.55987859
   0.00621339  0.76210631  0.23723581
   0.91990304  0.81374617  0.88267756
   0.84387991  0.84034933  0.56740570
   0.35048882  0.64721204  0.21980692
   0.28138958  0.66031725  0.89962532
   0.21324057  0.69461262  0.57317565
   0.14545159  0.75160238  0.23306328
   0.04325142  0.79008562  0.90118161
   0.98360044  0.79751645  0.55024987
   0.93467394  0.88099577  0.22098577
   0.42542809  0.66011201  0.90416592
   0.37450683  0.70819324  0.58461202
   0.28888323  0.75980823  0.25306689
   0.21131227  0.78367798  0.89699483
   0.15330278  0.81153287  0.56132377
   0.09792298  0.85815346  0.24229602
   0.98816852  0.92958881  0.90024921
   0.93624310  0.94888005  0.56956582
   0.85963198  0.00183082  0.20945775
   0.78701765  0.04758528  0.91085644
   0.72671230  0.09758664  0.55330825
   0.63423117  0.11666520  0.25470477
   0.57793734  0.17070670  0.89966221
   0.51472125  0.22859017  0.53511894
   0.07193870  0.94281206  0.57798883
   0.15227913  0.00062804  0.22820152
   0.21770478  0.04401202  0.92418952
   0.30083434  0.06642962  0.55195819
   0.36091809  0.13873225  0.21168573
   0.43446532  0.13944387  0.87241791
   0.84039925  0.92067279  0.90002213
   0.78565014  0.97320776  0.56135210
   0.71241591  0.99519529  0.21968920
   0.66687223  0.05210538  0.88964079
   0.57408137  0.08757141  0.55817467
   0.51016930  0.13306374  0.22008994
   0.12792571  0.89443270  0.90142389
   0.20710801  0.94040920  0.57728048
   0.30598633  0.98906318  0.19970241
   0.34156828  0.04139938  0.88339684
   0.42976403  0.08509050  0.55535706
   0.77496521  0.87254001  0.19099140
   0.71016645  0.90880405  0.88797483
   0.64653658  0.96036956  0.55640332
   0.56029570  0.00899503  0.21898350
   0.50637893  0.04910606  0.89076975
   0.24404681  0.88538232  0.22641086
   0.29979018  0.92188525  0.91847802
   0.36716850  0.94866445  0.55871487
   0.43654519  0.01090647  0.21110146
   0.72627679  0.80707458  0.56308217
   0.63872487  0.88247304  0.24315909
   0.57263638  0.92435365  0.90719381
   0.51379985  0.96594425  0.55093820
   0.30595247  0.82836236  0.57181199
   0.37552691  0.90444294  0.23061534
   0.43593225  0.92123834  0.91138575
   0.63484789  0.77477359  0.89332342
   0.57553358  0.83135487  0.56364784
   0.51813990  0.88021959  0.22404886
   0.35138021  0.79079312  0.92454580
   0.43170133  0.83010623  0.55761707
   0.56806591  0.75332422  0.22846326
   0.50744168  0.78311372  0.89172494
   0.43091042  0.75192248  0.21824456
   0.52213364  0.72227524  0.57413776
