 504 504   0   0
  0.2235424E+02  0.2214114E-08  0.2191405E-08  0.2322030E-08  0.5000000E-15
  1.000000000000000E-004
  CAR 
 Li                                      
      2.98042699     -3.53782371  301      0.15027056      1.00000000
     -3.538  0.0000E+00  0.0000E+00
     -3.516  0.0000E+00  0.0000E+00
     -3.494  0.0000E+00  0.0000E+00
     -3.473  0.0000E+00  0.0000E+00
     -3.451  0.0000E+00  0.0000E+00
     -3.429  0.0000E+00  0.0000E+00
     -3.407  0.5748E-13  0.1249E-14
     -3.386  0.1398E-09  0.3039E-11
     -3.364  0.1220E-06  0.2654E-08
     -3.342  0.3822E-04  0.8331E-06
     -3.321  0.4331E-02  0.9493E-04
     -3.299  0.1793E+00  0.3990E-02
     -3.277  0.2745E+01  0.6364E-01
     -3.255  0.1577E+02  0.4063E+00
     -3.234  0.3440E+02  0.1154E+01
     -3.212  0.2870E+02  0.1777E+01
     -3.190  0.9703E+01  0.1988E+01
     -3.168  0.8312E+01  0.2169E+01
     -3.147  0.3763E+02  0.2986E+01
     -3.125  0.8652E+02  0.4866E+01
     -3.103  0.9108E+02  0.6845E+01
     -3.082  0.4368E+02  0.7794E+01
     -3.060  0.1345E+02  0.8086E+01
     -3.038  0.2983E+02  0.8734E+01
     -3.016  0.7827E+02  0.1043E+02
     -2.995  0.9397E+02  0.1248E+02
     -2.973  0.5457E+02  0.1366E+02
     -2.951  0.2340E+02  0.1417E+02
     -2.929  0.3964E+02  0.1503E+02
     -2.908  0.8142E+02  0.1680E+02
     -2.886  0.1050E+03  0.1908E+02
     -2.864  0.8641E+02  0.2096E+02
     -2.843  0.4857E+02  0.2202E+02
     -2.821  0.5400E+02  0.2319E+02
     -2.799  0.1032E+03  0.2543E+02
     -2.777  0.1370E+03  0.2841E+02
     -2.756  0.1329E+03  0.3129E+02
     -2.734  0.8864E+02  0.3322E+02
     -2.712  0.4036E+02  0.3410E+02
     -2.690  0.4206E+02  0.3501E+02
     -2.669  0.7512E+02  0.3664E+02
     -2.647  0.8629E+02  0.3852E+02
     -2.625  0.6652E+02  0.3996E+02
     -2.604  0.5693E+02  0.4120E+02
     -2.582  0.7191E+02  0.4276E+02
     -2.560  0.1006E+03  0.4495E+02
     -2.538  0.1264E+03  0.4769E+02
     -2.517  0.1280E+03  0.5048E+02
     -2.495  0.1099E+03  0.5286E+02
     -2.473  0.1108E+03  0.5527E+02
     -2.451  0.1288E+03  0.5807E+02
     -2.430  0.1526E+03  0.6138E+02
     -2.408  0.1667E+03  0.6501E+02
     -2.386  0.1432E+03  0.6812E+02
     -2.365  0.8899E+02  0.7005E+02
     -2.343  0.6121E+02  0.7138E+02
     -2.321  0.6483E+02  0.7279E+02
     -2.299  0.7383E+02  0.7439E+02
     -2.278  0.6608E+02  0.7583E+02
     -2.256  0.6999E+02  0.7735E+02
     -2.234  0.1051E+03  0.7963E+02
     -2.212  0.1388E+03  0.8265E+02
     -2.191  0.1611E+03  0.8615E+02
     -2.169  0.1515E+03  0.8944E+02
     -2.147  0.1102E+03  0.9184E+02
     -2.126  0.9897E+02  0.9399E+02
     -2.104  0.1296E+03  0.9680E+02
     -2.082  0.1621E+03  0.1003E+03
     -2.060  0.1870E+03  0.1044E+03
     -2.039  0.1769E+03  0.1082E+03
     -2.017  0.1190E+03  0.1108E+03
     -1.995  0.5962E+02  0.1121E+03
     -1.973  0.6119E+02  0.1134E+03
     -1.952  0.1098E+03  0.1158E+03
     -1.930  0.1477E+03  0.1190E+03
     -1.908  0.1458E+03  0.1222E+03
     -1.887  0.1339E+03  0.1251E+03
     -1.865  0.1476E+03  0.1283E+03
     -1.843  0.1743E+03  0.1321E+03
     -1.821  0.1852E+03  0.1361E+03
     -1.800  0.1652E+03  0.1397E+03
     -1.778  0.1289E+03  0.1425E+03
     -1.756  0.1239E+03  0.1452E+03
     -1.734  0.1415E+03  0.1483E+03
     -1.713  0.1611E+03  0.1518E+03
     -1.691  0.1701E+03  0.1555E+03
     -1.669  0.1475E+03  0.1587E+03
     -1.648  0.1157E+03  0.1612E+03
     -1.626  0.1084E+03  0.1636E+03
     -1.604  0.1105E+03  0.1660E+03
     -1.582  0.1079E+03  0.1683E+03
     -1.561  0.1090E+03  0.1707E+03
     -1.539  0.1315E+03  0.1735E+03
     -1.517  0.1460E+03  0.1767E+03
     -1.495  0.1413E+03  0.1798E+03
     -1.474  0.1481E+03  0.1830E+03
     -1.452  0.1635E+03  0.1865E+03
     -1.430  0.1744E+03  0.1903E+03
     -1.409  0.1916E+03  0.1945E+03
     -1.387  0.2105E+03  0.1991E+03
     -1.365  0.2190E+03  0.2038E+03
     -1.343  0.2153E+03  0.2085E+03
     -1.322  0.1963E+03  0.2128E+03
     -1.300  0.1859E+03  0.2168E+03
     -1.278  0.1841E+03  0.2208E+03
     -1.256  0.1743E+03  0.2246E+03
     -1.235  0.1532E+03  0.2279E+03
     -1.213  0.1230E+03  0.2306E+03
     -1.191  0.1127E+03  0.2330E+03
     -1.170  0.1399E+03  0.2361E+03
     -1.148  0.1662E+03  0.2397E+03
     -1.126  0.1713E+03  0.2434E+03
     -1.104  0.1616E+03  0.2469E+03
     -1.083  0.1565E+03  0.2503E+03
     -1.061  0.1751E+03  0.2541E+03
     -1.039  0.1945E+03  0.2584E+03
     -1.017  0.1995E+03  0.2627E+03
     -0.996  0.1905E+03  0.2668E+03
     -0.974  0.1544E+03  0.2702E+03
     -0.952  0.1207E+03  0.2728E+03
     -0.931  0.1390E+03  0.2758E+03
     -0.909  0.1761E+03  0.2797E+03
     -0.887  0.1739E+03  0.2834E+03
     -0.865  0.1656E+03  0.2870E+03
     -0.844  0.1746E+03  0.2908E+03
     -0.822  0.1950E+03  0.2951E+03
     -0.800  0.2263E+03  0.3000E+03
     -0.778  0.2341E+03  0.3051E+03
     -0.757  0.2194E+03  0.3098E+03
     -0.735  0.1988E+03  0.3141E+03
     -0.713  0.1942E+03  0.3184E+03
     -0.692  0.2211E+03  0.3232E+03
     -0.670  0.2504E+03  0.3286E+03
     -0.648  0.2433E+03  0.3339E+03
     -0.626  0.2084E+03  0.3384E+03
     -0.605  0.1717E+03  0.3422E+03
     -0.583  0.1664E+03  0.3458E+03
     -0.561  0.1843E+03  0.3498E+03
     -0.539  0.1787E+03  0.3537E+03
     -0.518  0.1605E+03  0.3571E+03
     -0.496  0.1656E+03  0.3607E+03
     -0.474  0.1933E+03  0.3649E+03
     -0.453  0.2121E+03  0.3696E+03
     -0.431  0.2076E+03  0.3741E+03
     -0.409  0.1952E+03  0.3783E+03
     -0.387  0.1957E+03  0.3826E+03
     -0.366  0.2102E+03  0.3871E+03
     -0.344  0.2299E+03  0.3921E+03
     -0.322  0.2442E+03  0.3974E+03
     -0.300  0.2571E+03  0.4030E+03
     -0.279  0.2644E+03  0.4088E+03
     -0.257  0.2477E+03  0.4141E+03
     -0.235  0.2181E+03  0.4189E+03
     -0.214  0.2029E+03  0.4233E+03
     -0.192  0.2127E+03  0.4279E+03
     -0.170  0.2249E+03  0.4328E+03
     -0.148  0.2194E+03  0.4376E+03
     -0.127  0.2081E+03  0.4421E+03
     -0.105  0.2028E+03  0.4465E+03
     -0.083  0.2021E+03  0.4509E+03
     -0.061  0.2029E+03  0.4553E+03
     -0.040  0.1995E+03  0.4596E+03
     -0.018  0.1999E+03  0.4640E+03
      0.004  0.2065E+03  0.4685E+03
      0.025  0.2111E+03  0.4730E+03
      0.047  0.2178E+03  0.4778E+03
      0.069  0.2314E+03  0.4828E+03
      0.091  0.2517E+03  0.4883E+03
      0.112  0.2665E+03  0.4941E+03
      0.134  0.2641E+03  0.4998E+03
      0.156  0.2612E+03  0.5055E+03
      0.178  0.2716E+03  0.5114E+03
      0.199  0.2834E+03  0.5175E+03
      0.221  0.2963E+03  0.5240E+03
      0.243  0.2965E+03  0.5304E+03
      0.264  0.2877E+03  0.5367E+03
      0.286  0.2853E+03  0.5429E+03
      0.308  0.2817E+03  0.5490E+03
      0.330  0.2685E+03  0.5548E+03
      0.351  0.2561E+03  0.5604E+03
      0.373  0.2557E+03  0.5659E+03
      0.395  0.2654E+03  0.5717E+03
      0.417  0.2612E+03  0.5774E+03
      0.438  0.2439E+03  0.5827E+03
      0.460  0.2355E+03  0.5878E+03
      0.482  0.2314E+03  0.5928E+03
      0.503  0.2208E+03  0.5976E+03
      0.525  0.2121E+03  0.6022E+03
      0.547  0.2125E+03  0.6068E+03
      0.569  0.2075E+03  0.6113E+03
      0.590  0.2062E+03  0.6158E+03
      0.612  0.2172E+03  0.6205E+03
      0.634  0.2235E+03  0.6254E+03
      0.656  0.2213E+03  0.6302E+03
      0.677  0.2259E+03  0.6351E+03
      0.699  0.2285E+03  0.6401E+03
      0.721  0.2282E+03  0.6450E+03
      0.742  0.2443E+03  0.6503E+03
      0.764  0.2592E+03  0.6560E+03
      0.786  0.2531E+03  0.6615E+03
      0.808  0.2469E+03  0.6668E+03
      0.829  0.2436E+03  0.6721E+03
      0.851  0.2443E+03  0.6774E+03
      0.873  0.2483E+03  0.6828E+03
      0.895  0.2404E+03  0.6881E+03
      0.916  0.2371E+03  0.6932E+03
      0.938  0.2390E+03  0.6984E+03
      0.960  0.2319E+03  0.7034E+03
      0.981  0.2286E+03  0.7084E+03
      1.003  0.2332E+03  0.7135E+03
      1.025  0.2333E+03  0.7185E+03
      1.047  0.2267E+03  0.7235E+03
      1.068  0.2232E+03  0.7283E+03
      1.090  0.2258E+03  0.7332E+03
      1.112  0.2181E+03  0.7380E+03
      1.134  0.2101E+03  0.7425E+03
      1.155  0.2170E+03  0.7473E+03
      1.177  0.2243E+03  0.7521E+03
      1.199  0.2250E+03  0.7570E+03
      1.220  0.2278E+03  0.7620E+03
      1.242  0.2304E+03  0.7670E+03
      1.264  0.2289E+03  0.7719E+03
      1.286  0.2301E+03  0.7769E+03
      1.307  0.2301E+03  0.7819E+03
      1.329  0.2265E+03  0.7869E+03
      1.351  0.2289E+03  0.7918E+03
      1.373  0.2337E+03  0.7969E+03
      1.394  0.2302E+03  0.8019E+03
      1.416  0.2218E+03  0.8067E+03
      1.438  0.2280E+03  0.8117E+03
      1.460  0.2361E+03  0.8168E+03
      1.481  0.2282E+03  0.8218E+03
      1.503  0.2200E+03  0.8266E+03
      1.525  0.2194E+03  0.8313E+03
      1.546  0.2213E+03  0.8361E+03
      1.568  0.2098E+03  0.8407E+03
      1.590  0.2015E+03  0.8451E+03
      1.612  0.2071E+03  0.8496E+03
      1.633  0.2126E+03  0.8542E+03
      1.655  0.2067E+03  0.8587E+03
      1.677  0.1955E+03  0.8629E+03
      1.699  0.1980E+03  0.8672E+03
      1.720  0.1997E+03  0.8716E+03
      1.742  0.1955E+03  0.8758E+03
      1.764  0.1965E+03  0.8801E+03
      1.785  0.1921E+03  0.8843E+03
      1.807  0.1871E+03  0.8883E+03
      1.829  0.1809E+03  0.8922E+03
      1.851  0.1738E+03  0.8960E+03
      1.872  0.1729E+03  0.8998E+03
      1.894  0.1694E+03  0.9035E+03
      1.916  0.1616E+03  0.9070E+03
      1.938  0.1569E+03  0.9104E+03
      1.959  0.1576E+03  0.9138E+03
      1.981  0.1657E+03  0.9174E+03
      2.003  0.1728E+03  0.9212E+03
      2.024  0.1711E+03  0.9249E+03
      2.046  0.1618E+03  0.9284E+03
      2.068  0.1580E+03  0.9318E+03
      2.090  0.1707E+03  0.9355E+03
      2.111  0.1765E+03  0.9394E+03
      2.133  0.1563E+03  0.9428E+03
      2.155  0.1385E+03  0.9458E+03
      2.177  0.1397E+03  0.9488E+03
      2.198  0.1409E+03  0.9519E+03
      2.220  0.1376E+03  0.9549E+03
      2.242  0.1434E+03  0.9580E+03
      2.263  0.1530E+03  0.9613E+03
      2.285  0.1540E+03  0.9646E+03
      2.307  0.1518E+03  0.9679E+03
      2.329  0.1498E+03  0.9712E+03
      2.350  0.1487E+03  0.9744E+03
      2.372  0.1446E+03  0.9776E+03
      2.394  0.1380E+03  0.9806E+03
      2.416  0.1439E+03  0.9837E+03
      2.437  0.1436E+03  0.9868E+03
      2.459  0.1320E+03  0.9897E+03
      2.481  0.1220E+03  0.9923E+03
      2.502  0.1102E+03  0.9947E+03
      2.524  0.1071E+03  0.9971E+03
      2.546  0.1021E+03  0.9993E+03
      2.568  0.9254E+02  0.1001E+04
      2.589  0.8719E+02  0.1003E+04
      2.611  0.8007E+02  0.1005E+04
      2.633  0.7154E+02  0.1006E+04
      2.655  0.6706E+02  0.1008E+04
      2.676  0.5518E+02  0.1009E+04
      2.698  0.3006E+02  0.1010E+04
      2.720  0.8811E+01  0.1010E+04
      2.741  0.1188E+01  0.1010E+04
      2.763  0.6643E-01  0.1010E+04
      2.785  0.1451E-02  0.1010E+04
      2.807  0.1195E-04  0.1010E+04
      2.828  0.3632E-07  0.1010E+04
      2.850  0.4017E-10  0.1010E+04
      2.872  0.1533E-13  0.1010E+04
      2.894  0.0000E+00  0.1010E+04
      2.915  0.0000E+00  0.1010E+04
      2.937  0.0000E+00  0.1010E+04
      2.959  0.0000E+00  0.1010E+04
      2.980  0.0000E+00  0.1010E+04
