 running on   64 total cores
 distrk:  each k-point on   32 cores,    2 groups
 distr:  one band on   32 cores,    1 groups
 vasp.6.2.1 16May21 (build Nov 23 2021 15:40:41) complex                        
  
 POSCAR found type information on POSCAR Li
 POSCAR found :  1 types and     504 ions
 scaLAPACK will be used
 -----------------------------------------------------------------------------
|                                                                             |
|           W    W    AA    RRRRR   N    N  II  N    N   GGGG   !!!           |
|           W    W   A  A   R    R  NN   N  II  NN   N  G    G  !!!           |
|           W    W  A    A  R    R  N N  N  II  N N  N  G       !!!           |
|           W WW W  AAAAAA  RRRRR   N  N N  II  N  N N  G  GGG   !            |
|           WW  WW  A    A  R   R   N   NN  II  N   NN  G    G                |
|           W    W  A    A  R    R  N    N  II  N    N   GGGG   !!!           |
|                                                                             |
|     For optimal performance we recommend to set                             |
|       NCORE = 2 up to number-of-cores-per-socket                            |
|     NCORE specifies how many cores store one orbital (NPAR=cpu/NCORE).      |
|     This setting can greatly improve the performance of VASP for DFT.       |
|     The default, NCORE=1 might be grossly inefficient on modern             |
|     multi-core architectures or massively parallel machines. Do your        |
|     own testing! More info at https://www.vasp.at/wiki/index.php/NCORE      |
|     Unfortunately you need to use the default for GW and RPA                |
|     calculations (for HF NCORE is supported but not extensively tested      |
|     yet).                                                                   |
|                                                                             |
 -----------------------------------------------------------------------------

 -----------------------------------------------------------------------------
|                                                                             |
|               ----> ADVICE to this user running VASP <----                  |
|                                                                             |
|     You have a (more or less) 'large supercell' and for larger cells it     |
|     might be more efficient to use real-space projection operators.         |
|     Therefore, try LREAL= Auto in the INCAR file.                           |
|     Mind: If you want to do very accurate calculations, keep the            |
|     reciprocal projection scheme (i.e. LREAL=.FALSE.).                      |
|                                                                             |
 -----------------------------------------------------------------------------

 LDA part: xc-table for Pade appr. of Perdew
 POSCAR found type information on POSCAR Li
 POSCAR found :  1 types and     504 ions
 POSCAR, INCAR and KPOINTS ok, starting setup
 FFT: planning ...
 WAVECAR not read
 entering main loop
       N       E                     dE             d eps       ncg     rms          rms(c)
DAV:   1    -0.305710457823E+03   -0.30571E+03   -0.11897E+05  4040   0.647E+02
DAV:   2    -0.879317837746E+03   -0.57361E+03   -0.52476E+03  4644   0.647E+01
DAV:   3    -0.921332638868E+03   -0.42015E+02   -0.38510E+02  5216   0.138E+01
DAV:   4    -0.922822816088E+03   -0.14902E+01   -0.14664E+01  4768   0.283E+00
DAV:   5    -0.922858543180E+03   -0.35727E-01   -0.35653E-01  4904   0.461E-01    0.942E+00
DAV:   6    -0.918972588883E+03    0.38860E+01   -0.10724E+01  4736   0.440E+00    0.762E+00
DAV:   7    -0.912279717268E+03    0.66929E+01   -0.98252E+00  4896   0.440E+00    0.494E+00
DAV:   8    -0.909812727762E+03    0.24670E+01   -0.55668E+00  4696   0.240E+00    0.284E+00
DAV:   9    -0.909452676659E+03    0.36005E+00   -0.27523E+00  4720   0.173E+00    0.212E+00
DAV:  10    -0.909002280308E+03    0.45040E+00   -0.13676E+00  4672   0.112E+00    0.117E+00
DAV:  11    -0.908934941531E+03    0.67339E-01   -0.44530E-01  4392   0.530E-01    0.621E-01
DAV:  12    -0.908959224438E+03   -0.24283E-01   -0.95040E-02  5072   0.348E-01    0.587E-01
DAV:  13    -0.908920799713E+03    0.38425E-01   -0.50310E-02  4920   0.264E-01    0.287E-01
DAV:  14    -0.908921402918E+03   -0.60320E-03   -0.16315E-02  4664   0.138E-01    0.200E-01
DAV:  15    -0.908918295142E+03    0.31078E-02   -0.91014E-03  4680   0.109E-01    0.119E-01
DAV:  16    -0.908917156135E+03    0.11390E-02   -0.29524E-03  4600   0.579E-02    0.605E-02
DAV:  17    -0.908917065106E+03    0.91029E-04   -0.10373E-03  4464   0.306E-02    0.360E-02
DAV:  18    -0.908917001000E+03    0.64106E-04   -0.36212E-04  4760   0.208E-02    0.257E-02
DAV:  19    -0.908916935592E+03    0.65408E-04   -0.11603E-04  4568   0.117E-02    0.123E-02
DAV:  20    -0.908916923790E+03    0.11802E-04   -0.48365E-05  4488   0.671E-03    0.659E-03
DAV:  21    -0.908916923859E+03   -0.69082E-07   -0.13080E-05  2736   0.427E-03
   1 F= -.90891692E+03 E0= -.90885790E+03  d E =-.118049E+00
