 432 432   0   0
  0.1857636E+02  0.2002080E-08  0.2002080E-08  0.2002080E-08  0.5000000E-15
  1.000000000000000E-004
  CAR 
 Li                                      
      4.12715697     -3.33730001  301      0.65491791      1.00000000
     -3.337  0.0000E+00  0.0000E+00
     -3.312  0.0000E+00  0.0000E+00
     -3.288  0.0000E+00  0.0000E+00
     -3.263  0.0000E+00  0.0000E+00
     -3.238  0.0000E+00  0.0000E+00
     -3.213  0.0000E+00  0.0000E+00
     -3.188  0.0000E+00  0.0000E+00
     -3.163  0.2744E-12  0.6828E-14
     -3.138  0.1499E-08  0.3731E-10
     -3.113  0.2122E-05  0.5284E-07
     -3.088  0.7886E-03  0.1967E-04
     -3.064  0.7814E-01  0.1964E-02
     -3.039  0.2112E+01  0.5452E-01
     -3.014  0.1603E+02  0.4534E+00
     -2.989  0.3514E+02  0.1328E+01
     -2.964  0.2258E+02  0.1890E+01
     -2.939  0.4271E+01  0.1996E+01
     -2.914  0.2311E+01  0.2053E+01
     -2.889  0.2323E+02  0.2631E+01
     -2.865  0.8191E+02  0.4669E+01
     -2.840  0.9420E+02  0.7013E+01
     -2.815  0.3532E+02  0.7892E+01
     -2.790  0.4606E+01  0.8007E+01
     -2.765  0.8442E+01  0.8217E+01
     -2.740  0.5134E+02  0.9494E+01
     -2.715  0.1017E+03  0.1202E+02
     -2.690  0.6520E+02  0.1365E+02
     -2.665  0.1346E+02  0.1398E+02
     -2.641  0.4417E+01  0.1409E+02
     -2.616  0.3484E+02  0.1496E+02
     -2.591  0.1111E+03  0.1772E+02
     -2.566  0.1210E+03  0.2073E+02
     -2.541  0.4511E+02  0.2186E+02
     -2.516  0.6952E+01  0.2203E+02
     -2.491  0.2212E+02  0.2258E+02
     -2.466  0.1092E+03  0.2530E+02
     -2.442  0.1906E+03  0.3004E+02
     -2.417  0.1254E+03  0.3316E+02
     -2.392  0.3111E+02  0.3393E+02
     -2.367  0.5463E+01  0.3407E+02
     -2.342  0.2727E+02  0.3475E+02
     -2.317  0.8564E+02  0.3688E+02
     -2.292  0.9018E+02  0.3912E+02
     -2.267  0.3161E+02  0.3991E+02
     -2.243  0.5420E+01  0.4004E+02
     -2.218  0.2517E+02  0.4067E+02
     -2.193  0.1137E+03  0.4350E+02
     -2.168  0.1901E+03  0.4823E+02
     -2.143  0.1209E+03  0.5124E+02
     -2.118  0.2908E+02  0.5196E+02
     -2.093  0.1656E+02  0.5237E+02
     -2.068  0.9385E+02  0.5471E+02
     -2.043  0.2314E+03  0.6046E+02
     -2.019  0.2437E+03  0.6653E+02
     -1.994  0.1150E+03  0.6939E+02
     -1.969  0.2342E+02  0.6997E+02
     -1.944  0.1155E+02  0.7026E+02
     -1.919  0.5358E+02  0.7159E+02
     -1.894  0.9932E+02  0.7406E+02
     -1.869  0.6342E+02  0.7564E+02
     -1.844  0.1448E+02  0.7600E+02
     -1.820  0.1683E+02  0.7642E+02
     -1.795  0.9025E+02  0.7867E+02
     -1.770  0.1993E+03  0.8363E+02
     -1.745  0.1812E+03  0.8813E+02
     -1.720  0.6605E+02  0.8978E+02
     -1.695  0.1334E+02  0.9011E+02
     -1.670  0.4447E+02  0.9122E+02
     -1.645  0.1619E+03  0.9524E+02
     -1.620  0.2570E+03  0.1016E+03
     -1.596  0.1875E+03  0.1063E+03
     -1.571  0.6038E+02  0.1078E+03
     -1.546  0.1265E+02  0.1081E+03
     -1.521  0.4454E+02  0.1092E+03
     -1.496  0.1418E+03  0.1128E+03
     -1.471  0.1801E+03  0.1172E+03
     -1.446  0.9238E+02  0.1195E+03
     -1.421  0.2619E+02  0.1202E+03
     -1.397  0.6550E+02  0.1218E+03
     -1.372  0.1948E+03  0.1267E+03
     -1.347  0.2603E+03  0.1331E+03
     -1.322  0.1547E+03  0.1370E+03
     -1.297  0.3876E+02  0.1380E+03
     -1.272  0.2663E+02  0.1386E+03
     -1.247  0.1264E+03  0.1418E+03
     -1.222  0.2593E+03  0.1482E+03
     -1.197  0.2212E+03  0.1537E+03
     -1.173  0.8007E+02  0.1557E+03
     -1.148  0.1510E+02  0.1561E+03
     -1.123  0.3662E+02  0.1570E+03
     -1.098  0.1264E+03  0.1601E+03
     -1.073  0.1803E+03  0.1646E+03
     -1.048  0.1077E+03  0.1673E+03
     -1.023  0.2614E+02  0.1680E+03
     -0.998  0.1281E+02  0.1683E+03
     -0.974  0.6278E+02  0.1698E+03
     -0.949  0.1379E+03  0.1733E+03
     -0.924  0.1537E+03  0.1771E+03
     -0.899  0.9809E+02  0.1795E+03
     -0.874  0.7238E+02  0.1813E+03
     -0.849  0.1768E+03  0.1857E+03
     -0.824  0.2887E+03  0.1929E+03
     -0.799  0.3149E+03  0.2008E+03
     -0.775  0.2452E+03  0.2069E+03
     -0.750  0.1103E+03  0.2096E+03
     -0.725  0.7163E+02  0.2114E+03
     -0.700  0.1745E+03  0.2157E+03
     -0.675  0.2301E+03  0.2215E+03
     -0.650  0.1638E+03  0.2255E+03
     -0.625  0.7828E+02  0.2275E+03
     -0.600  0.2788E+02  0.2282E+03
     -0.575  0.5988E+02  0.2297E+03
     -0.551  0.1660E+03  0.2338E+03
     -0.526  0.2038E+03  0.2389E+03
     -0.501  0.1046E+03  0.2415E+03
     -0.476  0.3277E+02  0.2423E+03
     -0.451  0.8859E+02  0.2445E+03
     -0.426  0.2404E+03  0.2505E+03
     -0.401  0.3108E+03  0.2582E+03
     -0.376  0.2254E+03  0.2638E+03
     -0.352  0.1206E+03  0.2668E+03
     -0.327  0.1033E+03  0.2694E+03
     -0.302  0.7856E+02  0.2713E+03
     -0.277  0.2462E+02  0.2719E+03
     -0.252  0.9453E+01  0.2722E+03
     -0.227  0.5471E+02  0.2735E+03
     -0.202  0.1733E+03  0.2779E+03
     -0.177  0.2653E+03  0.2845E+03
     -0.152  0.2474E+03  0.2906E+03
     -0.128  0.1650E+03  0.2947E+03
     -0.103  0.1080E+03  0.2974E+03
     -0.078  0.1463E+03  0.3010E+03
     -0.053  0.1956E+03  0.3059E+03
     -0.028  0.2237E+03  0.3115E+03
     -0.003  0.2265E+03  0.3171E+03
      0.022  0.2146E+03  0.3224E+03
      0.047  0.2132E+03  0.3278E+03
      0.071  0.1550E+03  0.3316E+03
      0.096  0.1108E+03  0.3344E+03
      0.121  0.1071E+03  0.3370E+03
      0.146  0.1068E+03  0.3397E+03
      0.171  0.1266E+03  0.3428E+03
      0.196  0.1455E+03  0.3465E+03
      0.221  0.2179E+03  0.3519E+03
      0.246  0.2950E+03  0.3592E+03
      0.271  0.3269E+03  0.3674E+03
      0.295  0.2905E+03  0.3746E+03
      0.320  0.1676E+03  0.3788E+03
      0.345  0.7350E+02  0.3806E+03
      0.370  0.1164E+03  0.3835E+03
      0.395  0.2125E+03  0.3888E+03
      0.420  0.2543E+03  0.3951E+03
      0.445  0.2171E+03  0.4005E+03
      0.470  0.1163E+03  0.4034E+03
      0.494  0.6166E+02  0.4049E+03
      0.519  0.9920E+02  0.4074E+03
      0.544  0.1524E+03  0.4112E+03
      0.569  0.2079E+03  0.4164E+03
      0.594  0.2174E+03  0.4218E+03
      0.619  0.1698E+03  0.4260E+03
      0.644  0.1577E+03  0.4299E+03
      0.669  0.2011E+03  0.4349E+03
      0.694  0.2459E+03  0.4410E+03
      0.718  0.2493E+03  0.4472E+03
      0.743  0.2295E+03  0.4530E+03
      0.768  0.1925E+03  0.4577E+03
      0.793  0.1671E+03  0.4619E+03
      0.818  0.1581E+03  0.4658E+03
      0.843  0.1426E+03  0.4694E+03
      0.868  0.1493E+03  0.4731E+03
      0.893  0.1815E+03  0.4776E+03
      0.917  0.2049E+03  0.4827E+03
      0.942  0.2195E+03  0.4882E+03
      0.967  0.2415E+03  0.4942E+03
      0.992  0.2648E+03  0.5008E+03
      1.017  0.2787E+03  0.5077E+03
      1.042  0.2889E+03  0.5149E+03
      1.067  0.2867E+03  0.5220E+03
      1.092  0.2500E+03  0.5283E+03
      1.116  0.2108E+03  0.5335E+03
      1.141  0.2119E+03  0.5388E+03
      1.166  0.2289E+03  0.5445E+03
      1.191  0.2361E+03  0.5503E+03
      1.216  0.2390E+03  0.5563E+03
      1.241  0.2332E+03  0.5621E+03
      1.266  0.2195E+03  0.5675E+03
      1.291  0.1984E+03  0.5725E+03
      1.316  0.2046E+03  0.5776E+03
      1.340  0.2422E+03  0.5836E+03
      1.365  0.2634E+03  0.5902E+03
      1.390  0.2619E+03  0.5967E+03
      1.415  0.2451E+03  0.6028E+03
      1.440  0.2303E+03  0.6085E+03
      1.465  0.2156E+03  0.6139E+03
      1.490  0.1945E+03  0.6187E+03
      1.515  0.1703E+03  0.6229E+03
      1.539  0.1722E+03  0.6272E+03
      1.564  0.1979E+03  0.6322E+03
      1.589  0.2070E+03  0.6373E+03
      1.614  0.1893E+03  0.6420E+03
      1.639  0.1723E+03  0.6463E+03
      1.664  0.1377E+03  0.6497E+03
      1.689  0.7381E+02  0.6516E+03
      1.714  0.4005E+02  0.6526E+03
      1.739  0.8480E+02  0.6547E+03
      1.763  0.1487E+03  0.6584E+03
      1.788  0.1430E+03  0.6619E+03
      1.813  0.1007E+03  0.6644E+03
      1.838  0.1158E+03  0.6673E+03
      1.863  0.1643E+03  0.6714E+03
      1.888  0.2005E+03  0.6764E+03
      1.913  0.2202E+03  0.6819E+03
      1.938  0.2069E+03  0.6870E+03
      1.962  0.1595E+03  0.6910E+03
      1.987  0.9411E+02  0.6933E+03
      2.012  0.6295E+02  0.6949E+03
      2.037  0.1139E+03  0.6977E+03
      2.062  0.1665E+03  0.7019E+03
      2.087  0.1693E+03  0.7061E+03
      2.112  0.1656E+03  0.7102E+03
      2.137  0.1717E+03  0.7145E+03
      2.162  0.1867E+03  0.7191E+03
      2.186  0.1856E+03  0.7237E+03
      2.211  0.1804E+03  0.7282E+03
      2.236  0.1957E+03  0.7331E+03
      2.261  0.2116E+03  0.7384E+03
      2.286  0.2116E+03  0.7436E+03
      2.311  0.1850E+03  0.7482E+03
      2.336  0.1353E+03  0.7516E+03
      2.361  0.1124E+03  0.7544E+03
      2.385  0.1415E+03  0.7579E+03
      2.410  0.1773E+03  0.7623E+03
      2.435  0.1683E+03  0.7665E+03
      2.460  0.1482E+03  0.7702E+03
      2.485  0.1540E+03  0.7740E+03
      2.510  0.1496E+03  0.7778E+03
      2.535  0.1257E+03  0.7809E+03
      2.560  0.8895E+02  0.7831E+03
      2.585  0.5317E+02  0.7844E+03
      2.609  0.6987E+02  0.7862E+03
      2.634  0.1035E+03  0.7887E+03
      2.659  0.1133E+03  0.7916E+03
      2.684  0.1021E+03  0.7941E+03
      2.709  0.5954E+02  0.7956E+03
      2.734  0.1536E+02  0.7960E+03
      2.759  0.1861E+01  0.7960E+03
      2.784  0.8448E+01  0.7962E+03
      2.808  0.4927E+02  0.7974E+03
      2.833  0.9756E+02  0.7999E+03
      2.858  0.6769E+02  0.8016E+03
      2.883  0.1639E+02  0.8020E+03
      2.908  0.1329E+01  0.8020E+03
      2.933  0.3571E-01  0.8020E+03
      2.958  0.1101E+00  0.8020E+03
      2.983  0.2000E+01  0.8021E+03
      3.007  0.1130E+02  0.8023E+03
      3.032  0.2723E+02  0.8030E+03
      3.057  0.5946E+02  0.8045E+03
      3.082  0.1080E+03  0.8072E+03
      3.107  0.1260E+03  0.8103E+03
      3.132  0.1119E+03  0.8131E+03
      3.157  0.9035E+02  0.8153E+03
      3.182  0.7635E+02  0.8172E+03
      3.207  0.6272E+02  0.8188E+03
      3.231  0.7081E+02  0.8206E+03
      3.256  0.9961E+02  0.8230E+03
      3.281  0.1165E+03  0.8259E+03
      3.306  0.1285E+03  0.8291E+03
      3.331  0.1447E+03  0.8327E+03
      3.356  0.1518E+03  0.8365E+03
      3.381  0.1389E+03  0.8400E+03
      3.406  0.1028E+03  0.8425E+03
      3.430  0.8194E+02  0.8446E+03
      3.455  0.6984E+02  0.8463E+03
      3.480  0.4747E+02  0.8475E+03
      3.505  0.2152E+02  0.8480E+03
      3.530  0.1806E+02  0.8485E+03
      3.555  0.3270E+02  0.8493E+03
      3.580  0.5010E+02  0.8505E+03
      3.605  0.5348E+02  0.8519E+03
      3.630  0.6160E+02  0.8534E+03
      3.654  0.9063E+02  0.8557E+03
      3.679  0.1017E+03  0.8582E+03
      3.704  0.9214E+02  0.8605E+03
      3.729  0.5935E+02  0.8620E+03
      3.754  0.4833E+02  0.8632E+03
      3.779  0.5913E+02  0.8646E+03
      3.804  0.4171E+02  0.8657E+03
      3.829  0.1218E+02  0.8660E+03
      3.853  0.1254E+01  0.8660E+03
      3.878  0.4014E-01  0.8660E+03
      3.903  0.3692E-03  0.8660E+03
      3.928  0.9299E-06  0.8660E+03
      3.953  0.6243E-09  0.8660E+03
      3.978  0.1093E-12  0.8660E+03
      4.003  0.0000E+00  0.8660E+03
      4.028  0.0000E+00  0.8660E+03
      4.053  0.0000E+00  0.8660E+03
      4.077  0.0000E+00  0.8660E+03
      4.102  0.0000E+00  0.8660E+03
      4.127  0.0000E+00  0.8660E+03
