 running on   64 total cores
 distrk:  each k-point on   32 cores,    2 groups
 distr:  one band on   32 cores,    1 groups
 vasp.6.2.1 16May21 (build Nov 23 2021 15:40:41) complex                        
  
 POSCAR found type information on POSCAR Li
 POSCAR found :  1 types and     432 ions
 scaLAPACK will be used
 -----------------------------------------------------------------------------
|                                                                             |
|           W    W    AA    RRRRR   N    N  II  N    N   GGGG   !!!           |
|           W    W   A  A   R    R  NN   N  II  NN   N  G    G  !!!           |
|           W    W  A    A  R    R  N N  N  II  N N  N  G       !!!           |
|           W WW W  AAAAAA  RRRRR   N  N N  II  N  N N  G  GGG   !            |
|           WW  WW  A    A  R   R   N   NN  II  N   NN  G    G                |
|           W    W  A    A  R    R  N    N  II  N    N   GGGG   !!!           |
|                                                                             |
|     For optimal performance we recommend to set                             |
|       NCORE = 2 up to number-of-cores-per-socket                            |
|     NCORE specifies how many cores store one orbital (NPAR=cpu/NCORE).      |
|     This setting can greatly improve the performance of VASP for DFT.       |
|     The default, NCORE=1 might be grossly inefficient on modern             |
|     multi-core architectures or massively parallel machines. Do your        |
|     own testing! More info at https://www.vasp.at/wiki/index.php/NCORE      |
|     Unfortunately you need to use the default for GW and RPA                |
|     calculations (for HF NCORE is supported but not extensively tested      |
|     yet).                                                                   |
|                                                                             |
 -----------------------------------------------------------------------------

 -----------------------------------------------------------------------------
|                                                                             |
|               ----> ADVICE to this user running VASP <----                  |
|                                                                             |
|     You have a (more or less) 'large supercell' and for larger cells it     |
|     might be more efficient to use real-space projection operators.         |
|     Therefore, try LREAL= Auto in the INCAR file.                           |
|     Mind: If you want to do very accurate calculations, keep the            |
|     reciprocal projection scheme (i.e. LREAL=.FALSE.).                      |
|                                                                             |
 -----------------------------------------------------------------------------

 LDA part: xc-table for Pade appr. of Perdew
 POSCAR found type information on POSCAR Li
 POSCAR found :  1 types and     432 ions
 POSCAR, INCAR and KPOINTS ok, starting setup
 FFT: planning ...
 WAVECAR not read
 entering main loop
       N       E                     dE             d eps       ncg     rms          rms(c)
DAV:   1    -0.235901852808E+03   -0.23590E+03   -0.10723E+05  3464   0.664E+02
DAV:   2    -0.769443095996E+03   -0.53354E+03   -0.48797E+03  3980   0.696E+01
DAV:   3    -0.805346125849E+03   -0.35903E+02   -0.32650E+02  4304   0.143E+01
DAV:   4    -0.806477694005E+03   -0.11316E+01   -0.11166E+01  3888   0.280E+00
DAV:   5    -0.806502146949E+03   -0.24453E-01   -0.24428E-01  4040   0.440E-01    0.671E+00
DAV:   6    -0.805179144294E+03    0.13230E+01   -0.52564E+00  3912   0.360E+00    0.568E+00
DAV:   7    -0.801200477747E+03    0.39787E+01   -0.41816E+00  3976   0.316E+00    0.324E+00
DAV:   8    -0.800199714884E+03    0.10008E+01   -0.19011E+00  3864   0.149E+00    0.180E+00
DAV:   9    -0.799997715173E+03    0.20200E+00   -0.10422E+00  3752   0.850E-01    0.100E+00
DAV:  10    -0.799969850179E+03    0.27865E-01   -0.18714E-01  3832   0.428E-01    0.629E-01
DAV:  11    -0.799949804275E+03    0.20046E-01   -0.51051E-02  3872   0.304E-01    0.436E-01
DAV:  12    -0.799936601662E+03    0.13203E-01   -0.13334E-02  3888   0.150E-01    0.164E-01
DAV:  13    -0.799936453349E+03    0.14831E-03   -0.65086E-03  3832   0.834E-02    0.875E-02
DAV:  14    -0.799936290466E+03    0.16288E-03   -0.18620E-03  3832   0.532E-02    0.623E-02
DAV:  15    -0.799935892907E+03    0.39756E-03   -0.54739E-04  3840   0.314E-02    0.334E-02
DAV:  16    -0.799935754002E+03    0.13891E-03   -0.27768E-04  3696   0.147E-02    0.107E-02
DAV:  17    -0.799935750733E+03    0.32691E-05   -0.44075E-05  3928   0.835E-03
   1 F= -.79993575E+03 E0= -.79989115E+03  d E =-.892070E-01
