Li                                      
           1
    20.020800    0.000000    0.000000
     0.000000   20.020800    0.000000
     0.000000    0.000000   20.020800
   Li
   432
Direct configuration=     1
   0.02796288  0.99392544  0.99893296
   0.92497418  0.07411884  0.05680018
   0.83233380  0.17844845  0.16431090
   0.74743416  0.24526707  0.25008606
   0.68060163  0.33578468  0.34569252
   0.58212564  0.41322884  0.43221128
   0.51220184  0.51805581  0.51280819
   0.41885032  0.59544987  0.58580748
   0.33571546  0.67115890  0.67078606
   0.25260265  0.75823881  0.73839225
   0.17616806  0.83538712  0.82775675
   0.08487849  0.90423818  0.90828408
   0.09430103  0.92329093  0.09261522
   0.00806782  0.99650914  0.17435784
   0.93137573  0.08623500  0.24078082
   0.84912700  0.17410799  0.32369966
   0.76039392  0.25331691  0.41820283
   0.67051329  0.33896814  0.50950636
   0.57427225  0.41443387  0.59735968
   0.49055452  0.50690943  0.66299904
   0.41107018  0.59458886  0.75101439
   0.33150376  0.67331074  0.82452045
   0.25236666  0.76434414  0.92275635
   0.17780432  0.84284711  0.02605425
   0.17156754  0.85083903  0.18120474
   0.07418220  0.91836302  0.27225677
   0.98973470  0.00632593  0.33073830
   0.90996047  0.08951905  0.42515979
   0.83019795  0.17296164  0.51780682
   0.74514325  0.25954151  0.59397401
   0.66926816  0.32818073  0.67595948
   0.56571578  0.40439521  0.74373813
   0.49539312  0.50301441  0.81998075
   0.40681199  0.59417660  0.90323469
   0.32744632  0.66052109  0.00556945
   0.26068524  0.74730833  0.07846483
   0.25565565  0.76256079  0.25762734
   0.16322645  0.83331590  0.34335086
   0.06006206  0.91434640  0.41953950
   0.99072319  0.99503654  0.49452947
   0.92271161  0.08938068  0.58083859
   0.85082224  0.16226955  0.66715806
   0.77178005  0.23925990  0.74964015
   0.66543122  0.32875034  0.83258449
   0.57548968  0.41755405  0.93519783
   0.49402468  0.51106228  0.00703240
   0.39847699  0.58290785  0.09620336
   0.33024288  0.67215475  0.16746131
   0.31526652  0.67794076  0.32960055
   0.24577349  0.74591835  0.41979902
   0.15676102  0.83078509  0.49125834
   0.06697714  0.90110345  0.58001177
   0.00082404  0.98196552  0.65212854
   0.92018149  0.06509942  0.73233827
   0.83901771  0.15666175  0.82816912
   0.74279460  0.24680539  0.91623040
   0.64835505  0.33695569  0.00348429
   0.57697195  0.40495914  0.08534088
   0.50486374  0.50297493  0.15429101
   0.40851907  0.58373408  0.25411354
   0.41047941  0.60204149  0.41801321
   0.32666184  0.67940032  0.49921551
   0.23879786  0.76481224  0.59457588
   0.14705941  0.83689611  0.66516088
   0.06729375  0.90450538  0.74478897
   0.98267650  0.99107988  0.82893785
   0.93001133  0.08217825  0.92163809
   0.83878400  0.16947033  0.00521607
   0.75259297  0.25299364  0.08880840
   0.67207690  0.32557072  0.16595065
   0.57827124  0.40954018  0.24421173
   0.50787328  0.50487620  0.35000211
   0.09759464  0.08879089  0.91276170
   0.00521667  0.17223702  0.99710370
   0.91513542  0.26708945  0.07803463
   0.83791217  0.33636502  0.17596714
   0.74064318  0.42619562  0.25051237
   0.64670848  0.50509542  0.34869851
   0.58456921  0.59314208  0.41815865
   0.50430728  0.66746167  0.50952019
   0.42377492  0.76086893  0.58614384
   0.34828572  0.84535195  0.66153990
   0.25375481  0.92842348  0.72946281
   0.16094837  0.98581506  0.82847994
   0.16343659  0.00790867  0.98565172
   0.09853559  0.09340474  0.08859638
   0.98773555  0.16182320  0.16104129
   0.92064841  0.26835458  0.24706190
   0.82666429  0.34242076  0.34049693
   0.73962353  0.41694795  0.42672209
   0.66473164  0.51399837  0.51331605
   0.59768897  0.58985822  0.58845633
   0.50446213  0.66734920  0.67849535
   0.41951875  0.76706201  0.74116340
   0.32711596  0.84185281  0.82292340
   0.25204697  0.92434479  0.90811855
   0.25607193  0.94136898  0.09827928
   0.14681486  0.99323298  0.17774872
   0.08655339  0.08791207  0.26468295
   0.00337409  0.17876920  0.33020128
   0.91138571  0.26755081  0.41598568
   0.82119417  0.34500515  0.50532286
   0.74639423  0.41964272  0.59029409
   0.66378642  0.49590518  0.67767944
   0.58953472  0.58536950  0.74911280
   0.49084282  0.67533143  0.84746506
   0.40865195  0.76311889  0.91113115
   0.33719014  0.85493406  0.99900386
   0.33271684  0.81798174  0.16463977
   0.26139052  0.91473187  0.25363402
   0.15270638  0.99082628  0.34762397
   0.07625755  0.08114845  0.40933925
   0.00006122  0.16953635  0.48519646
   0.90546016  0.26090192  0.57618848
   0.84133034  0.34337377  0.68329278
   0.75238840  0.41034668  0.75728795
   0.65800652  0.48770672  0.83351813
   0.59302249  0.58181477  0.92114392
   0.48160541  0.66775351  0.99310076
   0.40300432  0.75241308  0.07265485
   0.42187491  0.74562509  0.24833258
   0.35252119  0.83595398  0.34094907
   0.25160246  0.89499660  0.40896618
   0.15816716  0.98275017  0.49293986
   0.06653740  0.08627242  0.55940272
   0.99816900  0.16791499  0.66274756
   0.91513150  0.26036555  0.76785684
   0.83018008  0.34169581  0.84903108
   0.75231959  0.42332499  0.91101492
   0.67377977  0.49310647  0.00324512
   0.58324539  0.57815978  0.06385590
   0.48665933  0.65455521  0.15290186
   0.50668546  0.67777174  0.32994932
   0.42153398  0.74242978  0.42765989
   0.33578622  0.83359051  0.50201342
   0.25300765  0.91622245  0.59441636
   0.14527795  0.99051746  0.64907527
   0.07883664  0.07765087  0.74326525
   0.00438074  0.15886139  0.82424759
   0.92167141  0.25586026  0.91798340
   0.82524622  0.35126410  0.99445701
   0.76763937  0.41015719  0.09517815
   0.65705043  0.49600104  0.14732073
   0.57951918  0.57807574  0.23954969
   0.16843528  0.16132295  0.81171704
   0.09190147  0.24721082  0.89388571
   0.00278416  0.32075365  0.99390541
   0.91389904  0.41627043  0.07906350
   0.81864254  0.50472722  0.15406700
   0.73389865  0.57301470  0.23930658
   0.66384973  0.66267171  0.33619052
   0.60196710  0.73817021  0.43106677
   0.49932757  0.84001849  0.50072512
   0.43750928  0.91613972  0.57545952
   0.33778330  0.99902648  0.66511775
   0.24191577  0.05082214  0.74878913
   0.25259791  0.08662637  0.91945712
   0.16554747  0.17840687  0.00704823
   0.06879696  0.24246302  0.08200753
   0.00182263  0.33908059  0.16622111
   0.92232939  0.43616563  0.24845118
   0.83469367  0.49318987  0.33143833
   0.75280276  0.57822112  0.40191687
   0.67842805  0.65390262  0.51878189
   0.58272994  0.75991529  0.58210404
   0.49682641  0.84496964  0.66456333
   0.42258097  0.95008080  0.73830546
   0.33814717  0.00395988  0.84479379
   0.33538821  0.99664282  0.97819047
   0.24129503  0.06925109  0.08251663
   0.17975165  0.17639100  0.16489384
   0.09174746  0.25556448  0.24891499
   0.01103130  0.34133343  0.33173677
   0.92511875  0.41531634  0.41304474
   0.82345744  0.50540193  0.48294377
   0.76050161  0.56598842  0.59628681
   0.68784742  0.66157850  0.67399467
   0.58088110  0.74774191  0.74141225
   0.50619157  0.83223388  0.82096661
   0.42929503  0.91627444  0.89249294
   0.41895895  0.92025305  0.08402005
   0.33166456  0.01074772  0.16632050
   0.23936796  0.06630327  0.25343318
   0.16340432  0.16681240  0.32706242
   0.08650247  0.25140725  0.41168122
   0.01037383  0.33428786  0.49337054
   0.92123448  0.43168650  0.57269599
   0.84540578  0.49769770  0.67447494
   0.75135382  0.56952997  0.76506426
   0.65965623  0.67931874  0.82797259
   0.57810090  0.75757278  0.92391532
   0.49347837  0.84483209  0.98926473
   0.50169948  0.82259837  0.16418679
   0.42123011  0.91623294  0.26556783
   0.33858034  0.00555033  0.34010440
   0.23751004  0.08488347  0.42136331
   0.16660514  0.17162042  0.48491426
   0.09162704  0.25680283  0.57552758
   0.99789067  0.35087067  0.66735207
   0.92147816  0.43517090  0.75377954
   0.84670174  0.49904455  0.84222136
   0.72657639  0.58061926  0.91182013
   0.65841832  0.67439054  0.99411316
   0.57895787  0.74263865  0.06591899
   0.58830455  0.73833733  0.24970740
   0.50831688  0.82478263  0.33939437
   0.42660740  0.93200646  0.42657092
   0.35319677  0.99166136  0.49833007
   0.22736647  0.07326467  0.57600369
   0.16897457  0.15281654  0.67189721
   0.07947904  0.24282614  0.74334464
   0.00139813  0.33381144  0.82853127
   0.92720625  0.42754757  0.92415575
   0.81630964  0.49833963  0.00965815
   0.73559209  0.58251162  0.08757113
   0.64954025  0.66383719  0.16488540
   0.26090368  0.25019149  0.74419827
   0.17854663  0.32255864  0.81296236
   0.09251803  0.41589220  0.90573661
   0.01480890  0.49799395  0.01348234
   0.91243776  0.57884885  0.08027142
   0.82347440  0.66453491  0.16261033
   0.74464316  0.73023911  0.24590661
   0.66834747  0.82433014  0.32902254
   0.58075281  0.91886478  0.41201048
   0.51085631  0.01694416  0.49152542
   0.40781241  0.09575218  0.57823569
   0.32341437  0.15097855  0.66441732
   0.33713404  0.15896793  0.81702667
   0.25127630  0.25335963  0.90313902
   0.16816135  0.33247047  0.98489823
   0.09759072  0.40177361  0.07231893
   0.00846915  0.50781770  0.16495569
   0.89507648  0.58312688  0.24507885
   0.83519695  0.66032246  0.33120279
   0.74953377  0.73127287  0.43277874
   0.66707110  0.83379956  0.49405430
   0.59537709  0.91066198  0.57189323
   0.51082929  0.01414072  0.64660708
   0.41574616  0.07846344  0.74834972
   0.42581049  0.08755902  0.91773508
   0.32970326  0.15888464  0.00992698
   0.25233716  0.26123593  0.07690437
   0.18192257  0.33638985  0.15992464
   0.08768012  0.41630813  0.24322976
   0.00536699  0.50927135  0.33125050
   0.92845056  0.59099408  0.42860594
   0.81116983  0.65023935  0.51002213
   0.74591493  0.74415687  0.59014141
   0.67364726  0.83010938  0.66072510
   0.57913024  0.93272850  0.75190354
   0.50896593  0.02237759  0.83847160
   0.50993192  0.99493485  0.99442355
   0.42077400  0.09119658  0.07879834
   0.31607806  0.15792035  0.17852271
   0.24539889  0.25446298  0.25219495
   0.17920539  0.34190037  0.33167700
   0.08325708  0.42569483  0.40449369
   0.99663886  0.49692201  0.49750921
   0.90534059  0.57575775  0.59054888
   0.82101915  0.66730761  0.67377390
   0.74474783  0.73097189  0.74245307
   0.64485447  0.82186863  0.83066733
   0.56813693  0.92199235  0.90908767
   0.59510084  0.91952451  0.09184864
   0.49229623  0.00289268  0.16739132
   0.42961296  0.07833921  0.24840893
   0.33569515  0.16415769  0.32052126
   0.25038165  0.25336727  0.42564280
   0.16785576  0.33470950  0.49283397
   0.08813127  0.41073427  0.58607433
   0.00253325  0.50943937  0.67900412
   0.90702384  0.59021500  0.77562915
   0.82242505  0.65683812  0.84444852
   0.74911722  0.75913437  0.91102902
   0.66172981  0.82893423  0.98703402
   0.66034828  0.82037855  0.17351341
   0.59503838  0.91490237  0.24833975
   0.50554226  0.00677136  0.32701858
   0.42271653  0.10076650  0.41220887
   0.31784380  0.16326532  0.49908822
   0.23665957  0.24507276  0.58283179
   0.17972127  0.34170925  0.65988258
   0.07860992  0.42300347  0.74775233
   0.99659587  0.50192593  0.84469118
   0.90991318  0.58402751  0.92520929
   0.82015291  0.65438444  0.00052116
   0.74264257  0.75663775  0.08795176
   0.32407885  0.31465759  0.65676082
   0.26224312  0.42153795  0.74067858
   0.16202809  0.50274903  0.81885518
   0.07971115  0.58158399  0.90832248
   0.00736442  0.67232905  0.01483331
   0.90587922  0.75320062  0.07809003
   0.82906449  0.83051018  0.17042279
   0.73884155  0.91045523  0.24431862
   0.68247964  0.00587025  0.31789322
   0.60026869  0.08173051  0.41987173
   0.50391721  0.17963512  0.49972228
   0.41216587  0.22951806  0.58970154
   0.41489958  0.23569827  0.75436707
   0.35735463  0.34039274  0.83009565
   0.24351842  0.41468732  0.91312600
   0.17537071  0.50216968  0.99908114
   0.09755566  0.59722178  0.07932395
   0.99779901  0.66922900  0.16324944
   0.92377501  0.74776736  0.24814105
   0.81658681  0.80755497  0.33124435
   0.74795444  0.91515839  0.40801442
   0.66436008  0.01244157  0.51008283
   0.57637797  0.09390800  0.58017449
   0.51174535  0.15901761  0.67263722
   0.50775362  0.15902159  0.83832960
   0.41331547  0.23069355  0.92593411
   0.34373267  0.32656270  0.98826081
   0.25828739  0.39974451  0.08864292
   0.16917275  0.47875974  0.17349367
   0.07947686  0.58080909  0.24095833
   0.99926496  0.66173654  0.31965509
   0.90095791  0.73503641  0.42576364
   0.82047951  0.83732575  0.49698724
   0.74848230  0.91629148  0.58131132
   0.66020404  0.99122496  0.66192727
   0.58248448  0.08768316  0.75644289
   0.60987482  0.08282712  0.91284390
   0.50133973  0.15165818  0.99118713
   0.40813374  0.24135167  0.08351055
   0.34993219  0.32049782  0.18583776
   0.26639913  0.41489461  0.25567544
   0.17572776  0.49877454  0.32115862
   0.08421559  0.59096614  0.43221259
   0.98428510  0.67217059  0.50406860
   0.89220005  0.74395145  0.57610664
   0.83240733  0.82895972  0.67099794
   0.75637857  0.91214315  0.75278531
   0.67785910  0.99033533  0.82243914
   0.67384698  0.97986825  0.99639897
   0.58881308  0.07494660  0.08088382
   0.50765602  0.16246019  0.16690148
   0.43520131  0.23188917  0.25652265
   0.34997042  0.33040854  0.33193529
   0.27633365  0.42574223  0.40802984
   0.17046633  0.50555598  0.51046174
   0.09297867  0.57343134  0.57430477
   0.99319388  0.66016485  0.65715847
   0.90931094  0.73676432  0.74902106
   0.83721557  0.81782082  0.83114622
   0.75092650  0.90409681  0.90315088
   0.74408479  0.91108903  0.08902077
   0.68112720  0.00655365  0.18000837
   0.58523514  0.09104947  0.24657272
   0.51093212  0.17335144  0.34540190
   0.42658993  0.23890356  0.42014759
   0.34168162  0.33057299  0.50292952
   0.24235092  0.40918250  0.56997583
   0.16169554  0.50129273  0.66625691
   0.08778908  0.59335727  0.74254936
   0.99789985  0.66046341  0.83814140
   0.91086736  0.75069227  0.92986841
   0.82978822  0.83413821  0.01238507
   0.42012937  0.42641005  0.58872621
   0.32388477  0.49314811  0.67365194
   0.26206695  0.57553635  0.74283702
   0.17129757  0.67761565  0.82915949
   0.08654119  0.75440411  0.91806604
   0.00637235  0.83949752  0.01329874
   0.91483854  0.93592123  0.07523126
   0.83685852  0.00132673  0.17448857
   0.75333664  0.10016498  0.25591201
   0.67233853  0.17816650  0.34800261
   0.58870283  0.24974881  0.41626520
   0.48733996  0.32325591  0.51129106
   0.47772758  0.32636745  0.67284390
   0.41069491  0.42377715  0.75173979
   0.33418138  0.49947956  0.83577215
   0.24234259  0.58241085  0.91740429
   0.16785930  0.66443460  0.99764166
   0.09648717  0.76149250  0.08420653
   0.00191257  0.82735993  0.15397825
   0.91817018  0.90710949  0.24928888
   0.83941315  0.00869879  0.32910345
   0.75842488  0.09118485  0.42049990
   0.66985994  0.18074237  0.50444829
   0.57299067  0.23930775  0.59633135
   0.57193824  0.25344649  0.74243721
   0.51022283  0.32711787  0.84179936
   0.42782144  0.41163079  0.91653621
   0.33330044  0.49262927  0.99867945
   0.26245318  0.58347493  0.09732460
   0.18124710  0.65932268  0.17553882
   0.08839092  0.74705307  0.23618639
   0.98422196  0.81253265  0.33232575
   0.90977848  0.90154961  0.40800074
   0.83138420  0.00499659  0.50347833
   0.73686890  0.08635993  0.59642939
   0.66520033  0.16272944  0.67913387
   0.66696807  0.17708184  0.81974319
   0.58547342  0.24525438  0.91662753
   0.49331551  0.31740543  0.00595142
   0.40660861  0.40961639  0.09582477
   0.33645832  0.49814444  0.16984052
   0.25147076  0.57113895  0.24810092
   0.16366408  0.65877168  0.33495622
   0.07179711  0.74182034  0.42040283
   0.98561373  0.81813607  0.49639602
   0.90536650  0.91818794  0.57635153
   0.82310145  0.00705073  0.66140810
   0.75807046  0.08040563  0.75070039
   0.75733781  0.08257851  0.90740886
   0.67583593  0.15830919  0.00835221
   0.57846240  0.24452213  0.08551156
   0.50124314  0.32082075  0.16894314
   0.42900240  0.41551344  0.26198522
   0.34610311  0.51389594  0.32618503
   0.25109015  0.57905291  0.42243478
   0.17552158  0.66287983  0.51732863
   0.07203586  0.74982384  0.57382242
   0.97407794  0.81207124  0.66112260
   0.90600526  0.92025609  0.73500218
   0.83825662  0.98390901  0.83567741
   0.82038906  0.99724478  0.99910112
   0.75026629  0.08517781  0.09254500
   0.66757216  0.16213317  0.16671717
   0.59622976  0.26729184  0.26086212
   0.50190265  0.33942739  0.35115810
   0.41734916  0.43677728  0.43767602
   0.33724182  0.50644287  0.50206868
   0.25852232  0.59098340  0.58667044
   0.16036371  0.67523180  0.68723514
   0.05954698  0.76238342  0.75960281
   0.97794132  0.83351654  0.83768652
   0.90712946  0.91487323  0.91572147
