 500 500   0   0
  0.2029568E+02  0.2165000E-08  0.2165000E-08  0.2165000E-08  0.5000000E-15
  1.000000000000000E-004
  CAR 
 Li                                      
      3.34595369     -3.42539889  301      0.38533277      1.00000000
     -3.425  0.0000E+00  0.0000E+00
     -3.403  0.0000E+00  0.0000E+00
     -3.380  0.0000E+00  0.0000E+00
     -3.358  0.0000E+00  0.0000E+00
     -3.335  0.0000E+00  0.0000E+00
     -3.313  0.0000E+00  0.0000E+00
     -3.290  0.1968E-13  0.4441E-15
     -3.267  0.7132E-10  0.1610E-11
     -3.245  0.8701E-07  0.1966E-08
     -3.222  0.3513E-04  0.7949E-06
     -3.200  0.4735E-02  0.1077E-03
     -3.177  0.2157E+00  0.4976E-02
     -3.155  0.3371E+01  0.8106E-01
     -3.132  0.1839E+02  0.4961E+00
     -3.109  0.3555E+02  0.1299E+01
     -3.087  0.2455E+02  0.1853E+01
     -3.064  0.6667E+01  0.2003E+01
     -3.042  0.9293E+01  0.2213E+01
     -3.019  0.4521E+02  0.3233E+01
     -2.997  0.9395E+02  0.5354E+01
     -2.974  0.8207E+02  0.7206E+01
     -2.951  0.3064E+02  0.7898E+01
     -2.929  0.1004E+02  0.8125E+01
     -2.906  0.3403E+02  0.8893E+01
     -2.884  0.8454E+02  0.1080E+02
     -2.861  0.9079E+02  0.1285E+02
     -2.839  0.4281E+02  0.1382E+02
     -2.816  0.1489E+02  0.1415E+02
     -2.793  0.3585E+02  0.1496E+02
     -2.771  0.9027E+02  0.1700E+02
     -2.748  0.1177E+03  0.1966E+02
     -2.726  0.7759E+02  0.2141E+02
     -2.703  0.2979E+02  0.2208E+02
     -2.681  0.3842E+02  0.2295E+02
     -2.658  0.1021E+03  0.2525E+02
     -2.635  0.1609E+03  0.2888E+02
     -2.613  0.1421E+03  0.3209E+02
     -2.590  0.6765E+02  0.3362E+02
     -2.568  0.2467E+02  0.3417E+02
     -2.545  0.4552E+02  0.3520E+02
     -2.523  0.9125E+02  0.3726E+02
     -2.500  0.8329E+02  0.3914E+02
     -2.477  0.3436E+02  0.3992E+02
     -2.455  0.2209E+02  0.4041E+02
     -2.432  0.6936E+02  0.4198E+02
     -2.410  0.1367E+03  0.4507E+02
     -2.387  0.1561E+03  0.4859E+02
     -2.365  0.1080E+03  0.5103E+02
     -2.342  0.5856E+02  0.5235E+02
     -2.319  0.8797E+02  0.5434E+02
     -2.297  0.1656E+03  0.5807E+02
     -2.274  0.2070E+03  0.6275E+02
     -2.252  0.1787E+03  0.6678E+02
     -2.229  0.1029E+03  0.6910E+02
     -2.207  0.4325E+02  0.7008E+02
     -2.184  0.4758E+02  0.7115E+02
     -2.161  0.8546E+02  0.7308E+02
     -2.139  0.8296E+02  0.7496E+02
     -2.116  0.4398E+02  0.7595E+02
     -2.094  0.4142E+02  0.7688E+02
     -2.071  0.9996E+02  0.7914E+02
     -2.049  0.1667E+03  0.8290E+02
     -2.026  0.1686E+03  0.8671E+02
     -2.003  0.1060E+03  0.8910E+02
     -1.981  0.5812E+02  0.9041E+02
     -1.958  0.9648E+02  0.9259E+02
     -1.936  0.1823E+03  0.9671E+02
     -1.913  0.2134E+03  0.1015E+03
     -1.891  0.1674E+03  0.1053E+03
     -1.868  0.9153E+02  0.1074E+03
     -1.845  0.5309E+02  0.1086E+03
     -1.823  0.9734E+02  0.1108E+03
     -1.800  0.1578E+03  0.1143E+03
     -1.778  0.1462E+03  0.1176E+03
     -1.755  0.9362E+02  0.1197E+03
     -1.733  0.8800E+02  0.1217E+03
     -1.710  0.1460E+03  0.1250E+03
     -1.687  0.1898E+03  0.1293E+03
     -1.665  0.1842E+03  0.1335E+03
     -1.642  0.1358E+03  0.1365E+03
     -1.620  0.8132E+02  0.1384E+03
     -1.597  0.1093E+03  0.1408E+03
     -1.575  0.1946E+03  0.1452E+03
     -1.552  0.2163E+03  0.1501E+03
     -1.529  0.1585E+03  0.1537E+03
     -1.507  0.8487E+02  0.1556E+03
     -1.484  0.6629E+02  0.1571E+03
     -1.462  0.1175E+03  0.1597E+03
     -1.439  0.1544E+03  0.1632E+03
     -1.417  0.1300E+03  0.1662E+03
     -1.394  0.8051E+02  0.1680E+03
     -1.371  0.7779E+02  0.1697E+03
     -1.349  0.1213E+03  0.1725E+03
     -1.326  0.1396E+03  0.1756E+03
     -1.304  0.1158E+03  0.1782E+03
     -1.281  0.9133E+02  0.1803E+03
     -1.259  0.1307E+03  0.1832E+03
     -1.236  0.2231E+03  0.1883E+03
     -1.213  0.2809E+03  0.1946E+03
     -1.191  0.2751E+03  0.2008E+03
     -1.168  0.2220E+03  0.2058E+03
     -1.146  0.1600E+03  0.2095E+03
     -1.123  0.1554E+03  0.2130E+03
     -1.101  0.1942E+03  0.2173E+03
     -1.078  0.1980E+03  0.2218E+03
     -1.055  0.1557E+03  0.2253E+03
     -1.033  0.9927E+02  0.2276E+03
     -1.010  0.8270E+02  0.2294E+03
     -0.988  0.1287E+03  0.2323E+03
     -0.965  0.1720E+03  0.2362E+03
     -0.943  0.1654E+03  0.2400E+03
     -0.920  0.1474E+03  0.2433E+03
     -0.897  0.1758E+03  0.2473E+03
     -0.875  0.2146E+03  0.2521E+03
     -0.852  0.2247E+03  0.2572E+03
     -0.830  0.2005E+03  0.2617E+03
     -0.807  0.1344E+03  0.2647E+03
     -0.785  0.6975E+02  0.2663E+03
     -0.762  0.6677E+02  0.2678E+03
     -0.739  0.8680E+02  0.2698E+03
     -0.717  0.8021E+02  0.2716E+03
     -0.694  0.9115E+02  0.2736E+03
     -0.672  0.1639E+03  0.2773E+03
     -0.649  0.2394E+03  0.2827E+03
     -0.627  0.2698E+03  0.2888E+03
     -0.604  0.2654E+03  0.2948E+03
     -0.581  0.2467E+03  0.3004E+03
     -0.559  0.2259E+03  0.3055E+03
     -0.536  0.2165E+03  0.3104E+03
     -0.514  0.2329E+03  0.3156E+03
     -0.491  0.2521E+03  0.3213E+03
     -0.469  0.2443E+03  0.3268E+03
     -0.446  0.2098E+03  0.3316E+03
     -0.423  0.1616E+03  0.3352E+03
     -0.401  0.1340E+03  0.3382E+03
     -0.378  0.1382E+03  0.3414E+03
     -0.356  0.1433E+03  0.3446E+03
     -0.333  0.1584E+03  0.3482E+03
     -0.311  0.1904E+03  0.3525E+03
     -0.288  0.2049E+03  0.3571E+03
     -0.265  0.1937E+03  0.3615E+03
     -0.243  0.1655E+03  0.3652E+03
     -0.220  0.1551E+03  0.3687E+03
     -0.198  0.1930E+03  0.3731E+03
     -0.175  0.2430E+03  0.3785E+03
     -0.153  0.2621E+03  0.3845E+03
     -0.130  0.2475E+03  0.3900E+03
     -0.107  0.2277E+03  0.3952E+03
     -0.085  0.2139E+03  0.4000E+03
     -0.062  0.2100E+03  0.4048E+03
     -0.040  0.2028E+03  0.4093E+03
     -0.017  0.1730E+03  0.4132E+03
      0.005  0.1466E+03  0.4165E+03
      0.028  0.1676E+03  0.4203E+03
      0.051  0.2131E+03  0.4251E+03
      0.073  0.2316E+03  0.4304E+03
      0.096  0.2302E+03  0.4356E+03
      0.118  0.2204E+03  0.4405E+03
      0.141  0.2150E+03  0.4454E+03
      0.163  0.2169E+03  0.4503E+03
      0.186  0.2102E+03  0.4550E+03
      0.209  0.2057E+03  0.4597E+03
      0.231  0.2078E+03  0.4644E+03
      0.254  0.2043E+03  0.4690E+03
      0.276  0.2177E+03  0.4739E+03
      0.299  0.2362E+03  0.4792E+03
      0.321  0.2370E+03  0.4846E+03
      0.344  0.2333E+03  0.4898E+03
      0.367  0.2418E+03  0.4953E+03
      0.389  0.2507E+03  0.5009E+03
      0.412  0.2382E+03  0.5063E+03
      0.434  0.2159E+03  0.5112E+03
      0.457  0.2171E+03  0.5161E+03
      0.479  0.2388E+03  0.5215E+03
      0.502  0.2593E+03  0.5273E+03
      0.525  0.2742E+03  0.5335E+03
      0.547  0.2773E+03  0.5398E+03
      0.570  0.2773E+03  0.5460E+03
      0.592  0.2877E+03  0.5525E+03
      0.615  0.2917E+03  0.5591E+03
      0.637  0.2829E+03  0.5655E+03
      0.660  0.2711E+03  0.5716E+03
      0.683  0.2605E+03  0.5775E+03
      0.705  0.2463E+03  0.5831E+03
      0.728  0.2263E+03  0.5882E+03
      0.750  0.2021E+03  0.5927E+03
      0.773  0.1908E+03  0.5970E+03
      0.795  0.1951E+03  0.6014E+03
      0.818  0.1914E+03  0.6058E+03
      0.841  0.1997E+03  0.6103E+03
      0.863  0.2117E+03  0.6150E+03
      0.886  0.2128E+03  0.6199E+03
      0.908  0.2150E+03  0.6247E+03
      0.931  0.2129E+03  0.6295E+03
      0.953  0.1935E+03  0.6339E+03
      0.976  0.1822E+03  0.6380E+03
      0.999  0.1997E+03  0.6425E+03
      1.021  0.2142E+03  0.6473E+03
      1.044  0.2215E+03  0.6523E+03
      1.066  0.2326E+03  0.6576E+03
      1.089  0.2348E+03  0.6629E+03
      1.111  0.2321E+03  0.6681E+03
      1.134  0.2412E+03  0.6736E+03
      1.157  0.2477E+03  0.6792E+03
      1.179  0.2372E+03  0.6845E+03
      1.202  0.2285E+03  0.6897E+03
      1.224  0.2277E+03  0.6948E+03
      1.247  0.2204E+03  0.6998E+03
      1.269  0.2188E+03  0.7047E+03
      1.292  0.2274E+03  0.7099E+03
      1.315  0.2284E+03  0.7150E+03
      1.337  0.2140E+03  0.7198E+03
      1.360  0.2045E+03  0.7245E+03
      1.382  0.1996E+03  0.7290E+03
      1.405  0.1979E+03  0.7334E+03
      1.427  0.2060E+03  0.7381E+03
      1.450  0.2181E+03  0.7430E+03
      1.473  0.2146E+03  0.7478E+03
      1.495  0.1959E+03  0.7523E+03
      1.518  0.1914E+03  0.7566E+03
      1.540  0.1970E+03  0.7610E+03
      1.563  0.1969E+03  0.7655E+03
      1.585  0.1817E+03  0.7696E+03
      1.608  0.1622E+03  0.7732E+03
      1.631  0.1515E+03  0.7767E+03
      1.653  0.1552E+03  0.7802E+03
      1.676  0.1570E+03  0.7837E+03
      1.698  0.1518E+03  0.7871E+03
      1.721  0.1507E+03  0.7905E+03
      1.743  0.1556E+03  0.7940E+03
      1.766  0.1749E+03  0.7980E+03
      1.789  0.1867E+03  0.8022E+03
      1.811  0.1832E+03  0.8063E+03
      1.834  0.1792E+03  0.8104E+03
      1.856  0.1783E+03  0.8144E+03
      1.879  0.1942E+03  0.8188E+03
      1.901  0.2068E+03  0.8235E+03
      1.924  0.2021E+03  0.8280E+03
      1.947  0.1948E+03  0.8324E+03
      1.969  0.1973E+03  0.8369E+03
      1.992  0.2002E+03  0.8414E+03
      2.014  0.1897E+03  0.8457E+03
      2.037  0.1752E+03  0.8496E+03
      2.059  0.1618E+03  0.8533E+03
      2.082  0.1521E+03  0.8567E+03
      2.105  0.1448E+03  0.8600E+03
      2.127  0.1402E+03  0.8631E+03
      2.150  0.1409E+03  0.8663E+03
      2.172  0.1516E+03  0.8698E+03
      2.195  0.1583E+03  0.8733E+03
      2.217  0.1550E+03  0.8768E+03
      2.240  0.1514E+03  0.8802E+03
      2.263  0.1511E+03  0.8837E+03
      2.285  0.1564E+03  0.8872E+03
      2.308  0.1618E+03  0.8908E+03
      2.330  0.1606E+03  0.8945E+03
      2.353  0.1509E+03  0.8979E+03
      2.375  0.1425E+03  0.9011E+03
      2.398  0.1454E+03  0.9044E+03
      2.421  0.1488E+03  0.9077E+03
      2.443  0.1537E+03  0.9112E+03
      2.466  0.1604E+03  0.9148E+03
      2.488  0.1612E+03  0.9184E+03
      2.511  0.1610E+03  0.9221E+03
      2.533  0.1563E+03  0.9256E+03
      2.556  0.1480E+03  0.9290E+03
      2.579  0.1511E+03  0.9324E+03
      2.601  0.1617E+03  0.9360E+03
      2.624  0.1589E+03  0.9396E+03
      2.646  0.1439E+03  0.9428E+03
      2.669  0.1375E+03  0.9459E+03
      2.691  0.1514E+03  0.9494E+03
      2.714  0.1673E+03  0.9531E+03
      2.737  0.1653E+03  0.9569E+03
      2.759  0.1647E+03  0.9606E+03
      2.782  0.1661E+03  0.9643E+03
      2.804  0.1586E+03  0.9679E+03
      2.827  0.1604E+03  0.9715E+03
      2.849  0.1697E+03  0.9754E+03
      2.872  0.1654E+03  0.9791E+03
      2.895  0.1567E+03  0.9826E+03
      2.917  0.1431E+03  0.9859E+03
      2.940  0.1262E+03  0.9887E+03
      2.962  0.1267E+03  0.9916E+03
      2.985  0.1309E+03  0.9945E+03
      3.007  0.1285E+03  0.9974E+03
      3.030  0.1140E+03  0.1000E+04
      3.053  0.6634E+02  0.1002E+04
      3.075  0.1930E+02  0.1002E+04
      3.098  0.2444E+01  0.1002E+04
      3.120  0.1230E+00  0.1002E+04
      3.143  0.2307E-02  0.1002E+04
      3.165  0.1537E-04  0.1002E+04
      3.188  0.3526E-07  0.1002E+04
      3.211  0.2727E-10  0.1002E+04
      3.233  0.7378E-14  0.1002E+04
      3.256  0.0000E+00  0.1002E+04
      3.278  0.0000E+00  0.1002E+04
      3.301  0.0000E+00  0.1002E+04
      3.323  0.0000E+00  0.1002E+04
      3.346  0.0000E+00  0.1002E+04
