Li                                      
           1
    21.650000    0.000000    0.000000
     0.000000   21.650000    0.000000
    -0.000000   -0.000000   21.650000
   Li
   500
Direct configuration=     1
   0.01719281  0.01542112  0.98349892
   0.00399112  0.12773058  0.08637277
   0.99826041  0.20006416  0.20772332
   0.98570573  0.28985427  0.29136391
   0.98799612  0.40345718  0.39261591
   0.97487399  0.49326670  0.49349368
   0.99973536  0.59429049  0.56398947
   0.01656887  0.70523897  0.66500922
   0.98050108  0.80802787  0.79065527
   0.01010843  0.90603088  0.90268878
   0.10365392  0.01510022  0.07006626
   0.09159135  0.10911975  0.19523653
   0.11012478  0.21419683  0.29038093
   0.08599199  0.29224340  0.39087801
   0.07719495  0.39102680  0.51932942
   0.10255143  0.52940086  0.61199948
   0.09753486  0.60788156  0.68538712
   0.08162210  0.70279786  0.80571384
   0.09450667  0.79110603  0.91585700
   0.11238434  0.91265744  0.99489996
   0.19514649  0.97743476  0.18532866
   0.19926937  0.09687157  0.29322690
   0.18940167  0.20438504  0.39161631
   0.18166996  0.30199125  0.51404799
   0.18774326  0.40975957  0.59302674
   0.19418141  0.49506542  0.71582663
   0.17484331  0.61391641  0.80280146
   0.21045726  0.69621905  0.92049785
   0.23883269  0.81170710  0.97912719
   0.19397075  0.91290073  0.08643273
   0.29563632  0.00538253  0.31390058
   0.30255788  0.11431410  0.40349325
   0.29099848  0.20778571  0.50785394
   0.30135511  0.29144166  0.59163834
   0.29656435  0.40264201  0.67647042
   0.29138118  0.50112703  0.78016214
   0.25781152  0.56986021  0.86925573
   0.30132679  0.66509242  0.02520756
   0.33088553  0.80980873  0.09431306
   0.29578938  0.89402564  0.18121871
   0.36925564  0.97447529  0.39142052
   0.38770872  0.08808956  0.49289851
   0.39635622  0.17947465  0.58834588
   0.39641692  0.29694165  0.67381779
   0.40022491  0.38371887  0.77280735
   0.41192300  0.47069063  0.88429467
   0.37836273  0.58439697  0.96466973
   0.39982324  0.70363235  0.06088094
   0.39474456  0.80206811  0.16430279
   0.38750110  0.86317680  0.28698573
   0.48206881  0.97568811  0.50532596
   0.52775252  0.08609860  0.61270376
   0.49535087  0.20329108  0.67359957
   0.50597055  0.27910185  0.77945242
   0.52798468  0.40389451  0.88862137
   0.50679801  0.48566932  0.98427784
   0.48605786  0.58648925  0.08940357
   0.49603349  0.71584369  0.16355157
   0.49658076  0.76603499  0.29363863
   0.47635165  0.86838586  0.40417896
   0.60790992  0.95284835  0.63123432
   0.62286921  0.08688095  0.70726381
   0.58967941  0.19173510  0.77953489
   0.59003941  0.30420789  0.88340281
   0.57247283  0.40739297  0.00620722
   0.59955407  0.50219662  0.11307449
   0.58142538  0.58970977  0.17701151
   0.59300096  0.68246012  0.28006030
   0.59729702  0.77055183  0.41904195
   0.59459899  0.88351189  0.51626610
   0.70426296  0.99201120  0.71341755
   0.70611405  0.09356112  0.79223041
   0.69548198  0.21495323  0.90226538
   0.66503713  0.32197832  0.02062467
   0.68195903  0.41994578  0.12176018
   0.70583018  0.51980154  0.19368594
   0.70657483  0.59922882  0.30557359
   0.67801099  0.68870111  0.42562967
   0.66706732  0.81392949  0.49998048
   0.70810972  0.87309886  0.60654933
   0.82945991  0.01133279  0.79746486
   0.80200894  0.12551209  0.91957464
   0.79628398  0.22578334  0.01970661
   0.78887767  0.29807514  0.12191050
   0.77862190  0.41303413  0.20927019
   0.79890318  0.51377507  0.33383079
   0.78129059  0.62134132  0.42443162
   0.79855501  0.69482525  0.51851599
   0.80712848  0.80337527  0.56560585
   0.82048351  0.90152381  0.68747370
   0.90339970  0.02750594  0.91584565
   0.91319104  0.11136456  0.99314046
   0.89635814  0.18988382  0.11550744
   0.88252744  0.30428316  0.21170703
   0.87448918  0.37937593  0.30430195
   0.89216694  0.48809584  0.40231456
   0.88483588  0.60921183  0.46180758
   0.92354173  0.68193201  0.58144923
   0.89907570  0.83198181  0.67151016
   0.91418935  0.93870607  0.79407465
   0.09981895  0.13920998  0.97875672
   0.09181366  0.20466064  0.09604515
   0.08607069  0.30811757  0.19505843
   0.09071981  0.36785061  0.29330204
   0.10094891  0.49700846  0.38020641
   0.12594202  0.58899261  0.47280502
   0.08843579  0.70557322  0.56375141
   0.09926470  0.80156244  0.69660445
   0.11586493  0.88855968  0.81409143
   0.10787383  0.01041202  0.90433580
   0.20723314  0.10154157  0.10462518
   0.17993670  0.20987903  0.19702765
   0.21491416  0.31376049  0.27470781
   0.18956151  0.38974153  0.39270362
   0.21425816  0.51739437  0.47857181
   0.19162818  0.61263363  0.58739049
   0.16903441  0.71514320  0.69496868
   0.19197636  0.79224121  0.82850629
   0.20788376  0.92168316  0.91211214
   0.22256436  0.02827155  0.98952774
   0.29431886  0.09989739  0.19090105
   0.31370782  0.17966140  0.28618056
   0.28425984  0.30220654  0.41462801
   0.30184578  0.41329104  0.49916474
   0.26515341  0.50896903  0.58751473
   0.27068000  0.59962649  0.70922603
   0.29334216  0.67797688  0.79327275
   0.29214734  0.79796827  0.90040854
   0.29963940  0.91910575  0.98543685
   0.30296101  0.00242291  0.11699768
   0.39967589  0.08934261  0.29387415
   0.40188329  0.20835119  0.40244040
   0.38946871  0.29222593  0.50219800
   0.40465371  0.37857640  0.57813093
   0.38617209  0.47564554  0.70050001
   0.38850477  0.59236466  0.80181797
   0.40403182  0.68439136  0.91787681
   0.40432164  0.78738883  0.99503470
   0.39595459  0.91858072  0.06723556
   0.40335808  0.99675638  0.18146681
   0.50651407  0.07885088  0.40349207
   0.51625111  0.19015118  0.51003491
   0.50062652  0.27899002  0.58728675
   0.49874131  0.37936865  0.69677136
   0.50948488  0.51565550  0.77034034
   0.54876290  0.58882574  0.88509604
   0.53092906  0.69909829  0.99521425
   0.52697310  0.81317140  0.07083979
   0.50791066  0.88238340  0.17020252
   0.48495768  0.99660218  0.30586118
   0.60209331  0.07874538  0.49836303
   0.60649787  0.18244092  0.56891448
   0.58038367  0.29508476  0.66865039
   0.59615943  0.40569812  0.78400636
   0.61605091  0.48899358  0.89426758
   0.65217607  0.59563854  0.01142407
   0.59388914  0.68936551  0.08230447
   0.58888881  0.79002757  0.17841740
   0.58570885  0.88041953  0.28298323
   0.58979421  0.99917113  0.38987787
   0.68945496  0.08940397  0.58239918
   0.69690400  0.19763063  0.68324149
   0.70685771  0.29474423  0.77720570
   0.68885667  0.38031220  0.87207077
   0.69370460  0.49695229  0.99403320
   0.70421354  0.63593925  0.11024285
   0.69459917  0.71162021  0.21592382
   0.70806700  0.81477219  0.32539529
   0.66788862  0.89840515  0.39385908
   0.71366190  0.96364267  0.47610246
   0.81022366  0.11430881  0.69848685
   0.82005464  0.20424141  0.79567212
   0.79389316  0.29573647  0.90498891
   0.77757322  0.40912339  0.01267760
   0.77278358  0.55024188  0.11195563
   0.81262725  0.61277419  0.24555586
   0.77807370  0.72665386  0.30863942
   0.78741148  0.81435111  0.41904013
   0.80588921  0.91372647  0.49638291
   0.77687764  0.98782694  0.60836589
   0.92437073  0.13556847  0.79769354
   0.91884801  0.20100387  0.91484303
   0.88705708  0.31730884  0.99651887
   0.85213027  0.42291098  0.09311360
   0.86876280  0.47308106  0.20853143
   0.89536407  0.61568664  0.31592672
   0.89824384  0.71164699  0.39238633
   0.91583235  0.80443546  0.50354007
   0.89784357  0.92212072  0.58813068
   0.91535291  0.01265808  0.72552745
   0.02387620  0.11470417  0.88829376
   0.98987184  0.23926957  0.99362963
   0.96274082  0.32541340  0.12324918
   0.97670420  0.38428500  0.17677239
   0.97304888  0.48652513  0.27133872
   0.00575621  0.59222657  0.39776402
   0.01560418  0.71387179  0.47009024
   0.00383159  0.80819585  0.60185613
   0.00975576  0.90877877  0.67819345
   0.01862740  0.99768251  0.81570217
   0.22822377  0.20151420  0.00984473
   0.18360509  0.28692544  0.10517325
   0.20429227  0.39768562  0.19021615
   0.21205581  0.48789396  0.29167311
   0.20350737  0.59806714  0.36069278
   0.20899762  0.69203173  0.50139977
   0.18880874  0.78814465  0.59870042
   0.18398490  0.88614996  0.70890498
   0.18472950  0.00462806  0.80689060
   0.22899984  0.13177686  0.86671263
   0.31533823  0.20381880  0.10734564
   0.30594168  0.29426972  0.19452116
   0.31341947  0.40650044  0.30324235
   0.29324195  0.51834512  0.38859129
   0.28132642  0.61629483  0.49391493
   0.29209603  0.68994820  0.64453980
   0.29410231  0.81185381  0.71976377
   0.29247356  0.89495033  0.80176012
   0.33322019  0.00300049  0.88216465
   0.31783970  0.08973297  0.01314125
   0.42445151  0.19617381  0.20357143
   0.38410530  0.30485797  0.30039887
   0.38969218  0.37759786  0.41046378
   0.37140053  0.48083308  0.49765185
   0.37144429  0.58689603  0.60418606
   0.39997509  0.69701236  0.74380570
   0.39833087  0.79595279  0.81945417
   0.42077232  0.86291913  0.92677615
   0.42430949  0.00388569  0.00717437
   0.40338703  0.11935098  0.10879380
   0.50918182  0.18318662  0.31426315
   0.49986899  0.29981527  0.40692873
   0.48746022  0.40673871  0.52244225
   0.48400286  0.49611061  0.60293885
   0.45774753  0.60624330  0.70441068
   0.52120398  0.70153647  0.82772473
   0.52118545  0.78878015  0.89228715
   0.51920200  0.90186502  0.99493171
   0.53333179  0.99650283  0.09104236
   0.51454233  0.07927569  0.21786169
   0.61802036  0.19935179  0.40521623
   0.61354317  0.29914217  0.51915265
   0.57951599  0.41512873  0.59151716
   0.58862979  0.50828802  0.69410067
   0.61756428  0.59838056  0.79210585
   0.62694160  0.70357673  0.90878752
   0.63976943  0.80103962  0.00268988
   0.62679527  0.91899307  0.12364135
   0.59869655  0.00147471  0.22227995
   0.61787263  0.09550151  0.32239417
   0.71776942  0.20206669  0.48559525
   0.69560943  0.30389059  0.60336453
   0.68149335  0.40988042  0.70236425
   0.69690381  0.51467058  0.77219988
   0.70782222  0.60089165  0.89251951
   0.74673387  0.69989761  0.00178557
   0.71554808  0.75802487  0.10941238
   0.69222628  0.87666053  0.21154542
   0.69017053  0.99776304  0.32008611
   0.71288723  0.07217006  0.40766494
   0.79622618  0.19025141  0.60458895
   0.81344517  0.30054808  0.68122070
   0.81454728  0.41265271  0.78315331
   0.77106634  0.51689022  0.90232032
   0.78656269  0.59619396  0.01412681
   0.79918503  0.67475389  0.11885813
   0.81011598  0.80251570  0.20098819
   0.79267466  0.88064924  0.29413480
   0.82710244  0.96281450  0.40037340
   0.83352925  0.06575981  0.46208840
   0.92541718  0.22683587  0.69820818
   0.90854012  0.28641723  0.80011615
   0.87731824  0.40221567  0.90912272
   0.86659083  0.49489316  0.99020905
   0.89002716  0.57788894  0.08667684
   0.90333731  0.69118521  0.21316568
   0.90123524  0.79781472  0.28310107
   0.93860918  0.90051439  0.40202491
   0.92018891  0.01324862  0.51653989
   0.91039152  0.08905817  0.61060438
   0.00630251  0.20110713  0.78594898
   0.01032162  0.30101361  0.89869423
   0.99839134  0.37656352  0.00287593
   0.98546886  0.50243386  0.07930677
   0.99766363  0.58745239  0.20814244
   0.01851926  0.69450287  0.29950020
   0.02651576  0.80888140  0.39054780
   0.00870147  0.91025381  0.50362416
   0.01424125  0.00742253  0.59368717
   0.04128069  0.09427051  0.69550252
   0.10016166  0.21013277  0.89161344
   0.10232998  0.29003181  0.01539221
   0.09100212  0.39274606  0.08960103
   0.08841477  0.48407070  0.18968596
   0.10033312  0.57738389  0.28674459
   0.10755821  0.68652506  0.38899147
   0.08662329  0.82507871  0.47644843
   0.09409125  0.91021160  0.57750927
   0.09347804  0.99087628  0.69769285
   0.10729160  0.11458393  0.81111821
   0.30420281  0.30435658  0.98461058
   0.32624852  0.36232843  0.10158366
   0.31851825  0.48370801  0.20473048
   0.29404131  0.61586233  0.29090607
   0.29733766  0.71258730  0.40914947
   0.30931298  0.78632725  0.54887621
   0.29302054  0.89109089  0.60515130
   0.29949847  0.99087046  0.72899929
   0.29656248  0.09248799  0.78092461
   0.29747528  0.19160645  0.86382979
   0.40512650  0.28648061  0.08301896
   0.40370400  0.38462064  0.20449653
   0.40472742  0.50667465  0.30070207
   0.38842116  0.61562966  0.39261937
   0.38116458  0.68825602  0.52334344
   0.41279925  0.81959166  0.63904924
   0.39166981  0.91342158  0.71345242
   0.39958906  0.00155475  0.81183673
   0.39833128  0.10017434  0.89168844
   0.38640867  0.18024775  0.98802699
   0.51894139  0.28671786  0.22198371
   0.50050899  0.41042190  0.32543783
   0.47735319  0.47708837  0.41219908
   0.48786846  0.60587395  0.52769566
   0.47987376  0.68340880  0.63017209
   0.49810596  0.79507966  0.73749203
   0.50440877  0.91141142  0.80353440
   0.51346958  0.00868556  0.89920937
   0.49152872  0.11098395  0.98650879
   0.48040690  0.18547163  0.09746871
   0.60501121  0.29873564  0.32713185
   0.61150496  0.40813457  0.42071974
   0.57373675  0.49799453  0.49269481
   0.58295237  0.59531503  0.63175949
   0.59058024  0.72538962  0.71452124
   0.62081040  0.80616959  0.80394021
   0.61022332  0.89350282  0.86882741
   0.62600522  0.99933028  0.98503484
   0.60398001  0.07789573  0.07717263
   0.59939911  0.17615051  0.22167889
   0.70198878  0.30326171  0.40852110
   0.70055864  0.39739666  0.51461314
   0.69404144  0.50087031  0.60226201
   0.70524195  0.61089870  0.69637329
   0.72130353  0.70884332  0.78171298
   0.71158633  0.79449751  0.87951310
   0.72765606  0.88945740  0.01038745
   0.72122925  0.99757014  0.11649983
   0.68811161  0.08163981  0.18223684
   0.71636861  0.19365914  0.29719262
   0.79619714  0.31591595  0.51444718
   0.81119038  0.40687634  0.61249791
   0.81497867  0.51849133  0.68027592
   0.81808249  0.61368655  0.79363689
   0.81428395  0.68474920  0.88968200
   0.82957650  0.78527310  0.01176442
   0.81004774  0.91478647  0.09885602
   0.81101211  0.97405475  0.20941275
   0.79204092  0.08448985  0.32777540
   0.79993518  0.20461859  0.41137418
   0.89161775  0.32728815  0.60035879
   0.91028380  0.42053926  0.70920433
   0.87825980  0.50685522  0.80290598
   0.89643176  0.61031250  0.91508421
   0.89320974  0.70285347  0.02392327
   0.90910801  0.80855456  0.10495873
   0.92047033  0.90776828  0.19772179
   0.92536473  0.98074701  0.29292310
   0.88330430  0.09673676  0.39199827
   0.86769664  0.19725358  0.49988471
   0.00051257  0.31576697  0.68376079
   0.99649726  0.39685062  0.80128369
   0.99475438  0.48406890  0.91567282
   0.00051794  0.59828121  0.00423437
   0.99079088  0.68512273  0.09943484
   0.01763405  0.79067336  0.20002002
   0.03141046  0.90227792  0.31227820
   0.00252519  0.01011819  0.40544185
   0.99258028  0.10305026  0.49795542
   0.97286187  0.19577012  0.59157720
   0.11436886  0.30314899  0.78459841
   0.12085029  0.40009205  0.91804059
   0.09532752  0.49254555  0.01013222
   0.10182122  0.59143235  0.12334431
   0.08257167  0.69871157  0.18905904
   0.11416402  0.81492892  0.30112797
   0.12773739  0.93199038  0.40241906
   0.10532440  0.01528139  0.48450867
   0.09234110  0.11411837  0.59451025
   0.09015563  0.21880929  0.68536379
   0.20119037  0.28512878  0.90435437
   0.21004008  0.37046287  0.02048134
   0.19824836  0.49640759  0.09398537
   0.19820723  0.60428101  0.19449201
   0.19232779  0.71833204  0.28487901
   0.19856274  0.79027545  0.41910159
   0.19681235  0.91444628  0.52617509
   0.19887017  0.01139098  0.62695993
   0.17937088  0.08418228  0.69036965
   0.19687640  0.20479074  0.75757624
   0.39690112  0.38489583  0.98616406
   0.38408369  0.47439501  0.08407721
   0.37987074  0.59090914  0.19248888
   0.41140751  0.73608447  0.28743366
   0.37738504  0.80254768  0.41631148
   0.38238852  0.87162316  0.50670699
   0.40850965  0.00071462  0.62995469
   0.41994857  0.09667622  0.71419585
   0.43049369  0.20842421  0.78481825
   0.41654509  0.31265092  0.89022196
   0.47143561  0.41252439  0.11525310
   0.46624157  0.49765694  0.20062166
   0.49333731  0.61970772  0.29799056
   0.47029616  0.69224522  0.41358248
   0.48426034  0.78882972  0.52196775
   0.50573109  0.89542124  0.62359119
   0.52283668  0.99793447  0.73490413
   0.50577182  0.09792480  0.80044855
   0.51203941  0.21530231  0.89446954
   0.51085793  0.32181482  0.00540651
   0.59757151  0.42789981  0.19476866
   0.59473242  0.49273032  0.32845277
   0.56886880  0.61915764  0.40524827
   0.57544794  0.69575624  0.53628332
   0.56777807  0.79370590  0.61517900
   0.59757387  0.87383252  0.72848109
   0.60563762  0.97794399  0.80597887
   0.60241402  0.10948225  0.90215283
   0.59936472  0.20231598  0.01472536
   0.56822607  0.29525035  0.13411949
   0.69670808  0.41911040  0.29618111
   0.69279361  0.51941254  0.41041127
   0.66402809  0.58929268  0.51427614
   0.69944561  0.72116423  0.61574318
   0.72229091  0.79168144  0.72405411
   0.73461039  0.89254433  0.78595249
   0.71005291  0.00923618  0.88712288
   0.72225429  0.11117353  0.01884560
   0.68041326  0.19536186  0.12258342
   0.67516655  0.28247214  0.20722314
   0.78702455  0.40793091  0.41217599
   0.79588528  0.51836932  0.52568905
   0.77799992  0.61685153  0.59175684
   0.82099016  0.71024298  0.69793157
   0.83499409  0.79283206  0.80142343
   0.81997350  0.91044192  0.91672838
   0.81813155  0.02319785  0.03592921
   0.79141054  0.10257270  0.11395181
   0.78979459  0.19389007  0.22231775
   0.77253603  0.30103329  0.30188008
   0.89397615  0.40166291  0.47924265
   0.90360627  0.50208903  0.56341299
   0.92078172  0.59244145  0.68773643
   0.92265825  0.70982238  0.77518804
   0.90897568  0.81845874  0.87495095
   0.92351555  0.92555137  0.01175926
   0.93978256  0.03027051  0.10943301
   0.89758277  0.09428047  0.21049502
   0.87683516  0.21038338  0.30579770
   0.88354515  0.30630491  0.39768935
   0.98861601  0.43022043  0.59343055
   0.99715393  0.49502999  0.69812717
   0.97636102  0.62305561  0.79632479
   0.99192242  0.71339335  0.90872541
   0.98048409  0.79118301  0.00624923
   0.00599504  0.91788446  0.08647897
   0.04018592  0.00860005  0.20193571
   0.00206687  0.10749491  0.32111180
   0.97423654  0.19942629  0.38712035
   0.97539461  0.29113088  0.49838526
   0.10694824  0.41299393  0.70465810
   0.07881255  0.50943004  0.81114433
   0.08737682  0.59219157  0.90840795
   0.09535066  0.69856929  0.01677254
   0.10567962  0.78343403  0.09337651
   0.09327024  0.89356455  0.19198228
   0.09905413  0.00690268  0.33238489
   0.10365720  0.12237325  0.40065743
   0.08719974  0.20665193  0.50072634
   0.07937761  0.29586655  0.60125606
   0.21125994  0.39862622  0.80229403
   0.18919096  0.50467016  0.91654272
   0.19441237  0.59674351  0.01617949
   0.22638645  0.72342429  0.11805038
   0.19199688  0.81146036  0.17723944
   0.18496400  0.91935716  0.27626151
   0.21614289  0.01461231  0.41692078
   0.20900206  0.09673169  0.50893391
   0.20278731  0.18911149  0.59988307
   0.21203022  0.32315728  0.68275804
   0.30908958  0.39262734  0.88199281
   0.29464899  0.47519177  0.99193247
   0.31921610  0.57993538  0.10522171
   0.31570917  0.70217096  0.18739159
   0.28760926  0.79669937  0.27868831
   0.28348422  0.90167797  0.38736661
   0.31624321  0.98629695  0.51507968
   0.31466694  0.07419492  0.61338403
   0.30059779  0.18732442  0.68411513
   0.30760423  0.28644966  0.79320436
