 504 504   0   0
  0.1922536E+02  0.2105579E-08  0.2083983E-08  0.2208205E-08  0.5000000E-15
  1.000000000000000E-004
  CAR 
 Li                                      
      3.74842377     -3.37696533  301      0.54099021      1.00000000
     -3.377  0.0000E+00  0.0000E+00
     -3.353  0.0000E+00  0.0000E+00
     -3.329  0.0000E+00  0.0000E+00
     -3.306  0.0000E+00  0.0000E+00
     -3.282  0.0000E+00  0.0000E+00
     -3.258  0.0000E+00  0.0000E+00
     -3.234  0.0000E+00  0.0000E+00
     -3.211  0.4486E-11  0.1066E-12
     -3.187  0.1153E-07  0.2739E-09
     -3.163  0.8691E-05  0.2067E-06
     -3.139  0.1941E-02  0.4630E-04
     -3.116  0.1302E+00  0.3138E-02
     -3.092  0.2672E+01  0.6661E-01
     -3.068  0.1719E+02  0.4748E+00
     -3.044  0.3535E+02  0.1315E+01
     -3.021  0.2351E+02  0.1873E+01
     -2.997  0.5601E+01  0.2006E+01
     -2.973  0.9087E+01  0.2222E+01
     -2.949  0.4716E+02  0.3342E+01
     -2.926  0.9653E+02  0.5635E+01
     -2.902  0.7559E+02  0.7430E+01
     -2.878  0.2212E+02  0.7955E+01
     -2.854  0.8800E+01  0.8165E+01
     -2.831  0.4164E+02  0.9154E+01
     -2.807  0.9435E+02  0.1139E+02
     -2.783  0.8062E+02  0.1331E+02
     -2.759  0.2783E+02  0.1397E+02
     -2.736  0.1880E+02  0.1442E+02
     -2.712  0.5358E+02  0.1569E+02
     -2.688  0.9771E+02  0.1801E+02
     -2.664  0.1047E+03  0.2050E+02
     -2.641  0.5406E+02  0.2178E+02
     -2.617  0.2840E+02  0.2246E+02
     -2.593  0.7484E+02  0.2423E+02
     -2.569  0.1394E+03  0.2754E+02
     -2.546  0.1532E+03  0.3118E+02
     -2.522  0.9216E+02  0.3337E+02
     -2.498  0.2776E+02  0.3403E+02
     -2.474  0.2822E+02  0.3470E+02
     -2.451  0.7338E+02  0.3645E+02
     -2.427  0.9189E+02  0.3863E+02
     -2.403  0.5667E+02  0.3997E+02
     -2.379  0.4300E+02  0.4099E+02
     -2.356  0.6319E+02  0.4250E+02
     -2.332  0.9536E+02  0.4476E+02
     -2.308  0.1234E+03  0.4769E+02
     -2.284  0.1211E+03  0.5057E+02
     -2.261  0.9885E+02  0.5292E+02
     -2.237  0.1025E+03  0.5535E+02
     -2.213  0.1289E+03  0.5841E+02
     -2.189  0.1724E+03  0.6251E+02
     -2.166  0.1786E+03  0.6675E+02
     -2.142  0.1151E+03  0.6948E+02
     -2.118  0.6046E+02  0.7092E+02
     -2.094  0.4384E+02  0.7196E+02
     -2.071  0.5201E+02  0.7320E+02
     -2.047  0.6994E+02  0.7486E+02
     -2.023  0.5712E+02  0.7621E+02
     -1.999  0.7319E+02  0.7795E+02
     -1.976  0.1143E+03  0.8067E+02
     -1.952  0.1430E+03  0.8406E+02
     -1.928  0.1527E+03  0.8769E+02
     -1.904  0.1274E+03  0.9072E+02
     -1.881  0.9492E+02  0.9297E+02
     -1.857  0.1041E+03  0.9544E+02
     -1.833  0.1372E+03  0.9870E+02
     -1.809  0.1871E+03  0.1031E+03
     -1.786  0.2007E+03  0.1079E+03
     -1.762  0.1280E+03  0.1110E+03
     -1.738  0.4213E+02  0.1120E+03
     -1.714  0.3027E+02  0.1127E+03
     -1.691  0.8911E+02  0.1148E+03
     -1.667  0.1478E+03  0.1183E+03
     -1.643  0.1378E+03  0.1216E+03
     -1.619  0.1230E+03  0.1245E+03
     -1.596  0.1438E+03  0.1279E+03
     -1.572  0.1600E+03  0.1317E+03
     -1.548  0.1783E+03  0.1359E+03
     -1.524  0.1689E+03  0.1400E+03
     -1.501  0.1189E+03  0.1428E+03
     -1.477  0.1106E+03  0.1454E+03
     -1.453  0.1348E+03  0.1486E+03
     -1.429  0.1666E+03  0.1526E+03
     -1.406  0.1718E+03  0.1566E+03
     -1.382  0.1300E+03  0.1597E+03
     -1.358  0.9030E+02  0.1619E+03
     -1.334  0.8868E+02  0.1640E+03
     -1.311  0.1057E+03  0.1665E+03
     -1.287  0.9982E+02  0.1689E+03
     -1.263  0.9377E+02  0.1711E+03
     -1.239  0.1287E+03  0.1741E+03
     -1.216  0.1442E+03  0.1776E+03
     -1.192  0.1274E+03  0.1806E+03
     -1.168  0.1391E+03  0.1839E+03
     -1.144  0.1650E+03  0.1878E+03
     -1.121  0.1674E+03  0.1918E+03
     -1.097  0.1725E+03  0.1959E+03
     -1.073  0.1970E+03  0.2006E+03
     -1.049  0.2264E+03  0.2059E+03
     -1.026  0.2278E+03  0.2114E+03
     -1.002  0.2025E+03  0.2162E+03
     -0.978  0.1773E+03  0.2204E+03
     -0.954  0.1679E+03  0.2244E+03
     -0.931  0.1438E+03  0.2278E+03
     -0.907  0.1102E+03  0.2304E+03
     -0.883  0.8106E+02  0.2323E+03
     -0.859  0.1080E+03  0.2349E+03
     -0.836  0.1628E+03  0.2388E+03
     -0.812  0.1545E+03  0.2424E+03
     -0.788  0.1348E+03  0.2456E+03
     -0.764  0.1538E+03  0.2493E+03
     -0.741  0.1823E+03  0.2536E+03
     -0.717  0.2033E+03  0.2584E+03
     -0.693  0.1859E+03  0.2629E+03
     -0.669  0.1592E+03  0.2666E+03
     -0.646  0.1376E+03  0.2699E+03
     -0.622  0.1130E+03  0.2726E+03
     -0.598  0.1458E+03  0.2761E+03
     -0.574  0.1779E+03  0.2803E+03
     -0.551  0.1470E+03  0.2838E+03
     -0.527  0.1306E+03  0.2869E+03
     -0.503  0.1510E+03  0.2905E+03
     -0.479  0.1878E+03  0.2949E+03
     -0.456  0.2255E+03  0.3003E+03
     -0.432  0.2292E+03  0.3057E+03
     -0.408  0.2148E+03  0.3108E+03
     -0.384  0.1997E+03  0.3156E+03
     -0.361  0.1940E+03  0.3202E+03
     -0.337  0.2243E+03  0.3255E+03
     -0.313  0.2362E+03  0.3311E+03
     -0.289  0.2042E+03  0.3360E+03
     -0.266  0.1630E+03  0.3398E+03
     -0.242  0.1336E+03  0.3430E+03
     -0.218  0.1515E+03  0.3466E+03
     -0.194  0.1902E+03  0.3511E+03
     -0.171  0.1819E+03  0.3554E+03
     -0.147  0.1392E+03  0.3587E+03
     -0.123  0.1494E+03  0.3623E+03
     -0.099  0.1886E+03  0.3668E+03
     -0.076  0.1954E+03  0.3714E+03
     -0.052  0.1910E+03  0.3759E+03
     -0.028  0.1976E+03  0.3806E+03
     -0.004  0.1946E+03  0.3853E+03
      0.019  0.1986E+03  0.3900E+03
      0.043  0.2250E+03  0.3953E+03
      0.067  0.2599E+03  0.4015E+03
      0.091  0.2923E+03  0.4084E+03
      0.114  0.2722E+03  0.4149E+03
      0.138  0.2042E+03  0.4198E+03
      0.162  0.1716E+03  0.4238E+03
      0.186  0.1862E+03  0.4283E+03
      0.209  0.2064E+03  0.4332E+03
      0.233  0.2065E+03  0.4381E+03
      0.257  0.1929E+03  0.4426E+03
      0.281  0.1827E+03  0.4470E+03
      0.304  0.1902E+03  0.4515E+03
      0.328  0.1880E+03  0.4560E+03
      0.352  0.1805E+03  0.4602E+03
      0.376  0.1909E+03  0.4648E+03
      0.399  0.1945E+03  0.4694E+03
      0.423  0.1892E+03  0.4739E+03
      0.447  0.2050E+03  0.4788E+03
      0.471  0.2321E+03  0.4843E+03
      0.494  0.2639E+03  0.4905E+03
      0.518  0.2866E+03  0.4974E+03
      0.542  0.2921E+03  0.5043E+03
      0.566  0.2813E+03  0.5110E+03
      0.590  0.2747E+03  0.5175E+03
      0.613  0.2728E+03  0.5240E+03
      0.637  0.2720E+03  0.5304E+03
      0.661  0.2812E+03  0.5371E+03
      0.685  0.2857E+03  0.5439E+03
      0.708  0.2721E+03  0.5504E+03
      0.732  0.2590E+03  0.5565E+03
      0.756  0.2505E+03  0.5625E+03
      0.780  0.2384E+03  0.5681E+03
      0.803  0.2273E+03  0.5735E+03
      0.827  0.2250E+03  0.5789E+03
      0.851  0.2266E+03  0.5842E+03
      0.875  0.2113E+03  0.5893E+03
      0.898  0.1882E+03  0.5937E+03
      0.922  0.1958E+03  0.5984E+03
      0.946  0.2170E+03  0.6035E+03
      0.970  0.2231E+03  0.6088E+03
      0.993  0.2209E+03  0.6141E+03
      1.017  0.2013E+03  0.6189E+03
      1.041  0.1834E+03  0.6232E+03
      1.065  0.1829E+03  0.6276E+03
      1.088  0.1863E+03  0.6320E+03
      1.112  0.1924E+03  0.6366E+03
      1.136  0.2147E+03  0.6417E+03
      1.160  0.2271E+03  0.6471E+03
      1.183  0.2228E+03  0.6523E+03
      1.207  0.2334E+03  0.6579E+03
      1.231  0.2514E+03  0.6639E+03
      1.255  0.2490E+03  0.6698E+03
      1.278  0.2289E+03  0.6752E+03
      1.302  0.2163E+03  0.6804E+03
      1.326  0.2244E+03  0.6857E+03
      1.350  0.2375E+03  0.6913E+03
      1.373  0.2287E+03  0.6968E+03
      1.397  0.2155E+03  0.7019E+03
      1.421  0.2149E+03  0.7070E+03
      1.445  0.2209E+03  0.7122E+03
      1.468  0.2235E+03  0.7175E+03
      1.492  0.2160E+03  0.7227E+03
      1.516  0.2088E+03  0.7276E+03
      1.540  0.1955E+03  0.7323E+03
      1.563  0.1783E+03  0.7365E+03
      1.587  0.1866E+03  0.7409E+03
      1.611  0.2078E+03  0.7459E+03
      1.635  0.2098E+03  0.7508E+03
      1.658  0.2045E+03  0.7557E+03
      1.682  0.2030E+03  0.7605E+03
      1.706  0.2066E+03  0.7654E+03
      1.730  0.2057E+03  0.7703E+03
      1.753  0.1916E+03  0.7749E+03
      1.777  0.1856E+03  0.7793E+03
      1.801  0.1972E+03  0.7840E+03
      1.825  0.2030E+03  0.7888E+03
      1.848  0.2099E+03  0.7938E+03
      1.872  0.2216E+03  0.7990E+03
      1.896  0.2325E+03  0.8046E+03
      1.920  0.2352E+03  0.8101E+03
      1.943  0.2301E+03  0.8156E+03
      1.967  0.2303E+03  0.8211E+03
      1.991  0.2235E+03  0.8264E+03
      2.015  0.2092E+03  0.8314E+03
      2.038  0.2077E+03  0.8363E+03
      2.062  0.2077E+03  0.8412E+03
      2.086  0.1949E+03  0.8458E+03
      2.110  0.1919E+03  0.8504E+03
      2.133  0.1916E+03  0.8550E+03
      2.157  0.1905E+03  0.8595E+03
      2.181  0.1913E+03  0.8640E+03
      2.205  0.1844E+03  0.8684E+03
      2.228  0.1784E+03  0.8726E+03
      2.252  0.1807E+03  0.8769E+03
      2.276  0.1865E+03  0.8814E+03
      2.300  0.1899E+03  0.8859E+03
      2.323  0.1865E+03  0.8903E+03
      2.347  0.1759E+03  0.8945E+03
      2.371  0.1614E+03  0.8983E+03
      2.395  0.1501E+03  0.9019E+03
      2.418  0.1464E+03  0.9054E+03
      2.442  0.1439E+03  0.9088E+03
      2.466  0.1453E+03  0.9122E+03
      2.490  0.1511E+03  0.9158E+03
      2.513  0.1516E+03  0.9194E+03
      2.537  0.1444E+03  0.9228E+03
      2.561  0.1442E+03  0.9263E+03
      2.585  0.1497E+03  0.9298E+03
      2.608  0.1417E+03  0.9332E+03
      2.632  0.1228E+03  0.9361E+03
      2.656  0.1115E+03  0.9388E+03
      2.680  0.1147E+03  0.9415E+03
      2.703  0.1322E+03  0.9446E+03
      2.727  0.1436E+03  0.9480E+03
      2.751  0.1449E+03  0.9515E+03
      2.775  0.1467E+03  0.9550E+03
      2.798  0.1451E+03  0.9584E+03
      2.822  0.1477E+03  0.9619E+03
      2.846  0.1432E+03  0.9653E+03
      2.870  0.1322E+03  0.9685E+03
      2.893  0.1215E+03  0.9713E+03
      2.917  0.1078E+03  0.9739E+03
      2.941  0.1110E+03  0.9765E+03
      2.965  0.1307E+03  0.9796E+03
      2.988  0.1232E+03  0.9826E+03
      3.012  0.1060E+03  0.9851E+03
      3.036  0.1104E+03  0.9877E+03
      3.060  0.1143E+03  0.9904E+03
      3.083  0.1111E+03  0.9931E+03
      3.107  0.1119E+03  0.9957E+03
      3.131  0.1122E+03  0.9984E+03
      3.155  0.1023E+03  0.1001E+04
      3.178  0.7770E+02  0.1003E+04
      3.202  0.5670E+02  0.1004E+04
      3.226  0.4709E+02  0.1005E+04
      3.250  0.2909E+02  0.1006E+04
      3.273  0.1346E+02  0.1006E+04
      3.297  0.1751E+02  0.1007E+04
      3.321  0.2589E+02  0.1007E+04
      3.345  0.2258E+02  0.1008E+04
      3.368  0.1092E+02  0.1008E+04
      3.392  0.8876E+01  0.1008E+04
      3.416  0.2661E+02  0.1009E+04
      3.440  0.3402E+02  0.1010E+04
      3.463  0.1438E+02  0.1010E+04
      3.487  0.1971E+01  0.1010E+04
      3.511  0.8573E-01  0.1010E+04
      3.535  0.1156E-02  0.1010E+04
      3.558  0.4733E-05  0.1010E+04
      3.582  0.5803E-08  0.1010E+04
      3.606  0.2108E-11  0.1010E+04
      3.630  0.0000E+00  0.1010E+04
      3.653  0.0000E+00  0.1010E+04
      3.677  0.0000E+00  0.1010E+04
      3.701  0.0000E+00  0.1010E+04
      3.725  0.0000E+00  0.1010E+04
      3.748  0.0000E+00  0.1010E+04
