 running on   64 total cores
 distrk:  each k-point on   32 cores,    2 groups
 distr:  one band on   32 cores,    1 groups
 vasp.6.2.1 16May21 (build Nov 23 2021 15:40:41) complex                        
  
 POSCAR found type information on POSCAR Li
 POSCAR found :  1 types and     504 ions
 scaLAPACK will be used
 -----------------------------------------------------------------------------
|                                                                             |
|           W    W    AA    RRRRR   N    N  II  N    N   GGGG   !!!           |
|           W    W   A  A   R    R  NN   N  II  NN   N  G    G  !!!           |
|           W    W  A    A  R    R  N N  N  II  N N  N  G       !!!           |
|           W WW W  AAAAAA  RRRRR   N  N N  II  N  N N  G  GGG   !            |
|           WW  WW  A    A  R   R   N   NN  II  N   NN  G    G                |
|           W    W  A    A  R    R  N    N  II  N    N   GGGG   !!!           |
|                                                                             |
|     For optimal performance we recommend to set                             |
|       NCORE = 2 up to number-of-cores-per-socket                            |
|     NCORE specifies how many cores store one orbital (NPAR=cpu/NCORE).      |
|     This setting can greatly improve the performance of VASP for DFT.       |
|     The default, NCORE=1 might be grossly inefficient on modern             |
|     multi-core architectures or massively parallel machines. Do your        |
|     own testing! More info at https://www.vasp.at/wiki/index.php/NCORE      |
|     Unfortunately you need to use the default for GW and RPA                |
|     calculations (for HF NCORE is supported but not extensively tested      |
|     yet).                                                                   |
|                                                                             |
 -----------------------------------------------------------------------------

 -----------------------------------------------------------------------------
|                                                                             |
|               ----> ADVICE to this user running VASP <----                  |
|                                                                             |
|     You have a (more or less) 'large supercell' and for larger cells it     |
|     might be more efficient to use real-space projection operators.         |
|     Therefore, try LREAL= Auto in the INCAR file.                           |
|     Mind: If you want to do very accurate calculations, keep the            |
|     reciprocal projection scheme (i.e. LREAL=.FALSE.).                      |
|                                                                             |
 -----------------------------------------------------------------------------

 LDA part: xc-table for Pade appr. of Perdew
 POSCAR found type information on POSCAR Li
 POSCAR found :  1 types and     504 ions
 POSCAR, INCAR and KPOINTS ok, starting setup
 FFT: planning ...
 WAVECAR not read
 entering main loop
       N       E                     dE             d eps       ncg     rms          rms(c)
DAV:   1    -0.287500216743E+03   -0.28750E+03   -0.12430E+05  4040   0.661E+02
DAV:   2    -0.899837516627E+03   -0.61234E+03   -0.56157E+03  4628   0.686E+01
DAV:   3    -0.942052113085E+03   -0.42215E+02   -0.38306E+02  5112   0.143E+01
DAV:   4    -0.943474740410E+03   -0.14226E+01   -0.13978E+01  4640   0.284E+00
DAV:   5    -0.943506482797E+03   -0.31742E-01   -0.31675E-01  4800   0.453E-01    0.730E+00
DAV:   6    -0.939815483097E+03    0.36910E+01   -0.64109E+00  4504   0.304E+00    0.535E+00
DAV:   7    -0.938078174509E+03    0.17373E+01   -0.49224E+00  4584   0.311E+00    0.420E+00
DAV:   8    -0.936157442170E+03    0.19207E+01   -0.24432E+00  4592   0.186E+00    0.236E+00
DAV:   9    -0.935982450702E+03    0.17499E+00   -0.12923E+00  4608   0.122E+00    0.187E+00
DAV:  10    -0.935665370048E+03    0.31708E+00   -0.72863E-01  4568   0.882E-01    0.109E+00
DAV:  11    -0.935597673894E+03    0.67696E-01   -0.25934E-01  4416   0.421E-01    0.571E-01
DAV:  12    -0.935605007863E+03   -0.73340E-02   -0.54707E-02  4656   0.274E-01    0.493E-01
DAV:  13    -0.935582878493E+03    0.22129E-01   -0.29219E-02  4624   0.210E-01    0.252E-01
DAV:  14    -0.935581583098E+03    0.12954E-02   -0.92973E-03  4568   0.115E-01    0.167E-01
DAV:  15    -0.935580131913E+03    0.14512E-02   -0.56652E-03  4584   0.915E-02    0.115E-01
DAV:  16    -0.935578702294E+03    0.14296E-02   -0.20923E-03  4552   0.518E-02    0.452E-02
DAV:  17    -0.935578593848E+03    0.10845E-03   -0.73477E-04  4312   0.233E-02    0.221E-02
DAV:  18    -0.935578571743E+03    0.22105E-04   -0.13711E-04  4624   0.133E-02    0.174E-02
DAV:  19    -0.935578536440E+03    0.35303E-04   -0.45952E-05  4232   0.880E-03    0.108E-02
DAV:  20    -0.935578512093E+03    0.24347E-04   -0.20234E-05  3056   0.506E-03    0.416E-03
DAV:  21    -0.935578509981E+03    0.21123E-05   -0.85784E-06  2240   0.350E-03
   1 F= -.93557851E+03 E0= -.93551355E+03  d E =-.129928E+00
