 432 432   0   0
  0.2159961E+02  0.2105280E-08  0.2105280E-08  0.2105280E-08  0.5000000E-15
  1.000000000000000E-004
  CAR 
 Li                                      
      3.41498508     -3.51578744  301      0.25447728      1.00000000
     -3.516  0.0000E+00  0.0000E+00
     -3.493  0.0000E+00  0.0000E+00
     -3.470  0.0000E+00  0.0000E+00
     -3.446  0.0000E+00  0.0000E+00
     -3.423  0.0000E+00  0.0000E+00
     -3.400  0.0000E+00  0.0000E+00
     -3.377  0.4806E-14  0.1110E-15
     -3.354  0.2099E-10  0.4851E-12
     -3.331  0.3562E-07  0.8234E-09
     -3.308  0.1896E-04  0.4388E-06
     -3.285  0.3195E-02  0.7426E-04
     -3.262  0.1727E+00  0.4064E-02
     -3.239  0.3045E+01  0.7441E-01
     -3.215  0.1786E+02  0.4870E+00
     -3.192  0.3547E+02  0.1306E+01
     -3.169  0.2405E+02  0.1862E+01
     -3.146  0.5697E+01  0.1994E+01
     -3.123  0.3845E+01  0.2082E+01
     -3.100  0.2654E+02  0.2696E+01
     -3.077  0.7879E+02  0.4516E+01
     -3.054  0.9444E+02  0.6698E+01
     -3.031  0.4655E+02  0.7773E+01
     -3.008  0.9905E+01  0.8002E+01
     -2.984  0.1062E+02  0.8248E+01
     -2.961  0.4843E+02  0.9366E+01
     -2.938  0.9421E+02  0.1154E+02
     -2.915  0.7680E+02  0.1332E+02
     -2.892  0.2610E+02  0.1392E+02
     -2.869  0.6811E+01  0.1408E+02
     -2.846  0.2881E+02  0.1474E+02
     -2.823  0.9431E+02  0.1692E+02
     -2.800  0.1278E+03  0.1987E+02
     -2.777  0.7317E+02  0.2156E+02
     -2.753  0.1871E+02  0.2200E+02
     -2.730  0.1933E+02  0.2244E+02
     -2.707  0.8282E+02  0.2436E+02
     -2.684  0.1648E+03  0.2817E+02
     -2.661  0.1592E+03  0.3184E+02
     -2.638  0.7602E+02  0.3360E+02
     -2.615  0.1775E+02  0.3401E+02
     -2.592  0.1757E+02  0.3441E+02
     -2.569  0.6199E+02  0.3585E+02
     -2.545  0.9778E+02  0.3811E+02
     -2.522  0.6394E+02  0.3958E+02
     -2.499  0.1757E+02  0.3999E+02
     -2.476  0.1542E+02  0.4034E+02
     -2.453  0.6988E+02  0.4196E+02
     -2.430  0.1558E+03  0.4556E+02
     -2.407  0.1674E+03  0.4942E+02
     -2.384  0.8843E+02  0.5147E+02
     -2.361  0.2756E+02  0.5210E+02
     -2.338  0.5049E+02  0.5327E+02
     -2.314  0.1542E+03  0.5683E+02
     -2.291  0.2388E+03  0.6235E+02
     -2.268  0.2066E+03  0.6712E+02
     -2.245  0.9921E+02  0.6942E+02
     -2.222  0.2611E+02  0.7002E+02
     -2.199  0.2581E+02  0.7061E+02
     -2.176  0.7181E+02  0.7227E+02
     -2.153  0.9295E+02  0.7442E+02
     -2.130  0.5388E+02  0.7567E+02
     -2.107  0.1762E+02  0.7607E+02
     -2.083  0.3725E+02  0.7693E+02
     -2.060  0.1200E+03  0.7970E+02
     -2.037  0.1891E+03  0.8407E+02
     -2.014  0.1640E+03  0.8786E+02
     -1.991  0.7640E+02  0.8963E+02
     -1.968  0.2851E+02  0.9029E+02
     -1.945  0.7101E+02  0.9193E+02
     -1.922  0.1753E+03  0.9598E+02
     -1.899  0.2390E+03  0.1015E+03
     -1.876  0.1882E+03  0.1058E+03
     -1.852  0.7850E+02  0.1077E+03
     -1.829  0.2581E+02  0.1083E+03
     -1.806  0.6023E+02  0.1096E+03
     -1.783  0.1380E+03  0.1128E+03
     -1.760  0.1675E+03  0.1167E+03
     -1.737  0.1082E+03  0.1192E+03
     -1.714  0.4402E+02  0.1202E+03
     -1.691  0.7312E+02  0.1219E+03
     -1.668  0.1810E+03  0.1261E+03
     -1.644  0.2474E+03  0.1318E+03
     -1.621  0.1842E+03  0.1361E+03
     -1.598  0.7301E+02  0.1377E+03
     -1.575  0.3753E+02  0.1386E+03
     -1.552  0.1091E+03  0.1411E+03
     -1.529  0.2163E+03  0.1461E+03
     -1.506  0.2342E+03  0.1515E+03
     -1.483  0.1432E+03  0.1548E+03
     -1.460  0.4826E+02  0.1560E+03
     -1.437  0.3835E+02  0.1568E+03
     -1.413  0.1025E+03  0.1592E+03
     -1.390  0.1612E+03  0.1629E+03
     -1.367  0.1412E+03  0.1662E+03
     -1.344  0.6433E+02  0.1677E+03
     -1.321  0.2018E+02  0.1682E+03
     -1.298  0.4827E+02  0.1693E+03
     -1.275  0.1272E+03  0.1722E+03
     -1.252  0.1667E+03  0.1761E+03
     -1.229  0.1214E+03  0.1789E+03
     -1.206  0.7267E+02  0.1805E+03
     -1.182  0.1275E+03  0.1835E+03
     -1.159  0.2486E+03  0.1892E+03
     -1.136  0.3184E+03  0.1966E+03
     -1.113  0.2972E+03  0.2035E+03
     -1.090  0.1975E+03  0.2080E+03
     -1.067  0.9854E+02  0.2103E+03
     -1.044  0.1149E+03  0.2130E+03
     -1.021  0.2006E+03  0.2176E+03
     -0.998  0.2210E+03  0.2227E+03
     -0.975  0.1531E+03  0.2262E+03
     -0.951  0.6555E+02  0.2277E+03
     -0.928  0.3872E+02  0.2286E+03
     -0.905  0.9954E+02  0.2309E+03
     -0.882  0.1862E+03  0.2352E+03
     -0.859  0.1825E+03  0.2395E+03
     -0.836  0.9281E+02  0.2416E+03
     -0.813  0.5559E+02  0.2429E+03
     -0.790  0.1420E+03  0.2462E+03
     -0.767  0.2669E+03  0.2523E+03
     -0.743  0.2957E+03  0.2592E+03
     -0.720  0.2087E+03  0.2640E+03
     -0.697  0.1089E+03  0.2665E+03
     -0.674  0.9027E+02  0.2686E+03
     -0.651  0.9136E+02  0.2707E+03
     -0.628  0.4702E+02  0.2718E+03
     -0.605  0.1792E+02  0.2722E+03
     -0.582  0.5617E+02  0.2735E+03
     -0.559  0.1624E+03  0.2772E+03
     -0.536  0.2619E+03  0.2833E+03
     -0.512  0.2776E+03  0.2897E+03
     -0.489  0.2130E+03  0.2946E+03
     -0.466  0.1520E+03  0.2981E+03
     -0.443  0.1545E+03  0.3017E+03
     -0.420  0.1789E+03  0.3058E+03
     -0.397  0.2113E+03  0.3107E+03
     -0.374  0.2580E+03  0.3167E+03
     -0.351  0.2800E+03  0.3232E+03
     -0.328  0.2328E+03  0.3285E+03
     -0.305  0.1416E+03  0.3318E+03
     -0.281  0.1038E+03  0.3342E+03
     -0.258  0.1131E+03  0.3368E+03
     -0.235  0.1213E+03  0.3396E+03
     -0.212  0.1248E+03  0.3425E+03
     -0.189  0.1247E+03  0.3454E+03
     -0.166  0.1907E+03  0.3498E+03
     -0.143  0.2761E+03  0.3562E+03
     -0.120  0.3099E+03  0.3633E+03
     -0.097  0.3063E+03  0.3704E+03
     -0.074  0.2468E+03  0.3761E+03
     -0.050  0.1453E+03  0.3795E+03
     -0.027  0.1102E+03  0.3820E+03
     -0.004  0.1789E+03  0.3861E+03
      0.019  0.2483E+03  0.3919E+03
      0.042  0.2562E+03  0.3978E+03
      0.065  0.1835E+03  0.4020E+03
      0.088  0.9806E+02  0.4043E+03
      0.111  0.9098E+02  0.4064E+03
      0.134  0.1180E+03  0.4091E+03
      0.158  0.1469E+03  0.4125E+03
      0.181  0.2081E+03  0.4173E+03
      0.204  0.2289E+03  0.4226E+03
      0.227  0.1896E+03  0.4270E+03
      0.250  0.1779E+03  0.4311E+03
      0.273  0.2150E+03  0.4361E+03
      0.296  0.2531E+03  0.4419E+03
      0.319  0.2715E+03  0.4482E+03
      0.342  0.2712E+03  0.4545E+03
      0.365  0.2301E+03  0.4598E+03
      0.389  0.1542E+03  0.4633E+03
      0.412  0.1106E+03  0.4659E+03
      0.435  0.1375E+03  0.4691E+03
      0.458  0.1886E+03  0.4734E+03
      0.481  0.2105E+03  0.4783E+03
      0.504  0.2109E+03  0.4832E+03
      0.527  0.2337E+03  0.4886E+03
      0.550  0.2783E+03  0.4950E+03
      0.573  0.3071E+03  0.5021E+03
      0.596  0.2958E+03  0.5089E+03
      0.620  0.2774E+03  0.5153E+03
      0.643  0.2815E+03  0.5218E+03
      0.666  0.2806E+03  0.5283E+03
      0.689  0.2623E+03  0.5344E+03
      0.712  0.2456E+03  0.5400E+03
      0.735  0.2405E+03  0.5456E+03
      0.758  0.2497E+03  0.5514E+03
      0.781  0.2561E+03  0.5573E+03
      0.804  0.2493E+03  0.5630E+03
      0.827  0.2431E+03  0.5687E+03
      0.851  0.2326E+03  0.5740E+03
      0.874  0.2331E+03  0.5794E+03
      0.897  0.2417E+03  0.5850E+03
      0.920  0.2392E+03  0.5905E+03
      0.943  0.2366E+03  0.5960E+03
      0.966  0.2418E+03  0.6016E+03
      0.989  0.2537E+03  0.6074E+03
      1.012  0.2485E+03  0.6132E+03
      1.035  0.2119E+03  0.6181E+03
      1.059  0.1655E+03  0.6219E+03
      1.082  0.1674E+03  0.6258E+03
      1.105  0.2124E+03  0.6307E+03
      1.128  0.2461E+03  0.6364E+03
      1.151  0.2468E+03  0.6421E+03
      1.174  0.2168E+03  0.6471E+03
      1.197  0.1448E+03  0.6504E+03
      1.220  0.6679E+02  0.6520E+03
      1.243  0.6250E+02  0.6534E+03
      1.266  0.1240E+03  0.6563E+03
      1.290  0.1601E+03  0.6600E+03
      1.313  0.1286E+03  0.6629E+03
      1.336  0.9553E+02  0.6651E+03
      1.359  0.1290E+03  0.6681E+03
      1.382  0.1764E+03  0.6722E+03
      1.405  0.1949E+03  0.6767E+03
      1.428  0.2141E+03  0.6817E+03
      1.451  0.2181E+03  0.6867E+03
      1.474  0.1775E+03  0.6908E+03
      1.497  0.1233E+03  0.6936E+03
      1.521  0.1098E+03  0.6962E+03
      1.544  0.1409E+03  0.6994E+03
      1.567  0.1757E+03  0.7035E+03
      1.590  0.2021E+03  0.7082E+03
      1.613  0.2161E+03  0.7132E+03
      1.636  0.2102E+03  0.7180E+03
      1.659  0.1883E+03  0.7224E+03
      1.682  0.1770E+03  0.7264E+03
      1.705  0.1971E+03  0.7310E+03
      1.728  0.2152E+03  0.7360E+03
      1.752  0.2188E+03  0.7410E+03
      1.775  0.2149E+03  0.7460E+03
      1.798  0.1867E+03  0.7503E+03
      1.821  0.1487E+03  0.7537E+03
      1.844  0.1432E+03  0.7570E+03
      1.867  0.1685E+03  0.7609E+03
      1.890  0.1856E+03  0.7652E+03
      1.913  0.1729E+03  0.7692E+03
      1.936  0.1461E+03  0.7726E+03
      1.960  0.1383E+03  0.7758E+03
      1.983  0.1390E+03  0.7790E+03
      2.006  0.1122E+03  0.7816E+03
      2.029  0.7565E+02  0.7833E+03
      2.052  0.6834E+02  0.7849E+03
      2.075  0.9979E+02  0.7872E+03
      2.098  0.1290E+03  0.7902E+03
      2.121  0.1249E+03  0.7931E+03
      2.144  0.8528E+02  0.7951E+03
      2.167  0.3362E+02  0.7958E+03
      2.191  0.6383E+01  0.7960E+03
      2.214  0.2885E+01  0.7961E+03
      2.237  0.2185E+02  0.7966E+03
      2.260  0.7512E+02  0.7983E+03
      2.283  0.9933E+02  0.8006E+03
      2.306  0.5048E+02  0.8018E+03
      2.329  0.9726E+01  0.8020E+03
      2.352  0.6936E+00  0.8020E+03
      2.375  0.2908E-01  0.8020E+03
      2.398  0.3806E+00  0.8020E+03
      2.422  0.4918E+01  0.8021E+03
      2.445  0.2711E+02  0.8027E+03
      2.468  0.7112E+02  0.8044E+03
      2.491  0.1059E+03  0.8068E+03
      2.514  0.1169E+03  0.8095E+03
      2.537  0.1150E+03  0.8122E+03
      2.560  0.1081E+03  0.8147E+03
      2.583  0.9270E+02  0.8168E+03
      2.606  0.8665E+02  0.8188E+03
      2.629  0.1079E+03  0.8213E+03
      2.653  0.1309E+03  0.8244E+03
      2.676  0.1445E+03  0.8277E+03
      2.699  0.1580E+03  0.8313E+03
      2.722  0.1647E+03  0.8351E+03
      2.745  0.1524E+03  0.8387E+03
      2.768  0.1211E+03  0.8415E+03
      2.791  0.9443E+02  0.8436E+03
      2.814  0.8628E+02  0.8456E+03
      2.837  0.6698E+02  0.8472E+03
      2.861  0.3339E+02  0.8480E+03
      2.884  0.2615E+02  0.8486E+03
      2.907  0.4483E+02  0.8496E+03
      2.930  0.6236E+02  0.8510E+03
      2.953  0.7812E+02  0.8528E+03
      2.976  0.9508E+02  0.8550E+03
      2.999  0.1084E+03  0.8575E+03
      3.022  0.1085E+03  0.8601E+03
      3.045  0.1014E+03  0.8624E+03
      3.068  0.8208E+02  0.8643E+03
      3.092  0.4795E+02  0.8654E+03
      3.115  0.1963E+02  0.8659E+03
      3.138  0.5584E+01  0.8660E+03
      3.161  0.8054E+00  0.8660E+03
      3.184  0.4396E-01  0.8660E+03
      3.207  0.8075E-03  0.8660E+03
      3.230  0.4792E-05  0.8660E+03
      3.253  0.9018E-08  0.8660E+03
      3.276  0.5325E-11  0.8660E+03
      3.299  0.0000E+00  0.8660E+03
      3.323  0.0000E+00  0.8660E+03
      3.346  0.0000E+00  0.8660E+03
      3.369  0.0000E+00  0.8660E+03
      3.392  0.0000E+00  0.8660E+03
      3.415  0.0000E+00  0.8660E+03
