Li                                      
           1
    21.052800    0.000000    0.000000
     0.000000   21.052800    0.000000
     0.000000    0.000000   21.052800
   Li
   432
Direct configuration=     1
   0.00492543  0.99464141  0.00862680
   0.92354216  0.08248410  0.08976105
   0.84288199  0.15880560  0.16743565
   0.76358926  0.25075336  0.25041211
   0.65398020  0.33765440  0.32636903
   0.59009909  0.42942676  0.41606565
   0.50966715  0.50973585  0.47997156
   0.42352718  0.57977985  0.57768875
   0.33287439  0.68459035  0.65742558
   0.25526243  0.77132283  0.76382327
   0.16995093  0.83601259  0.84462088
   0.08698359  0.92080038  0.91910196
   0.09885001  0.92914329  0.09181075
   0.00111698  0.00330589  0.16368239
   0.91966856  0.08590298  0.25774228
   0.83594073  0.15914932  0.34521637
   0.74681373  0.27723842  0.39973987
   0.65447178  0.33683046  0.51164814
   0.58084358  0.40741871  0.58791527
   0.50588519  0.50454091  0.66361004
   0.41196785  0.58753696  0.75261917
   0.33313794  0.68044577  0.82575300
   0.25435768  0.77581433  0.91606587
   0.17008491  0.84044721  0.00490010
   0.16137831  0.81531780  0.15850908
   0.08798462  0.92352533  0.26108665
   0.98951583  0.00867705  0.34248292
   0.92030609  0.08998992  0.43261463
   0.82367899  0.17816664  0.49155781
   0.73745499  0.25351040  0.56655617
   0.67098795  0.32576043  0.67258220
   0.57289902  0.40805740  0.76113068
   0.49110017  0.50437094  0.83236389
   0.39319162  0.58995442  0.90553501
   0.31124954  0.67999598  0.01027901
   0.24647717  0.74743088  0.08202063
   0.23632246  0.75537808  0.25681464
   0.14701273  0.83054322  0.33678890
   0.08604462  0.92976248  0.43050066
   0.99705948  0.00167593  0.50410337
   0.91717031  0.08634408  0.57524897
   0.83462351  0.16851413  0.65996157
   0.75198285  0.24880040  0.74703751
   0.66335122  0.31665793  0.83232598
   0.58374403  0.40769428  0.92412731
   0.49636358  0.50413247  0.99303913
   0.41498661  0.57925993  0.05844087
   0.32131663  0.66668803  0.15091408
   0.32706341  0.66996457  0.33577400
   0.25370983  0.76826850  0.41640711
   0.15507727  0.83491317  0.49306514
   0.07944407  0.91011488  0.57993662
   0.99888195  0.99703588  0.66788713
   0.91267722  0.08111597  0.74755207
   0.83242635  0.17398154  0.83176030
   0.74377727  0.23167413  0.90820338
   0.67145371  0.31285392  0.00153633
   0.57868424  0.42539683  0.06711815
   0.48823778  0.49445096  0.15265028
   0.39512877  0.57505030  0.22955498
   0.41444388  0.58150321  0.39081023
   0.33833666  0.66736736  0.50256677
   0.25204951  0.74324277  0.58595154
   0.17705854  0.84050671  0.66046650
   0.08883844  0.90234406  0.76328135
   0.99138518  0.00007673  0.83040281
   0.91399131  0.06424588  0.92401777
   0.82796816  0.16113799  0.00029971
   0.75444703  0.25284571  0.08833853
   0.66895852  0.33970053  0.16181153
   0.57619823  0.40664427  0.23810608
   0.51515437  0.50055246  0.30959961
   0.07912978  0.07973614  0.89328915
   0.98601540  0.16599601  0.98496712
   0.90946350  0.25140881  0.08336659
   0.83613859  0.33596069  0.15157327
   0.75496954  0.39968909  0.24069579
   0.67799434  0.48860507  0.32247222
   0.59252024  0.57543792  0.39771909
   0.51951055  0.65934665  0.50134010
   0.42134504  0.74674682  0.58048628
   0.35403058  0.84121004  0.64896337
   0.25383786  0.90157094  0.75097042
   0.17662638  0.01105295  0.84325213
   0.16315423  0.00032914  0.00037228
   0.08281358  0.09688403  0.07793525
   0.98265552  0.16062128  0.16769059
   0.91382563  0.25331206  0.24652603
   0.85327173  0.33987601  0.33263423
   0.74192006  0.41526185  0.40633552
   0.66277998  0.49408909  0.49776655
   0.59275951  0.58700463  0.57967521
   0.50016347  0.66230898  0.66251727
   0.41852089  0.76941346  0.74074021
   0.34229181  0.85243961  0.83270566
   0.25195726  0.92457363  0.92304753
   0.24420801  0.93236812  0.10054575
   0.15200136  0.02447345  0.17766818
   0.06625733  0.08929193  0.24448450
   0.00363247  0.16816998  0.34532039
   0.92002269  0.25481919  0.43206814
   0.83632859  0.34102824  0.51153622
   0.75097862  0.40479538  0.58820068
   0.66502733  0.49610622  0.67043500
   0.58171990  0.58847180  0.73822501
   0.50331490  0.68165828  0.82991293
   0.41816324  0.76808672  0.93040206
   0.33395348  0.84235108  0.00750815
   0.32867733  0.84551042  0.17452832
   0.22719879  0.92709431  0.25228572
   0.15704547  0.01881427  0.35173648
   0.08191372  0.08694167  0.43061546
   0.01211999  0.17357239  0.49127533
   0.90615643  0.25286181  0.58876231
   0.82207148  0.33193101  0.67940338
   0.73471676  0.42168073  0.75737000
   0.65595977  0.50648282  0.82594796
   0.56813361  0.61067647  0.91109922
   0.48542461  0.67139233  0.98962153
   0.41298159  0.75322189  0.09372571
   0.40836556  0.76220050  0.24599847
   0.32596828  0.84013294  0.33592320
   0.23200757  0.92228321  0.42124068
   0.18394381  0.01818724  0.51923230
   0.09283011  0.10215962  0.59574048
   0.97931116  0.17201413  0.67592707
   0.91065181  0.25983112  0.74978977
   0.81983352  0.35671385  0.83260838
   0.73859101  0.43897348  0.91158195
   0.66098970  0.53045117  0.99868537
   0.56360271  0.57500270  0.08662331
   0.48513020  0.65659274  0.17913728
   0.49518775  0.66301584  0.32898146
   0.41361840  0.75284133  0.40810320
   0.34054003  0.84840577  0.49611697
   0.23991147  0.91935983  0.56670518
   0.16139351  0.00574293  0.66392998
   0.08080134  0.09102650  0.74901057
   0.99466634  0.17183451  0.83073992
   0.90856513  0.24716215  0.90013863
   0.82303595  0.34651002  0.00543818
   0.73785196  0.43644651  0.07432411
   0.65990707  0.49015748  0.16160945
   0.58732192  0.59497480  0.24275647
   0.17843715  0.16367727  0.83337065
   0.07971056  0.24669520  0.92510902
   0.99164019  0.34253893  0.99830945
   0.92031642  0.43717802  0.06836256
   0.83134547  0.50649602  0.16067308
   0.75648325  0.57091931  0.24735929
   0.66798596  0.66917383  0.33134425
   0.59070382  0.75683096  0.39402618
   0.51050490  0.82976154  0.48976426
   0.41725644  0.93051014  0.57727683
   0.33015974  0.98040526  0.66698861
   0.24173415  0.06775965  0.75685273
   0.25375402  0.09209456  0.93552848
   0.15030312  0.16810281  0.98719878
   0.07157934  0.24266283  0.07619741
   0.00029045  0.32521397  0.15721173
   0.92577855  0.40917044  0.23725633
   0.82996350  0.48504979  0.31598053
   0.74033692  0.56778804  0.41720220
   0.67300304  0.66567437  0.47448416
   0.58889927  0.74856267  0.57537668
   0.48976899  0.84217728  0.65164878
   0.42757973  0.91971678  0.73857207
   0.32152811  0.99253872  0.82895988
   0.32737037  0.98996105  0.01587203
   0.25014678  0.07806714  0.09208069
   0.15655779  0.16228020  0.15808964
   0.08166875  0.25516796  0.24438156
   0.00255751  0.32149389  0.33728906
   0.91581386  0.41909430  0.43093189
   0.82342305  0.49481987  0.52083900
   0.73043440  0.58879760  0.57813932
   0.66968587  0.66781697  0.66091057
   0.57633758  0.75254380  0.75539408
   0.50334058  0.83694686  0.84707379
   0.41647019  0.93624251  0.93511358
   0.41826962  0.93194605  0.09113483
   0.31863705  0.00790662  0.17928190
   0.24798902  0.09909025  0.25907850
   0.15402290  0.17006122  0.34200301
   0.09335926  0.25820132  0.42370029
   0.99538343  0.34259034  0.51167777
   0.91110575  0.41619832  0.60794398
   0.81684237  0.51105851  0.66599799
   0.74292448  0.59985631  0.75130995
   0.65288974  0.67764168  0.83335735
   0.57879377  0.76385112  0.91667464
   0.50388015  0.83734460  0.02620687
   0.49592099  0.84642648  0.16584869
   0.40197810  0.91662115  0.25003414
   0.32946691  0.00208691  0.34345436
   0.25862594  0.09021118  0.42006112
   0.18904804  0.16578676  0.50954873
   0.08243216  0.26063669  0.60028143
   0.00624925  0.33746298  0.68504726
   0.90257380  0.43143879  0.74879247
   0.81204368  0.51307965  0.84132167
   0.73586064  0.60505853  0.91316421
   0.65751973  0.68378305  0.00588852
   0.57232917  0.75251817  0.10485089
   0.57211156  0.76416684  0.25922698
   0.49345099  0.84035377  0.32519496
   0.41593847  0.92044490  0.41356904
   0.33391530  0.99979058  0.48430213
   0.26376025  0.09279933  0.58622819
   0.18078470  0.16261094  0.67269237
   0.08350020  0.24089184  0.75806545
   0.99847556  0.33288488  0.84815275
   0.90757843  0.41952665  0.91203413
   0.83421456  0.51308899  0.98697223
   0.75146311  0.57946710  0.08510837
   0.67813864  0.65144588  0.17737271
   0.24655266  0.25987844  0.74168105
   0.17670888  0.33735902  0.84756246
   0.09742870  0.42437513  0.91521863
   0.00530062  0.50926666  0.97395900
   0.92066561  0.58296969  0.07708349
   0.83406975  0.66180692  0.18123947
   0.76167309  0.74423069  0.25013539
   0.67513436  0.83036322  0.33172291
   0.58760950  0.91369608  0.40967804
   0.50885204  0.98943312  0.48748396
   0.41093749  0.07243222  0.57579643
   0.34167251  0.16149437  0.68205097
   0.33874952  0.17496213  0.82556368
   0.26221611  0.23736051  0.91513566
   0.16711859  0.31049012  0.99437062
   0.09359641  0.40663305  0.06791348
   0.00932559  0.48773481  0.15079650
   0.92757186  0.58304614  0.24140820
   0.83309589  0.64173921  0.33104397
   0.75383272  0.73881640  0.41059396
   0.66527186  0.82160646  0.48082299
   0.58906319  0.90149897  0.56737133
   0.51409209  0.00629671  0.66728169
   0.41524472  0.07305945  0.74521406
   0.41148932  0.06621439  0.92717862
   0.33367777  0.16152441  0.01994918
   0.24862710  0.21836148  0.07942399
   0.17693008  0.32447253  0.15221264
   0.07175045  0.40141385  0.24769477
   0.99506854  0.50170431  0.33278165
   0.91399862  0.57334230  0.41508396
   0.83845152  0.65466912  0.49778228
   0.75867079  0.73548723  0.56568657
   0.67043699  0.82476948  0.65817963
   0.58552168  0.89951787  0.74536260
   0.51336500  0.99921724  0.83197204
   0.51117068  0.00386397  0.01472376
   0.41717516  0.08005603  0.09453796
   0.33157463  0.16982432  0.18762159
   0.24304767  0.26247896  0.26827251
   0.15365559  0.34180387  0.33920634
   0.07730139  0.41385095  0.42092904
   0.98433135  0.48826364  0.52872430
   0.93496853  0.59299502  0.58534508
   0.83604332  0.66052545  0.66037857
   0.75276304  0.73165425  0.74898189
   0.66183170  0.82245756  0.83084364
   0.59164282  0.91316822  0.91824504
   0.58858477  0.92747579  0.09590807
   0.50461638  0.99858054  0.16674578
   0.41418188  0.07560844  0.27077740
   0.34060408  0.17125710  0.34350650
   0.24721053  0.25128864  0.41285586
   0.19366503  0.33561573  0.48823471
   0.08800140  0.41156184  0.58594313
   0.99348897  0.49819711  0.67788658
   0.91364843  0.58921175  0.75914761
   0.82313753  0.67483783  0.84345345
   0.73738141  0.75695684  0.91143312
   0.67618762  0.83851202  0.01511250
   0.66395778  0.83065181  0.18550678
   0.58395408  0.91913667  0.25161941
   0.49554561  0.00661890  0.32839809
   0.41190359  0.09012025  0.42965322
   0.33781488  0.18984340  0.50330063
   0.24918737  0.25980427  0.59281628
   0.17929694  0.33778752  0.67723829
   0.08200323  0.40536075  0.76205653
   0.00356109  0.51180019  0.83784742
   0.91811408  0.60162015  0.91425357
   0.82570096  0.67481918  0.01002321
   0.75268414  0.74863565  0.09767655
   0.35048761  0.33863390  0.67050604
   0.25024902  0.41497266  0.75437917
   0.15671430  0.50690796  0.84666325
   0.08271818  0.60218980  0.91464856
   0.00236715  0.66432595  0.00686284
   0.92043773  0.75587057  0.09048676
   0.83562722  0.85274088  0.15941511
   0.74509257  0.92207071  0.26179970
   0.66717728  0.00671070  0.32714775
   0.57463167  0.08101836  0.40973269
   0.51412730  0.17286470  0.49893115
   0.42918554  0.25661466  0.59677952
   0.42879856  0.25260369  0.74251053
   0.33743139  0.34720827  0.82416711
   0.24465299  0.41603653  0.90995713
   0.15854085  0.49516162  0.98717741
   0.08489925  0.55942913  0.07122657
   0.00771114  0.66211477  0.16132858
   0.92343537  0.73852108  0.26049906
   0.85600309  0.83125156  0.34190672
   0.75582271  0.91301352  0.41535268
   0.67144721  0.99549007  0.49692893
   0.59074733  0.07191103  0.58105551
   0.49792955  0.15611564  0.65207121
   0.48076384  0.16123721  0.83779851
   0.41994468  0.23596172  0.93139306
   0.33074640  0.31327170  0.00379866
   0.24166366  0.41129622  0.06690550
   0.16932886  0.48901297  0.16431421
   0.08441345  0.56625370  0.25683281
   0.99342951  0.65584946  0.35053636
   0.91504175  0.72615101  0.40827985
   0.82513757  0.82921151  0.48589356
   0.75386959  0.90604669  0.58994381
   0.65486453  0.99115624  0.66458274
   0.58744586  0.07872703  0.73918338
   0.58130353  0.09545160  0.92207178
   0.49751171  0.15816326  0.99326088
   0.41414852  0.24002969  0.07661922
   0.33667303  0.30793793  0.15072625
   0.26553502  0.40098612  0.23287658
   0.17434499  0.47849799  0.31963234
   0.09291409  0.55330960  0.41528255
   0.00686161  0.64997459  0.49944307
   0.92069560  0.75475277  0.56949948
   0.83161910  0.83215460  0.66476508
   0.75693797  0.91054012  0.73974595
   0.67619606  0.99542128  0.84276064
   0.68142925  0.01665342  0.00342010
   0.59115309  0.09244064  0.10247651
   0.48168233  0.17640520  0.17081216
   0.41307825  0.26171155  0.26183546
   0.32835492  0.33040438  0.34127714
   0.27151516  0.42040365  0.41279055
   0.16911242  0.49508670  0.50311041
   0.10213356  0.58508206  0.58368542
   0.00818047  0.66629154  0.67054517
   0.90287094  0.74045045  0.75395183
   0.83431443  0.83250373  0.82414337
   0.74486219  0.91190980  0.92170477
   0.74611886  0.92038234  0.08296421
   0.66975858  0.99268966  0.18036094
   0.58199730  0.09138886  0.24416259
   0.50370264  0.17908290  0.33706373
   0.42925749  0.26539171  0.40405246
   0.33970548  0.33283333  0.50160469
   0.26830211  0.41638862  0.58382930
   0.16890678  0.49805183  0.68069191
   0.07753928  0.58641066  0.76080626
   0.00000344  0.67420512  0.84174781
   0.91361679  0.74961346  0.91659813
   0.82869926  0.83374434  0.01693225
   0.42700920  0.41736312  0.58715092
   0.33631098  0.48436801  0.66178093
   0.27442452  0.58002991  0.75347394
   0.17606640  0.67955938  0.83568325
   0.07335507  0.73395003  0.91811239
   0.00646441  0.83431688  0.01233931
   0.92190662  0.90280762  0.09218859
   0.84454491  0.98411506  0.17084868
   0.76389735  0.08008622  0.25055120
   0.67150570  0.14810252  0.32729779
   0.58785244  0.24551157  0.40672850
   0.51326167  0.33780884  0.49948407
   0.50972810  0.33359720  0.66237036
   0.43353021  0.41902666  0.74306702
   0.33056618  0.48490122  0.83147431
   0.24364522  0.59046759  0.91066156
   0.16535846  0.66592076  0.00827945
   0.08675658  0.74306983  0.08744776
   0.99762480  0.83641208  0.16780167
   0.93264431  0.92064875  0.25019401
   0.84798282  0.00859624  0.33098495
   0.74867814  0.07242307  0.41338938
   0.67255519  0.16738827  0.49093893
   0.59654257  0.23814556  0.59669362
   0.56631983  0.24070141  0.73798677
   0.50035061  0.31668042  0.82968004
   0.40979027  0.40197048  0.92733435
   0.33011320  0.48380110  0.00032624
   0.24323283  0.58619178  0.06050086
   0.16543239  0.64894516  0.16525168
   0.07559523  0.74951408  0.23618884
   0.00373649  0.82206149  0.34197000
   0.92630518  0.92681765  0.40854021
   0.83465362  0.99387308  0.48397850
   0.75917158  0.07525573  0.58169660
   0.68330644  0.15729904  0.66624887
   0.66253725  0.16332770  0.82712534
   0.59143705  0.22420256  0.92109228
   0.49610274  0.31776463  0.99986477
   0.41010404  0.40845986  0.07237392
   0.32375933  0.49116577  0.14166728
   0.24666829  0.57430709  0.25660337
   0.16321993  0.64824768  0.33388360
   0.07700500  0.73969673  0.42268516
   0.00481804  0.82256365  0.47936233
   0.92266049  0.90133733  0.57583212
   0.83980118  0.00597607  0.64723042
   0.76069239  0.07082736  0.75329555
   0.75527388  0.08915590  0.91720917
   0.67547751  0.17517276  0.00986202
   0.57590496  0.24755892  0.09568599
   0.49406332  0.33185934  0.15211097
   0.39693716  0.40264546  0.24236748
   0.33401497  0.49635093  0.31898809
   0.23730844  0.57494379  0.42873374
   0.16281956  0.66445413  0.50102806
   0.09005442  0.74697573  0.58044944
   0.00325990  0.81764189  0.66778672
   0.92065809  0.91372149  0.73246223
   0.84582607  0.98083485  0.83528154
   0.82589707  0.00220096  0.00731154
   0.74811665  0.09599746  0.09744403
   0.67366811  0.17312213  0.15902643
   0.56495880  0.25216863  0.23423608
   0.51197823  0.33727578  0.33624775
   0.42998426  0.42976349  0.40751643
   0.34216518  0.49822231  0.49806463
   0.25825073  0.57167256  0.59415535
   0.17120262  0.65854279  0.68335432
   0.08833232  0.75674902  0.75002716
   0.99788496  0.83708138  0.83162620
   0.91321386  0.91616415  0.93553842
