 432 432   0   0
  0.2159961E+02  0.2105280E-08  0.2105280E-08  0.2105280E-08  0.5000000E-15
  1.000000000000000E-004
  CAR 
 Li                                      
      3.19162280     -3.49934728  301      0.22999520      1.00000000
     -3.499  0.0000E+00  0.0000E+00
     -3.477  0.0000E+00  0.0000E+00
     -3.455  0.0000E+00  0.0000E+00
     -3.432  0.0000E+00  0.0000E+00
     -3.410  0.0000E+00  0.0000E+00
     -3.388  0.0000E+00  0.0000E+00
     -3.366  0.4356E-13  0.9714E-15
     -3.343  0.1313E-09  0.2929E-11
     -3.321  0.1359E-06  0.3035E-08
     -3.299  0.4783E-04  0.1070E-05
     -3.276  0.5769E-02  0.1297E-03
     -3.254  0.2413E+00  0.5510E-02
     -3.232  0.3549E+01  0.8467E-01
     -3.209  0.1867E+02  0.5011E+00
     -3.187  0.3560E+02  0.1295E+01
     -3.165  0.2477E+02  0.1847E+01
     -3.142  0.6628E+01  0.1995E+01
     -3.120  0.5664E+01  0.2122E+01
     -3.098  0.2845E+02  0.2756E+01
     -3.076  0.7127E+02  0.4346E+01
     -3.053  0.8946E+02  0.6341E+01
     -3.031  0.5637E+02  0.7598E+01
     -3.009  0.1729E+02  0.7984E+01
     -2.986  0.1260E+02  0.8265E+01
     -2.964  0.4125E+02  0.9185E+01
     -2.942  0.7804E+02  0.1093E+02
     -2.919  0.8137E+02  0.1274E+02
     -2.897  0.4452E+02  0.1373E+02
     -2.875  0.1434E+02  0.1405E+02
     -2.853  0.2504E+02  0.1461E+02
     -2.830  0.7063E+02  0.1619E+02
     -2.808  0.1022E+03  0.1847E+02
     -2.786  0.9110E+02  0.2050E+02
     -2.763  0.5207E+02  0.2166E+02
     -2.741  0.2630E+02  0.2224E+02
     -2.719  0.5398E+02  0.2345E+02
     -2.696  0.1128E+03  0.2596E+02
     -2.674  0.1406E+03  0.2910E+02
     -2.652  0.1200E+03  0.3178E+02
     -2.630  0.7194E+02  0.3338E+02
     -2.607  0.2720E+02  0.3399E+02
     -2.585  0.2721E+02  0.3459E+02
     -2.563  0.7404E+02  0.3625E+02
     -2.540  0.9836E+02  0.3844E+02
     -2.518  0.5648E+02  0.3970E+02
     -2.496  0.2120E+02  0.4017E+02
     -2.473  0.3539E+02  0.4096E+02
     -2.451  0.7736E+02  0.4269E+02
     -2.429  0.1255E+03  0.4549E+02
     -2.406  0.1437E+03  0.4869E+02
     -2.384  0.1033E+03  0.5100E+02
     -2.362  0.5618E+02  0.5225E+02
     -2.340  0.7395E+02  0.5390E+02
     -2.317  0.1375E+03  0.5696E+02
     -2.295  0.1771E+03  0.6091E+02
     -2.273  0.1746E+03  0.6481E+02
     -2.250  0.1378E+03  0.6788E+02
     -2.228  0.7506E+02  0.6956E+02
     -2.206  0.3652E+02  0.7037E+02
     -2.183  0.5494E+02  0.7160E+02
     -2.161  0.8514E+02  0.7349E+02
     -2.139  0.7471E+02  0.7516E+02
     -2.117  0.3575E+02  0.7596E+02
     -2.094  0.3294E+02  0.7669E+02
     -2.072  0.8493E+02  0.7859E+02
     -2.050  0.1454E+03  0.8183E+02
     -2.027  0.1616E+03  0.8543E+02
     -2.005  0.1258E+03  0.8824E+02
     -1.983  0.6955E+02  0.8979E+02
     -1.960  0.5967E+02  0.9112E+02
     -1.938  0.1209E+03  0.9382E+02
     -1.916  0.1815E+03  0.9787E+02
     -1.894  0.1885E+03  0.1021E+03
     -1.871  0.1497E+03  0.1054E+03
     -1.849  0.8747E+02  0.1074E+03
     -1.827  0.5199E+02  0.1085E+03
     -1.804  0.8449E+02  0.1104E+03
     -1.782  0.1392E+03  0.1135E+03
     -1.760  0.1478E+03  0.1168E+03
     -1.737  0.1052E+03  0.1192E+03
     -1.715  0.7319E+02  0.1208E+03
     -1.693  0.1058E+03  0.1231E+03
     -1.670  0.1564E+03  0.1266E+03
     -1.648  0.1786E+03  0.1306E+03
     -1.626  0.1649E+03  0.1343E+03
     -1.604  0.1164E+03  0.1369E+03
     -1.581  0.7823E+02  0.1386E+03
     -1.559  0.1044E+03  0.1410E+03
     -1.537  0.1629E+03  0.1446E+03
     -1.514  0.1936E+03  0.1489E+03
     -1.492  0.1724E+03  0.1528E+03
     -1.470  0.1076E+03  0.1552E+03
     -1.447  0.5984E+02  0.1565E+03
     -1.425  0.7958E+02  0.1583E+03
     -1.403  0.1250E+03  0.1611E+03
     -1.381  0.1378E+03  0.1641E+03
     -1.358  0.1083E+03  0.1665E+03
     -1.336  0.6060E+02  0.1679E+03
     -1.314  0.5844E+02  0.1692E+03
     -1.291  0.1112E+03  0.1717E+03
     -1.269  0.1463E+03  0.1749E+03
     -1.247  0.1342E+03  0.1779E+03
     -1.224  0.1008E+03  0.1802E+03
     -1.202  0.1187E+03  0.1828E+03
     -1.180  0.1936E+03  0.1872E+03
     -1.158  0.2473E+03  0.1927E+03
     -1.135  0.2552E+03  0.1984E+03
     -1.113  0.2279E+03  0.2034E+03
     -1.091  0.1778E+03  0.2074E+03
     -1.068  0.1346E+03  0.2104E+03
     -1.046  0.1458E+03  0.2137E+03
     -1.024  0.1888E+03  0.2179E+03
     -1.001  0.1940E+03  0.2222E+03
     -0.979  0.1490E+03  0.2255E+03
     -0.957  0.8997E+02  0.2275E+03
     -0.934  0.6985E+02  0.2291E+03
     -0.912  0.1116E+03  0.2316E+03
     -0.890  0.1582E+03  0.2351E+03
     -0.868  0.1551E+03  0.2386E+03
     -0.845  0.1185E+03  0.2412E+03
     -0.823  0.1071E+03  0.2436E+03
     -0.801  0.1496E+03  0.2469E+03
     -0.778  0.1994E+03  0.2514E+03
     -0.756  0.2268E+03  0.2564E+03
     -0.734  0.2120E+03  0.2612E+03
     -0.711  0.1576E+03  0.2647E+03
     -0.689  0.1186E+03  0.2673E+03
     -0.667  0.1079E+03  0.2697E+03
     -0.645  0.7695E+02  0.2714E+03
     -0.622  0.5192E+02  0.2726E+03
     -0.600  0.9215E+02  0.2747E+03
     -0.578  0.1624E+03  0.2783E+03
     -0.555  0.2054E+03  0.2829E+03
     -0.533  0.2170E+03  0.2877E+03
     -0.511  0.2126E+03  0.2924E+03
     -0.488  0.2018E+03  0.2970E+03
     -0.466  0.1894E+03  0.3012E+03
     -0.444  0.1756E+03  0.3051E+03
     -0.422  0.1856E+03  0.3092E+03
     -0.399  0.2205E+03  0.3142E+03
     -0.377  0.2420E+03  0.3195E+03
     -0.355  0.2350E+03  0.3248E+03
     -0.332  0.1974E+03  0.3292E+03
     -0.310  0.1477E+03  0.3325E+03
     -0.288  0.1269E+03  0.3353E+03
     -0.265  0.1329E+03  0.3383E+03
     -0.243  0.1457E+03  0.3415E+03
     -0.221  0.1510E+03  0.3449E+03
     -0.198  0.1724E+03  0.3487E+03
     -0.176  0.2124E+03  0.3535E+03
     -0.154  0.2368E+03  0.3588E+03
     -0.132  0.2393E+03  0.3641E+03
     -0.109  0.2300E+03  0.3692E+03
     -0.087  0.2157E+03  0.3740E+03
     -0.065  0.1982E+03  0.3785E+03
     -0.042  0.1863E+03  0.3826E+03
     -0.020  0.1886E+03  0.3868E+03
      0.002  0.1974E+03  0.3912E+03
      0.025  0.1996E+03  0.3957E+03
      0.047  0.1831E+03  0.3998E+03
      0.069  0.1536E+03  0.4032E+03
      0.091  0.1388E+03  0.4063E+03
      0.114  0.1474E+03  0.4096E+03
      0.136  0.1634E+03  0.4132E+03
      0.158  0.1859E+03  0.4174E+03
      0.181  0.2046E+03  0.4219E+03
      0.203  0.2054E+03  0.4265E+03
      0.225  0.2026E+03  0.4310E+03
      0.248  0.2110E+03  0.4357E+03
      0.270  0.2168E+03  0.4406E+03
      0.292  0.2125E+03  0.4453E+03
      0.315  0.2089E+03  0.4500E+03
      0.337  0.2073E+03  0.4546E+03
      0.359  0.1982E+03  0.4590E+03
      0.381  0.1857E+03  0.4632E+03
      0.404  0.1820E+03  0.4672E+03
      0.426  0.1866E+03  0.4714E+03
      0.448  0.1971E+03  0.4758E+03
      0.471  0.2110E+03  0.4805E+03
      0.493  0.2238E+03  0.4855E+03
      0.515  0.2258E+03  0.4905E+03
      0.538  0.2175E+03  0.4954E+03
      0.560  0.2225E+03  0.5003E+03
      0.582  0.2370E+03  0.5056E+03
      0.604  0.2431E+03  0.5110E+03
      0.627  0.2446E+03  0.5165E+03
      0.649  0.2420E+03  0.5219E+03
      0.671  0.2312E+03  0.5270E+03
      0.694  0.2314E+03  0.5322E+03
      0.716  0.2348E+03  0.5374E+03
      0.738  0.2273E+03  0.5425E+03
      0.761  0.2208E+03  0.5474E+03
      0.783  0.2235E+03  0.5524E+03
      0.805  0.2285E+03  0.5575E+03
      0.827  0.2272E+03  0.5626E+03
      0.850  0.2295E+03  0.5677E+03
      0.872  0.2312E+03  0.5729E+03
      0.894  0.2185E+03  0.5777E+03
      0.917  0.2071E+03  0.5823E+03
      0.939  0.2066E+03  0.5870E+03
      0.961  0.2074E+03  0.5916E+03
      0.984  0.2038E+03  0.5961E+03
      1.006  0.1958E+03  0.6005E+03
      1.028  0.1930E+03  0.6048E+03
      1.051  0.1958E+03  0.6092E+03
      1.073  0.1992E+03  0.6136E+03
      1.095  0.1972E+03  0.6180E+03
      1.117  0.1864E+03  0.6222E+03
      1.140  0.1775E+03  0.6261E+03
      1.162  0.1823E+03  0.6302E+03
      1.184  0.1878E+03  0.6344E+03
      1.207  0.1802E+03  0.6384E+03
      1.229  0.1768E+03  0.6423E+03
      1.251  0.1781E+03  0.6463E+03
      1.274  0.1727E+03  0.6502E+03
      1.296  0.1725E+03  0.6540E+03
      1.318  0.1691E+03  0.6578E+03
      1.340  0.1532E+03  0.6612E+03
      1.363  0.1561E+03  0.6647E+03
      1.385  0.1721E+03  0.6685E+03
      1.407  0.1733E+03  0.6724E+03
      1.430  0.1708E+03  0.6762E+03
      1.452  0.1769E+03  0.6801E+03
      1.474  0.1862E+03  0.6843E+03
      1.497  0.1945E+03  0.6886E+03
      1.519  0.1884E+03  0.6928E+03
      1.541  0.1744E+03  0.6967E+03
      1.563  0.1721E+03  0.7006E+03
      1.586  0.1839E+03  0.7047E+03
      1.608  0.1891E+03  0.7089E+03
      1.630  0.1828E+03  0.7130E+03
      1.653  0.1784E+03  0.7169E+03
      1.675  0.1776E+03  0.7209E+03
      1.697  0.1807E+03  0.7249E+03
      1.720  0.1840E+03  0.7290E+03
      1.742  0.1805E+03  0.7331E+03
      1.764  0.1734E+03  0.7369E+03
      1.787  0.1705E+03  0.7407E+03
      1.809  0.1652E+03  0.7444E+03
      1.831  0.1624E+03  0.7480E+03
      1.853  0.1625E+03  0.7517E+03
      1.876  0.1528E+03  0.7551E+03
      1.898  0.1491E+03  0.7584E+03
      1.920  0.1477E+03  0.7617E+03
      1.943  0.1393E+03  0.7648E+03
      1.965  0.1270E+03  0.7676E+03
      1.987  0.1211E+03  0.7703E+03
      2.010  0.1256E+03  0.7731E+03
      2.032  0.1278E+03  0.7760E+03
      2.054  0.1251E+03  0.7788E+03
      2.076  0.1183E+03  0.7814E+03
      2.099  0.1091E+03  0.7838E+03
      2.121  0.1028E+03  0.7861E+03
      2.143  0.9850E+02  0.7883E+03
      2.166  0.9254E+02  0.7904E+03
      2.188  0.8844E+02  0.7924E+03
      2.210  0.7824E+02  0.7941E+03
      2.233  0.5493E+02  0.7953E+03
      2.255  0.3396E+02  0.7961E+03
      2.277  0.4199E+02  0.7970E+03
      2.299  0.7151E+02  0.7986E+03
      2.322  0.8949E+02  0.8006E+03
      2.344  0.8475E+02  0.8025E+03
      2.366  0.7782E+02  0.8043E+03
      2.389  0.8172E+02  0.8061E+03
      2.411  0.8359E+02  0.8079E+03
      2.433  0.8523E+02  0.8098E+03
      2.456  0.1018E+03  0.8121E+03
      2.478  0.1221E+03  0.8148E+03
      2.500  0.1280E+03  0.8177E+03
      2.523  0.1298E+03  0.8206E+03
      2.545  0.1420E+03  0.8237E+03
      2.567  0.1459E+03  0.8270E+03
      2.589  0.1310E+03  0.8299E+03
      2.612  0.1217E+03  0.8326E+03
      2.634  0.1305E+03  0.8355E+03
      2.656  0.1326E+03  0.8385E+03
      2.679  0.1239E+03  0.8413E+03
      2.701  0.1165E+03  0.8439E+03
      2.723  0.1157E+03  0.8464E+03
      2.746  0.1153E+03  0.8490E+03
      2.768  0.1192E+03  0.8517E+03
      2.790  0.1256E+03  0.8545E+03
      2.812  0.1311E+03  0.8574E+03
      2.835  0.1360E+03  0.8604E+03
      2.857  0.1226E+03  0.8632E+03
      2.879  0.8101E+02  0.8650E+03
      2.902  0.3543E+02  0.8658E+03
      2.924  0.9198E+01  0.8660E+03
      2.946  0.1217E+01  0.8660E+03
      2.969  0.6994E-01  0.8660E+03
      2.991  0.1555E-02  0.8660E+03
      3.013  0.1252E-04  0.8660E+03
      3.036  0.3518E-07  0.8660E+03
      3.058  0.3389E-10  0.8660E+03
      3.080  0.9956E-14  0.8660E+03
      3.102  0.0000E+00  0.8660E+03
      3.125  0.0000E+00  0.8660E+03
      3.147  0.0000E+00  0.8660E+03
      3.169  0.0000E+00  0.8660E+03
      3.192  0.0000E+00  0.8660E+03
