       N       E                     dE             d eps       ncg     rms          rms(c)
DAV:   1    -0.241337468759E+03   -0.24134E+03   -0.10295E+05  3464   0.649E+02
DAV:   2    -0.747292335170E+03   -0.50595E+03   -0.46171E+03  4004   0.656E+01
DAV:   3    -0.784664952087E+03   -0.37373E+02   -0.34270E+02  4480   0.141E+01
DAV:   4    -0.785959532733E+03   -0.12946E+01   -0.12767E+01  4064   0.288E+00
DAV:   5    -0.785990495620E+03   -0.30963E-01   -0.30918E-01  4208   0.469E-01    0.102E+01
DAV:   6    -0.775361331724E+03    0.10629E+02   -0.13202E+01  4048   0.452E+00    0.633E+00
DAV:   7    -0.773189305417E+03    0.21720E+01   -0.10169E+01  4096   0.438E+00    0.495E+00
DAV:   8    -0.770016373707E+03    0.31729E+01   -0.60125E+00  4064   0.273E+00    0.244E+00
DAV:   9    -0.769593468901E+03    0.42290E+00   -0.31548E+00  3808   0.141E+00    0.120E+00
DAV:  10    -0.769616450939E+03   -0.22982E-01   -0.66032E-01  3984   0.747E-01    0.852E-01
DAV:  11    -0.769569114659E+03    0.47336E-01   -0.17268E-01  3960   0.474E-01    0.570E-01
DAV:  12    -0.769550433028E+03    0.18682E-01   -0.39064E-02  3864   0.209E-01    0.264E-01
DAV:  13    -0.769550989117E+03   -0.55609E-03   -0.16781E-02  4000   0.134E-01    0.162E-01
DAV:  14    -0.769549512485E+03    0.14766E-02   -0.63923E-03  3984   0.967E-02    0.102E-01
DAV:  15    -0.769548716518E+03    0.79597E-03   -0.18193E-03  3952   0.497E-02    0.530E-02
DAV:  16    -0.769548586931E+03    0.12959E-03   -0.75649E-04  3752   0.247E-02    0.220E-02
DAV:  17    -0.769548596691E+03   -0.97596E-05   -0.13521E-04  4288   0.147E-02    0.187E-02
DAV:  18    -0.769548554506E+03    0.42185E-04   -0.59494E-05  4040   0.957E-03    0.775E-03
DAV:  19    -0.769548550234E+03    0.42712E-05   -0.21055E-05  2640   0.468E-03
   1 F= -.76954855E+03 E0= -.76950179E+03  d E =-.935277E-01
