Li                                      
           1
    21.052800    0.000000    0.000000
     0.000000   21.052800    0.000000
     0.000000    0.000000   21.052800
   Li
   432
Direct configuration=     1
   0.98045532  0.98788355  0.99157317
   0.92378853  0.09676141  0.06635817
   0.84170207  0.17644236  0.15346834
   0.73220283  0.26117182  0.25825085
   0.66286969  0.36959927  0.34125721
   0.58671602  0.42486884  0.43888246
   0.48797428  0.50133239  0.51037336
   0.41999249  0.58354979  0.60998727
   0.33555330  0.66654152  0.68540050
   0.24062457  0.75381067  0.76281156
   0.18146701  0.84052232  0.84546299
   0.08678255  0.93908601  0.92210761
   0.06614778  0.92102496  0.10619513
   0.99228581  0.01886373  0.16089967
   0.90994402  0.08700344  0.23749482
   0.81974461  0.15442114  0.30605725
   0.74220952  0.24675395  0.41137618
   0.65118997  0.34370921  0.49383257
   0.57711618  0.43756998  0.59170533
   0.48935844  0.49441286  0.66880085
   0.40182747  0.55955200  0.76888683
   0.35202171  0.66609814  0.85170090
   0.25404555  0.75295714  0.91353415
   0.15606698  0.85409264  0.01712110
   0.15823622  0.82289002  0.15574385
   0.08056961  0.94721926  0.22738712
   0.98712231  0.00979535  0.32325919
   0.94371728  0.09996055  0.41648045
   0.83845934  0.16540395  0.48367481
   0.75347124  0.24021551  0.58369065
   0.68239330  0.34484048  0.67553591
   0.57744993  0.42357431  0.73927688
   0.50445435  0.50722700  0.85617977
   0.41670164  0.55459805  0.92864700
   0.34515948  0.63714053  0.00390327
   0.25925786  0.73554251  0.09177716
   0.23154060  0.72741839  0.22720909
   0.14859901  0.81952590  0.34131241
   0.05862295  0.91161288  0.38268243
   0.00315585  0.99393658  0.51470500
   0.90538542  0.09143786  0.57689310
   0.83060482  0.16684076  0.65696837
   0.73126623  0.23765359  0.73162992
   0.67393514  0.33906015  0.84733533
   0.58879016  0.42407040  0.93422625
   0.49156588  0.49769977  0.99004264
   0.42296141  0.59844703  0.06194209
   0.36407578  0.66870084  0.17429710
   0.29981451  0.67256897  0.30902578
   0.21127211  0.75461046  0.41756051
   0.17289591  0.82411132  0.50702244
   0.09444648  0.91109107  0.58903701
   0.00324899  0.98979772  0.64095136
   0.95047283  0.09410946  0.72885321
   0.83656335  0.17108559  0.81333369
   0.74073571  0.23777451  0.88188357
   0.68394333  0.34072295  0.99868323
   0.57957450  0.44467333  0.07812581
   0.47480699  0.49819667  0.18185673
   0.40476217  0.60114977  0.25656894
   0.37480851  0.56308427  0.40750294
   0.34304947  0.63792091  0.48057810
   0.26738921  0.72566659  0.58303368
   0.18457911  0.79800842  0.66199101
   0.10338275  0.93105563  0.74967080
   0.98235147  0.99151386  0.81800376
   0.92589704  0.05275390  0.89693371
   0.84230622  0.18300079  0.98855828
   0.76890997  0.24699036  0.04944576
   0.68223277  0.34770840  0.16449595
   0.60559286  0.45427459  0.25602978
   0.50211341  0.48019455  0.32641681
   0.04704851  0.09744868  0.91752801
   0.97002375  0.20811830  0.99731428
   0.92254898  0.28128375  0.10356534
   0.82046788  0.33171268  0.16048980
   0.76406977  0.43020747  0.27895606
   0.67833708  0.50851319  0.39192715
   0.56778798  0.55679236  0.43660670
   0.48229400  0.67620086  0.47820843
   0.40009825  0.73638015  0.58651389
   0.35937473  0.82610691  0.64791239
   0.24947057  0.91897674  0.74517393
   0.17637529  0.03172997  0.86889492
   0.16166881  0.00488427  0.00129201
   0.07155058  0.08972819  0.06127771
   0.99725741  0.16909750  0.15455847
   0.92912139  0.25486701  0.25774882
   0.84542824  0.32276172  0.36098629
   0.76482072  0.41271185  0.44888216
   0.68865388  0.49622097  0.52923544
   0.55937649  0.58932566  0.58754317
   0.50055534  0.65896694  0.68754435
   0.41002743  0.72122773  0.76279309
   0.34822046  0.83909127  0.82296474
   0.24528967  0.89958368  0.93137103
   0.22563174  0.92141583  0.11985226
   0.15346095  0.00799810  0.18261230
   0.06509202  0.10457907  0.25094720
   0.01570677  0.17015380  0.30056380
   0.93388335  0.21928612  0.43632414
   0.85245966  0.31896061  0.50151295
   0.78501987  0.43917960  0.60138049
   0.63691916  0.53589171  0.65911396
   0.58648532  0.56842905  0.75925945
   0.48296276  0.65059411  0.85264930
   0.42490484  0.74106983  0.92064972
   0.33171223  0.85690667  0.00550900
   0.34447497  0.82540436  0.16811241
   0.24428792  0.91780444  0.25435124
   0.16246010  0.00265505  0.29690166
   0.08943584  0.11105653  0.40170933
   0.02814218  0.15760897  0.50531584
   0.94817434  0.25098370  0.58809204
   0.83388546  0.33429732  0.67694344
   0.74271107  0.45526854  0.72558423
   0.66656408  0.50547635  0.82561907
   0.60192956  0.56727330  0.93573047
   0.51015669  0.64898434  0.00253646
   0.41209017  0.74858162  0.08560045
   0.40411203  0.74149198  0.26599166
   0.30703292  0.81854041  0.32500643
   0.21388377  0.92685027  0.40203360
   0.16181602  0.97942928  0.50463908
   0.11094215  0.06753408  0.61607882
   0.04015165  0.17298718  0.65249938
   0.94415793  0.21910574  0.72464552
   0.81237756  0.31851503  0.77973922
   0.74510102  0.43078635  0.91142023
   0.70184947  0.51588573  0.97894321
   0.58197249  0.57050864  0.06083667
   0.51492080  0.66752168  0.15578449
   0.51674169  0.62359862  0.34596861
   0.41742061  0.74977043  0.40324929
   0.31383863  0.84424116  0.47654660
   0.23995715  0.93029698  0.59451397
   0.18756572  0.98906686  0.65223234
   0.10054547  0.08140777  0.76404150
   0.01594180  0.16773434  0.82230607
   0.92232140  0.26205125  0.87881419
   0.84659587  0.33384071  0.96419316
   0.77420310  0.42336732  0.06007021
   0.70759963  0.49622591  0.17352745
   0.59281105  0.58056308  0.26504219
   0.16799544  0.16769508  0.83277328
   0.06390894  0.28562435  0.87944270
   0.03469771  0.35233219  0.98368125
   0.88009449  0.42732036  0.06727322
   0.84935413  0.48972736  0.19227755
   0.74428215  0.59007225  0.28073765
   0.67715123  0.66643184  0.33597497
   0.58317880  0.72941151  0.41816560
   0.45205454  0.83130263  0.50486774
   0.40788400  0.92365709  0.57091391
   0.32677536  0.99632968  0.67751206
   0.25874832  0.07564527  0.72282065
   0.26698041  0.08994271  0.93026782
   0.14870067  0.18929878  0.98528414
   0.06835240  0.23247206  0.09864426
   0.99580956  0.34871381  0.16299368
   0.90673250  0.40257552  0.26837728
   0.84230625  0.48998059  0.34213556
   0.77308958  0.59423708  0.43580669
   0.65480799  0.64312088  0.50486113
   0.56322988  0.72478872  0.58449829
   0.47653019  0.80773860  0.70054156
   0.42374511  0.92808104  0.74850704
   0.31535773  0.99059446  0.84957228
   0.35599975  0.98779623  0.00297296
   0.25499525  0.09026364  0.08448959
   0.16124776  0.15635407  0.13105348
   0.08435259  0.25850507  0.22063575
   0.01359487  0.33222686  0.35460121
   0.91803800  0.40365955  0.43077115
   0.85172003  0.48278880  0.50943278
   0.75791872  0.59719430  0.60288223
   0.63333458  0.64970271  0.67207924
   0.58764451  0.75305645  0.77671640
   0.49170017  0.83911043  0.85401065
   0.43388597  0.91890757  0.91916489
   0.43428339  0.91259722  0.09957014
   0.36884191  0.03899093  0.17130445
   0.26457398  0.08669081  0.23369183
   0.18758609  0.17934842  0.31966716
   0.09053061  0.23293423  0.38425678
   0.03428174  0.31117349  0.49218177
   0.93110299  0.38841025  0.57183944
   0.84555610  0.50068933  0.64423116
   0.77106931  0.59174344  0.72722059
   0.68241278  0.63608428  0.80259226
   0.58076467  0.73568409  0.90253049
   0.52086529  0.82429344  0.98648579
   0.51385412  0.83812475  0.17115245
   0.40640084  0.89402287  0.28146141
   0.30975740  0.02182353  0.32604492
   0.26152743  0.08542067  0.40361397
   0.18005268  0.16608880  0.49160622
   0.11033034  0.23174822  0.59495941
   0.02514660  0.31647787  0.66481686
   0.90956208  0.41585366  0.73105117
   0.83881964  0.51386147  0.82375987
   0.75550170  0.58251762  0.89604164
   0.68143068  0.67719244  0.99396652
   0.58723644  0.76127913  0.07835203
   0.60679547  0.73391262  0.23871055
   0.50065920  0.80964647  0.33494534
   0.39033487  0.91628563  0.38802007
   0.33304974  0.99670370  0.49996386
   0.24673412  0.08937787  0.54414854
   0.18364405  0.14499874  0.67484090
   0.11078222  0.27710096  0.74961579
   0.99982096  0.34299573  0.82087264
   0.90343057  0.42134154  0.88659745
   0.82385969  0.52217131  0.95753507
   0.76325094  0.58407992  0.07060174
   0.67959049  0.64799182  0.16184561
   0.24436680  0.24096706  0.77601860
   0.16683300  0.35010071  0.84831239
   0.09408103  0.45918096  0.92606431
   0.98211527  0.51194837  0.99049746
   0.91696263  0.56417906  0.08053432
   0.80965492  0.63763503  0.16328563
   0.75500397  0.76200077  0.24377071
   0.66460032  0.82497552  0.35964942
   0.55828682  0.91845268  0.43058601
   0.45757006  0.00504817  0.48888848
   0.39884597  0.08040778  0.58891883
   0.31852197  0.16631919  0.66416922
   0.32966624  0.15608704  0.83211798
   0.25086684  0.25389018  0.90019411
   0.14069677  0.34547317  0.02514822
   0.05762968  0.44785115  0.11498685
   0.95529383  0.49318711  0.20164038
   0.89529036  0.59188005  0.27431945
   0.84086803  0.66570880  0.34688786
   0.73332659  0.72447874  0.43878014
   0.63797321  0.87014506  0.50062475
   0.54264351  0.90697254  0.59226234
   0.46234476  0.00038080  0.65821862
   0.39938451  0.08356859  0.78482569
   0.40211995  0.08359775  0.93202956
   0.35437487  0.16743508  0.03787046
   0.25389929  0.25498594  0.09371142
   0.16846580  0.33961745  0.14776899
   0.04645995  0.40836342  0.22267724
   0.99157615  0.49367424  0.33284557
   0.93025201  0.55413665  0.43025350
   0.83046520  0.67492093  0.51495759
   0.71473519  0.72549936  0.56999819
   0.65550441  0.84843383  0.66297171
   0.56393149  0.91466820  0.75826957
   0.51250461  0.00783758  0.83029690
   0.49529426  0.00994840  0.02906372
   0.43460014  0.09045025  0.11768158
   0.35546077  0.16256291  0.15532281
   0.25289730  0.24538357  0.21851297
   0.15976406  0.31636655  0.29163656
   0.09303858  0.41290362  0.42246532
   0.03495875  0.47455723  0.50043708
   0.95039353  0.58258152  0.59771743
   0.85656487  0.68294841  0.65710231
   0.73409941  0.76290474  0.72962493
   0.66152103  0.84607122  0.83505613
   0.60361591  0.90940493  0.91662622
   0.59874197  0.91349119  0.05667309
   0.54247917  0.01099586  0.18700008
   0.46527632  0.10782508  0.25456025
   0.34306488  0.18327849  0.33372596
   0.25611050  0.26213606  0.39520411
   0.14827095  0.32624884  0.49243849
   0.10256183  0.41286201  0.59596800
   0.99333693  0.48499831  0.68270708
   0.92729445  0.59945589  0.74593248
   0.84912074  0.69330838  0.82204089
   0.75724291  0.74669655  0.90406057
   0.67585546  0.82184880  0.00463692
   0.66749085  0.84557865  0.16738711
   0.58567550  0.90769590  0.26473465
   0.48535197  0.00665643  0.32587497
   0.42050607  0.08243102  0.40187072
   0.34951173  0.17804464  0.50347702
   0.25767224  0.24361173  0.57760472
   0.19016457  0.32751482  0.67715230
   0.10886269  0.42648763  0.75721976
   0.02828975  0.50368347  0.81742137
   0.91678308  0.58486389  0.91207642
   0.81767268  0.65883120  0.98699683
   0.75486356  0.75526270  0.07152812
   0.32648939  0.33364748  0.67315738
   0.24135571  0.43232709  0.77156766
   0.18459052  0.52273769  0.85939623
   0.07527203  0.58845954  0.93852272
   0.98360927  0.66908197  0.99150225
   0.88372996  0.76251233  0.07998595
   0.82632089  0.83653650  0.18357102
   0.74058920  0.92661718  0.25131527
   0.66242005  0.97802509  0.33991643
   0.58947152  0.05094731  0.40660782
   0.48610123  0.15368036  0.48148750
   0.41668014  0.26249441  0.61006104
   0.37779754  0.25486506  0.74117933
   0.33875345  0.34536193  0.86158834
   0.25216097  0.41673470  0.97216815
   0.17009692  0.51871873  0.01326006
   0.04389074  0.58392842  0.10628113
   0.97611030  0.66934578  0.17956822
   0.89248744  0.75273517  0.26181871
   0.80529815  0.84643393  0.34511138
   0.75381876  0.93798080  0.41867709
   0.63892720  0.99574035  0.52652818
   0.54563542  0.07327205  0.57752511
   0.47668190  0.18160273  0.67875977
   0.47093194  0.15360737  0.84971181
   0.42169117  0.24507332  0.88705994
   0.35390076  0.31776537  0.02231023
   0.26401813  0.40419071  0.12663309
   0.14904291  0.49579719  0.19503017
   0.05171070  0.57217531  0.24289229
   0.96994980  0.64180630  0.33436546
   0.93272109  0.74701572  0.41695971
   0.81167347  0.83233376  0.47399268
   0.75915643  0.91287082  0.59032394
   0.62909660  0.01655154  0.65678816
   0.55962764  0.09132435  0.74276375
   0.58608580  0.08747471  0.92286670
   0.49015895  0.19794300  0.01713542
   0.42590717  0.26678296  0.09865643
   0.34954348  0.32083307  0.16792626
   0.25576816  0.41204845  0.24827709
   0.16064290  0.50779931  0.32039731
   0.09096186  0.59196209  0.41500067
   0.01823760  0.66895696  0.51446744
   0.89745034  0.79004612  0.56767021
   0.81490866  0.83207332  0.65944095
   0.73049210  0.92260299  0.70726418
   0.65777519  0.00621126  0.83644418
   0.69631887  0.00638294  0.98059520
   0.61356015  0.08783515  0.06710099
   0.54891496  0.17158319  0.17137018
   0.43685851  0.22463873  0.24308879
   0.34771103  0.32150530  0.30122722
   0.25740090  0.38174211  0.38053124
   0.18178457  0.48791938  0.47540159
   0.08463013  0.52348482  0.60429396
   0.00943786  0.67919399  0.67863488
   0.91855076  0.76912428  0.74378386
   0.82287277  0.82750104  0.81101284
   0.76191453  0.90322529  0.90919728
   0.76664574  0.91204186  0.08378507
   0.66422806  0.99305737  0.15275263
   0.60931084  0.07615684  0.27522987
   0.51613163  0.19107366  0.34144728
   0.42548958  0.27859935  0.43538542
   0.32290450  0.33588136  0.50350532
   0.24690280  0.40175730  0.57936096
   0.19148402  0.49410154  0.66268238
   0.09507401  0.58480011  0.75339937
   0.00494625  0.66554872  0.83059285
   0.92624525  0.74798704  0.89848290
   0.82163510  0.80868704  0.98241109
   0.42265249  0.40375777  0.58952880
   0.30532905  0.49678175  0.65521751
   0.23984951  0.58824176  0.75767512
   0.17437592  0.66187541  0.85530448
   0.06068934  0.78309644  0.90664370
   0.97545860  0.86854460  0.03562297
   0.89299142  0.90284762  0.09499431
   0.84784319  0.01362796  0.14435756
   0.74999198  0.03336938  0.24299262
   0.66706465  0.15561430  0.33759391
   0.56151770  0.27823549  0.42916569
   0.49729287  0.32783910  0.52617094
   0.51416468  0.31585288  0.64694782
   0.41935652  0.42228926  0.74239699
   0.31571080  0.51621560  0.85411697
   0.23706117  0.59597524  0.94633710
   0.14048633  0.68083073  0.01933130
   0.05367172  0.76267300  0.10191761
   0.96843269  0.85376867  0.18809341
   0.88180709  0.91988383  0.25878369
   0.85349244  0.00292781  0.33834630
   0.75432997  0.07132747  0.41549004
   0.66034356  0.16737795  0.50032790
   0.57309053  0.22719316  0.59586152
   0.58070097  0.24535749  0.74892376
   0.50622672  0.33652801  0.83377678
   0.40058034  0.44555656  0.93802342
   0.33471306  0.49878274  0.03732835
   0.25447218  0.57953703  0.10498426
   0.16843195  0.62936956  0.15569636
   0.06247083  0.74468502  0.24028147
   0.96115285  0.81844652  0.30934490
   0.94313172  0.88084335  0.42880063
   0.84640093  0.00476210  0.50086697
   0.74577877  0.07633118  0.56434989
   0.67202073  0.16303933  0.66072831
   0.65455156  0.14670331  0.81975655
   0.58889095  0.23793163  0.91417833
   0.51717734  0.33921652  0.98260788
   0.41873755  0.41576425  0.09547506
   0.34025022  0.52879091  0.17487203
   0.24792051  0.57667117  0.24944810
   0.13671228  0.66275346  0.30555833
   0.07954197  0.76942282  0.43290584
   0.00926628  0.83278376  0.48916235
   0.90281416  0.91189428  0.60064219
   0.81943523  0.02134130  0.66796777
   0.73963724  0.08947654  0.73699561
   0.75791641  0.11599916  0.91953695
   0.67327949  0.15623744  0.97566078
   0.58834260  0.26570846  0.08015109
   0.54619416  0.34551517  0.16913142
   0.42828277  0.39577099  0.24097938
   0.33637524  0.47025642  0.31473242
   0.24804549  0.56115098  0.40772580
   0.14845877  0.65435259  0.49500836
   0.09634425  0.72321652  0.58231183
   0.01589426  0.81266782  0.66827942
   0.89945015  0.90315478  0.73386736
   0.83247052  0.00630432  0.80304361
   0.85009137  0.97382446  0.00251158
   0.77354160  0.07153589  0.07315739
   0.69215960  0.15789896  0.18579992
   0.61480105  0.27248762  0.25930492
   0.51178345  0.34282278  0.33914300
   0.41600733  0.40248435  0.38829703
   0.33819161  0.48836674  0.49915003
   0.25044202  0.58300122  0.57227641
   0.15739189  0.66568920  0.68384562
   0.09209485  0.76122501  0.76625372
   0.00429313  0.86661813  0.81414108
   0.91125670  0.91647474  0.89167728
