 504 504   0   0
  0.1922536E+02  0.2105579E-08  0.2083983E-08  0.2208205E-08  0.5000000E-15
  1.000000000000000E-004
  CAR 
 Li                                      
      3.61042304     -3.36082304  301      0.53089612      1.00000000
     -3.361  0.0000E+00  0.0000E+00
     -3.338  0.0000E+00  0.0000E+00
     -3.314  0.0000E+00  0.0000E+00
     -3.291  0.0000E+00  0.0000E+00
     -3.268  0.0000E+00  0.0000E+00
     -3.245  0.0000E+00  0.0000E+00
     -3.221  0.3583E-14  0.8327E-16
     -3.198  0.1462E-10  0.3397E-12
     -3.175  0.2717E-07  0.6318E-09
     -3.152  0.1563E-04  0.3639E-06
     -3.128  0.2809E-02  0.6564E-04
     -3.105  0.1597E+00  0.3777E-02
     -3.082  0.2924E+01  0.7173E-01
     -3.059  0.1759E+02  0.4805E+00
     -3.035  0.3541E+02  0.1303E+01
     -3.012  0.2410E+02  0.1864E+01
     -2.989  0.6650E+01  0.2018E+01
     -2.966  0.1183E+02  0.2293E+01
     -2.943  0.4485E+02  0.3335E+01
     -2.919  0.8119E+02  0.5222E+01
     -2.896  0.7611E+02  0.6991E+01
     -2.873  0.3615E+02  0.7831E+01
     -2.850  0.1403E+02  0.8157E+01
     -2.826  0.3376E+02  0.8941E+01
     -2.803  0.7461E+02  0.1067E+02
     -2.780  0.8521E+02  0.1265E+02
     -2.757  0.4870E+02  0.1379E+02
     -2.733  0.2552E+02  0.1438E+02
     -2.710  0.4572E+02  0.1544E+02
     -2.687  0.7798E+02  0.1725E+02
     -2.664  0.9808E+02  0.1953E+02
     -2.640  0.7541E+02  0.2129E+02
     -2.617  0.4164E+02  0.2225E+02
     -2.594  0.5902E+02  0.2362E+02
     -2.571  0.1053E+03  0.2607E+02
     -2.548  0.1328E+03  0.2916E+02
     -2.524  0.1228E+03  0.3201E+02
     -2.501  0.6774E+02  0.3359E+02
     -2.478  0.2717E+02  0.3422E+02
     -2.455  0.4852E+02  0.3535E+02
     -2.431  0.8969E+02  0.3743E+02
     -2.408  0.8164E+02  0.3933E+02
     -2.385  0.5470E+02  0.4060E+02
     -2.362  0.5950E+02  0.4198E+02
     -2.338  0.7371E+02  0.4370E+02
     -2.315  0.9596E+02  0.4593E+02
     -2.292  0.1177E+03  0.4866E+02
     -2.269  0.1147E+03  0.5133E+02
     -2.245  0.1037E+03  0.5374E+02
     -2.222  0.1110E+03  0.5632E+02
     -2.199  0.1406E+03  0.5958E+02
     -2.176  0.1624E+03  0.6336E+02
     -2.152  0.1453E+03  0.6673E+02
     -2.129  0.1060E+03  0.6920E+02
     -2.106  0.7294E+02  0.7089E+02
     -2.083  0.5517E+02  0.7217E+02
     -2.060  0.5746E+02  0.7351E+02
     -2.036  0.6720E+02  0.7507E+02
     -2.013  0.6863E+02  0.7667E+02
     -1.990  0.9105E+02  0.7878E+02
     -1.967  0.1254E+03  0.8170E+02
     -1.943  0.1354E+03  0.8484E+02
     -1.920  0.1268E+03  0.8779E+02
     -1.897  0.1180E+03  0.9053E+02
     -1.874  0.1127E+03  0.9315E+02
     -1.850  0.1160E+03  0.9584E+02
     -1.827  0.1307E+03  0.9888E+02
     -1.804  0.1676E+03  0.1028E+03
     -1.781  0.1834E+03  0.1070E+03
     -1.757  0.1379E+03  0.1102E+03
     -1.734  0.6810E+02  0.1118E+03
     -1.711  0.4956E+02  0.1130E+03
     -1.688  0.9044E+02  0.1151E+03
     -1.664  0.1275E+03  0.1180E+03
     -1.641  0.1366E+03  0.1212E+03
     -1.618  0.1404E+03  0.1245E+03
     -1.595  0.1512E+03  0.1280E+03
     -1.572  0.1523E+03  0.1315E+03
     -1.548  0.1560E+03  0.1352E+03
     -1.525  0.1546E+03  0.1387E+03
     -1.502  0.1331E+03  0.1418E+03
     -1.479  0.1197E+03  0.1446E+03
     -1.455  0.1350E+03  0.1478E+03
     -1.432  0.1526E+03  0.1513E+03
     -1.409  0.1582E+03  0.1550E+03
     -1.386  0.1469E+03  0.1584E+03
     -1.362  0.1133E+03  0.1610E+03
     -1.339  0.8800E+02  0.1631E+03
     -1.316  0.9861E+02  0.1654E+03
     -1.293  0.1150E+03  0.1680E+03
     -1.269  0.1172E+03  0.1708E+03
     -1.246  0.1220E+03  0.1736E+03
     -1.223  0.1407E+03  0.1769E+03
     -1.200  0.1437E+03  0.1802E+03
     -1.176  0.1425E+03  0.1835E+03
     -1.153  0.1523E+03  0.1870E+03
     -1.130  0.1599E+03  0.1908E+03
     -1.107  0.1767E+03  0.1949E+03
     -1.084  0.1869E+03  0.1992E+03
     -1.060  0.1860E+03  0.2035E+03
     -1.037  0.1941E+03  0.2080E+03
     -1.014  0.2055E+03  0.2128E+03
     -0.991  0.1985E+03  0.2174E+03
     -0.967  0.1770E+03  0.2215E+03
     -0.944  0.1592E+03  0.2252E+03
     -0.921  0.1384E+03  0.2285E+03
     -0.898  0.1154E+03  0.2311E+03
     -0.874  0.1122E+03  0.2338E+03
     -0.851  0.1385E+03  0.2370E+03
     -0.828  0.1557E+03  0.2406E+03
     -0.805  0.1489E+03  0.2440E+03
     -0.781  0.1483E+03  0.2475E+03
     -0.758  0.1724E+03  0.2515E+03
     -0.735  0.1903E+03  0.2559E+03
     -0.712  0.1888E+03  0.2603E+03
     -0.689  0.1678E+03  0.2642E+03
     -0.665  0.1540E+03  0.2678E+03
     -0.642  0.1437E+03  0.2711E+03
     -0.619  0.1381E+03  0.2743E+03
     -0.596  0.1534E+03  0.2779E+03
     -0.572  0.1603E+03  0.2816E+03
     -0.549  0.1509E+03  0.2851E+03
     -0.526  0.1553E+03  0.2887E+03
     -0.503  0.1724E+03  0.2927E+03
     -0.479  0.1922E+03  0.2972E+03
     -0.456  0.2179E+03  0.3023E+03
     -0.433  0.2222E+03  0.3074E+03
     -0.410  0.2055E+03  0.3122E+03
     -0.386  0.2008E+03  0.3169E+03
     -0.363  0.2101E+03  0.3218E+03
     -0.340  0.2166E+03  0.3268E+03
     -0.317  0.2115E+03  0.3317E+03
     -0.293  0.1995E+03  0.3363E+03
     -0.270  0.1791E+03  0.3405E+03
     -0.247  0.1677E+03  0.3444E+03
     -0.224  0.1684E+03  0.3483E+03
     -0.201  0.1658E+03  0.3522E+03
     -0.177  0.1683E+03  0.3561E+03
     -0.154  0.1802E+03  0.3603E+03
     -0.131  0.1887E+03  0.3647E+03
     -0.108  0.1883E+03  0.3690E+03
     -0.084  0.1794E+03  0.3732E+03
     -0.061  0.1780E+03  0.3773E+03
     -0.038  0.1930E+03  0.3818E+03
     -0.015  0.2145E+03  0.3868E+03
      0.009  0.2263E+03  0.3921E+03
      0.032  0.2285E+03  0.3974E+03
      0.055  0.2264E+03  0.4026E+03
      0.078  0.2187E+03  0.4077E+03
      0.102  0.2237E+03  0.4129E+03
      0.125  0.2269E+03  0.4182E+03
      0.148  0.2121E+03  0.4231E+03
      0.171  0.1951E+03  0.4277E+03
      0.195  0.1996E+03  0.4323E+03
      0.218  0.2121E+03  0.4372E+03
      0.241  0.2061E+03  0.4420E+03
      0.264  0.1950E+03  0.4465E+03
      0.287  0.2010E+03  0.4512E+03
      0.311  0.1942E+03  0.4557E+03
      0.334  0.1801E+03  0.4599E+03
      0.357  0.1912E+03  0.4644E+03
      0.380  0.2079E+03  0.4692E+03
      0.404  0.2054E+03  0.4740E+03
      0.427  0.2021E+03  0.4787E+03
      0.450  0.2236E+03  0.4838E+03
      0.473  0.2465E+03  0.4896E+03
      0.497  0.2490E+03  0.4954E+03
      0.520  0.2508E+03  0.5012E+03
      0.543  0.2547E+03  0.5071E+03
      0.566  0.2547E+03  0.5130E+03
      0.590  0.2539E+03  0.5189E+03
      0.613  0.2621E+03  0.5250E+03
      0.636  0.2653E+03  0.5312E+03
      0.659  0.2517E+03  0.5370E+03
      0.682  0.2410E+03  0.5426E+03
      0.706  0.2453E+03  0.5483E+03
      0.729  0.2500E+03  0.5541E+03
      0.752  0.2505E+03  0.5600E+03
      0.775  0.2480E+03  0.5657E+03
      0.799  0.2334E+03  0.5712E+03
      0.822  0.2136E+03  0.5761E+03
      0.845  0.2049E+03  0.5809E+03
      0.868  0.2158E+03  0.5859E+03
      0.892  0.2206E+03  0.5910E+03
      0.915  0.2086E+03  0.5959E+03
      0.938  0.1985E+03  0.6005E+03
      0.961  0.1939E+03  0.6050E+03
      0.985  0.1935E+03  0.6095E+03
      1.008  0.1955E+03  0.6140E+03
      1.031  0.1985E+03  0.6186E+03
      1.054  0.2053E+03  0.6234E+03
      1.078  0.2119E+03  0.6283E+03
      1.101  0.2132E+03  0.6333E+03
      1.124  0.2123E+03  0.6382E+03
      1.147  0.2114E+03  0.6431E+03
      1.170  0.2133E+03  0.6481E+03
      1.194  0.2137E+03  0.6531E+03
      1.217  0.2169E+03  0.6581E+03
      1.240  0.2225E+03  0.6633E+03
      1.263  0.2192E+03  0.6684E+03
      1.287  0.2158E+03  0.6734E+03
      1.310  0.2240E+03  0.6786E+03
      1.333  0.2208E+03  0.6837E+03
      1.356  0.2071E+03  0.6885E+03
      1.380  0.1998E+03  0.6932E+03
      1.403  0.1986E+03  0.6978E+03
      1.426  0.1973E+03  0.7024E+03
      1.449  0.2025E+03  0.7071E+03
      1.473  0.2107E+03  0.7120E+03
      1.496  0.2146E+03  0.7169E+03
      1.519  0.2101E+03  0.7218E+03
      1.542  0.2060E+03  0.7266E+03
      1.566  0.2025E+03  0.7313E+03
      1.589  0.1903E+03  0.7357E+03
      1.612  0.1810E+03  0.7400E+03
      1.635  0.1892E+03  0.7443E+03
      1.658  0.2037E+03  0.7491E+03
      1.682  0.2131E+03  0.7540E+03
      1.705  0.2131E+03  0.7590E+03
      1.728  0.2042E+03  0.7637E+03
      1.751  0.1983E+03  0.7683E+03
      1.775  0.1960E+03  0.7729E+03
      1.798  0.1897E+03  0.7773E+03
      1.821  0.1901E+03  0.7817E+03
      1.844  0.1967E+03  0.7863E+03
      1.868  0.1945E+03  0.7908E+03
      1.891  0.1895E+03  0.7952E+03
      1.914  0.1953E+03  0.7998E+03
      1.937  0.2094E+03  0.8046E+03
      1.961  0.2189E+03  0.8097E+03
      1.984  0.2200E+03  0.8148E+03
      2.007  0.2128E+03  0.8198E+03
      2.030  0.2014E+03  0.8244E+03
      2.054  0.1965E+03  0.8290E+03
      2.077  0.1921E+03  0.8335E+03
      2.100  0.1898E+03  0.8379E+03
      2.123  0.1872E+03  0.8422E+03
      2.146  0.1887E+03  0.8466E+03
      2.170  0.1891E+03  0.8510E+03
      2.193  0.1836E+03  0.8553E+03
      2.216  0.1849E+03  0.8596E+03
      2.239  0.1766E+03  0.8637E+03
      2.263  0.1696E+03  0.8676E+03
      2.286  0.1735E+03  0.8717E+03
      2.309  0.1766E+03  0.8758E+03
      2.332  0.1834E+03  0.8800E+03
      2.356  0.1886E+03  0.8844E+03
      2.379  0.1817E+03  0.8886E+03
      2.402  0.1674E+03  0.8925E+03
      2.425  0.1551E+03  0.8961E+03
      2.449  0.1516E+03  0.8996E+03
      2.472  0.1579E+03  0.9033E+03
      2.495  0.1628E+03  0.9071E+03
      2.518  0.1624E+03  0.9109E+03
      2.541  0.1626E+03  0.9146E+03
      2.565  0.1635E+03  0.9184E+03
      2.588  0.1577E+03  0.9221E+03
      2.611  0.1554E+03  0.9257E+03
      2.634  0.1430E+03  0.9290E+03
      2.658  0.1291E+03  0.9320E+03
      2.681  0.1361E+03  0.9352E+03
      2.704  0.1482E+03  0.9386E+03
      2.727  0.1455E+03  0.9420E+03
      2.751  0.1368E+03  0.9452E+03
      2.774  0.1402E+03  0.9485E+03
      2.797  0.1494E+03  0.9519E+03
      2.820  0.1585E+03  0.9556E+03
      2.844  0.1485E+03  0.9591E+03
      2.867  0.1309E+03  0.9621E+03
      2.890  0.1255E+03  0.9650E+03
      2.913  0.1257E+03  0.9680E+03
      2.937  0.1395E+03  0.9712E+03
      2.960  0.1454E+03  0.9746E+03
      2.983  0.1403E+03  0.9778E+03
      3.006  0.1373E+03  0.9810E+03
      3.029  0.1331E+03  0.9841E+03
      3.053  0.1259E+03  0.9870E+03
      3.076  0.1160E+03  0.9897E+03
      3.099  0.1161E+03  0.9924E+03
      3.122  0.1111E+03  0.9950E+03
      3.146  0.1018E+03  0.9974E+03
      3.169  0.9546E+02  0.9996E+03
      3.192  0.8491E+02  0.1002E+04
      3.215  0.7975E+02  0.1003E+04
      3.239  0.7869E+02  0.1005E+04
      3.262  0.7668E+02  0.1007E+04
      3.285  0.7132E+02  0.1009E+04
      3.308  0.4254E+02  0.1010E+04
      3.332  0.1209E+02  0.1010E+04
      3.355  0.1409E+01  0.1010E+04
      3.378  0.6138E-01  0.1010E+04
      3.401  0.9362E-03  0.1010E+04
      3.425  0.4774E-05  0.1010E+04
      3.448  0.7878E-08  0.1010E+04
      3.471  0.4118E-11  0.1010E+04
      3.494  0.0000E+00  0.1010E+04
      3.517  0.0000E+00  0.1010E+04
      3.541  0.0000E+00  0.1010E+04
      3.564  0.0000E+00  0.1010E+04
      3.587  0.0000E+00  0.1010E+04
      3.610  0.0000E+00  0.1010E+04
