       N       E                     dE             d eps       ncg     rms          rms(c)
DAV:   1    -0.236259495411E+03   -0.23626E+03   -0.12443E+05  4040   0.662E+02
DAV:   2    -0.866347529585E+03   -0.63009E+03   -0.57582E+03  4636   0.692E+01
DAV:   3    -0.912005652915E+03   -0.45658E+02   -0.41719E+02  5248   0.147E+01
DAV:   4    -0.913578392713E+03   -0.15727E+01   -0.15477E+01  4760   0.296E+00
DAV:   5    -0.913616864493E+03   -0.38472E-01   -0.38384E-01  4928   0.484E-01    0.117E+01
DAV:   6    -0.913570103247E+03    0.46761E-01   -0.17254E+01  4888   0.682E+00    0.109E+01
DAV:   7    -0.896996189628E+03    0.16574E+02   -0.15682E+01  5056   0.584E+00    0.591E+00
DAV:   8    -0.893438929422E+03    0.35573E+01   -0.86717E+00  4760   0.302E+00    0.324E+00
DAV:   9    -0.892788419217E+03    0.65051E+00   -0.46746E+00  4600   0.180E+00    0.179E+00
DAV:  10    -0.892838756649E+03   -0.50337E-01   -0.11245E+00  4728   0.113E+00    0.163E+00
DAV:  11    -0.892567215299E+03    0.27154E+00   -0.45150E-01  4664   0.708E-01    0.766E-01
DAV:  12    -0.892571726750E+03   -0.45115E-02   -0.13468E-01  4744   0.374E-01    0.585E-01
DAV:  13    -0.892548766735E+03    0.22960E-01   -0.73732E-02  4736   0.297E-01    0.364E-01
DAV:  14    -0.892543210001E+03    0.55567E-02   -0.22465E-02  4712   0.166E-01    0.225E-01
DAV:  15    -0.892541641398E+03    0.15686E-02   -0.96004E-03  4776   0.121E-01    0.165E-01
DAV:  16    -0.892538957611E+03    0.26838E-02   -0.40722E-03  4680   0.725E-02    0.702E-02
DAV:  17    -0.892539059766E+03   -0.10216E-03   -0.14306E-03  4624   0.383E-02    0.517E-02
DAV:  18    -0.892538793405E+03    0.26636E-03   -0.71952E-04  4624   0.287E-02    0.268E-02
DAV:  19    -0.892538744171E+03    0.49234E-04   -0.16252E-04  4608   0.132E-02    0.155E-02
DAV:  20    -0.892538724966E+03    0.19205E-04   -0.61734E-05  4608   0.799E-03    0.913E-03
DAV:  21    -0.892538720316E+03    0.46497E-05   -0.18447E-05  3256   0.548E-03
   1 F= -.89253872E+03 E0= -.89248138E+03  d E =-.114683E+00
