 500 500   0   0
  0.2349479E+02  0.2273250E-08  0.2273250E-08  0.2273250E-08  0.5000000E-15
  1.000000000000000E-004
  CAR 
 Li                                      
      2.76192464     -3.59527986  301      0.03100661      1.00000000
     -3.595  0.0000E+00  0.0000E+00
     -3.574  0.0000E+00  0.0000E+00
     -3.553  0.0000E+00  0.0000E+00
     -3.532  0.0000E+00  0.0000E+00
     -3.511  0.0000E+00  0.0000E+00
     -3.489  0.0000E+00  0.0000E+00
     -3.468  0.1572E-13  0.3331E-15
     -3.447  0.3915E-10  0.8299E-12
     -3.426  0.3490E-07  0.7404E-09
     -3.405  0.1173E-04  0.2492E-06
     -3.383  0.1494E-02  0.3191E-04
     -3.362  0.7283E-01  0.1575E-02
     -3.341  0.1372E+01  0.3065E-01
     -3.320  0.1011E+02  0.2450E+00
     -3.299  0.2949E+02  0.8700E+00
     -3.277  0.3429E+02  0.1597E+01
     -3.256  0.1620E+02  0.1940E+01
     -3.235  0.6838E+01  0.2085E+01
     -3.214  0.2269E+02  0.2566E+01
     -3.193  0.6178E+02  0.3875E+01
     -3.171  0.8993E+02  0.5781E+01
     -3.150  0.7110E+02  0.7287E+01
     -3.129  0.2941E+02  0.7910E+01
     -3.108  0.1571E+02  0.8243E+01
     -3.087  0.4253E+02  0.9145E+01
     -3.066  0.8405E+02  0.1093E+02
     -3.044  0.8791E+02  0.1279E+02
     -3.023  0.4665E+02  0.1378E+02
     -3.002  0.2139E+02  0.1423E+02
     -2.981  0.4705E+02  0.1523E+02
     -2.960  0.1007E+03  0.1736E+02
     -2.938  0.1195E+03  0.1989E+02
     -2.917  0.7572E+02  0.2150E+02
     -2.896  0.3482E+02  0.2224E+02
     -2.875  0.5473E+02  0.2339E+02
     -2.854  0.1150E+03  0.2583E+02
     -2.832  0.1571E+03  0.2916E+02
     -2.811  0.1366E+03  0.3206E+02
     -2.790  0.7132E+02  0.3357E+02
     -2.769  0.3029E+02  0.3421E+02
     -2.748  0.4506E+02  0.3516E+02
     -2.726  0.8061E+02  0.3687E+02
     -2.705  0.8341E+02  0.3864E+02
     -2.684  0.5366E+02  0.3978E+02
     -2.663  0.4606E+02  0.4075E+02
     -2.642  0.8872E+02  0.4263E+02
     -2.621  0.1376E+03  0.4555E+02
     -2.599  0.1488E+03  0.4870E+02
     -2.578  0.1095E+03  0.5102E+02
     -2.557  0.6449E+02  0.5239E+02
     -2.536  0.9083E+02  0.5431E+02
     -2.515  0.1653E+03  0.5782E+02
     -2.493  0.2096E+03  0.6226E+02
     -2.472  0.1918E+03  0.6632E+02
     -2.451  0.1218E+03  0.6890E+02
     -2.430  0.5430E+02  0.7006E+02
     -2.409  0.4775E+02  0.7107E+02
     -2.387  0.8033E+02  0.7277E+02
     -2.366  0.8767E+02  0.7463E+02
     -2.345  0.5618E+02  0.7582E+02
     -2.324  0.4954E+02  0.7687E+02
     -2.303  0.1012E+03  0.7901E+02
     -2.281  0.1582E+03  0.8237E+02
     -2.260  0.1711E+03  0.8599E+02
     -2.239  0.1291E+03  0.8873E+02
     -2.218  0.8193E+02  0.9046E+02
     -2.197  0.1031E+03  0.9265E+02
     -2.176  0.1683E+03  0.9621E+02
     -2.154  0.2040E+03  0.1005E+03
     -2.133  0.1824E+03  0.1044E+03
     -2.112  0.1219E+03  0.1070E+03
     -2.091  0.7880E+02  0.1087E+03
     -2.070  0.1014E+03  0.1108E+03
     -2.048  0.1457E+03  0.1139E+03
     -2.027  0.1486E+03  0.1170E+03
     -2.006  0.1071E+03  0.1193E+03
     -1.985  0.8459E+02  0.1211E+03
     -1.964  0.1297E+03  0.1239E+03
     -1.942  0.1896E+03  0.1279E+03
     -1.921  0.2055E+03  0.1322E+03
     -1.900  0.1688E+03  0.1358E+03
     -1.879  0.1100E+03  0.1381E+03
     -1.858  0.1060E+03  0.1404E+03
     -1.836  0.1636E+03  0.1438E+03
     -1.815  0.2117E+03  0.1483E+03
     -1.794  0.1977E+03  0.1525E+03
     -1.773  0.1246E+03  0.1552E+03
     -1.752  0.7464E+02  0.1567E+03
     -1.730  0.1013E+03  0.1589E+03
     -1.709  0.1433E+03  0.1619E+03
     -1.688  0.1408E+03  0.1649E+03
     -1.667  0.1025E+03  0.1671E+03
     -1.646  0.7823E+02  0.1687E+03
     -1.625  0.1145E+03  0.1712E+03
     -1.603  0.1627E+03  0.1746E+03
     -1.582  0.1503E+03  0.1778E+03
     -1.561  0.1072E+03  0.1801E+03
     -1.540  0.1212E+03  0.1826E+03
     -1.519  0.1932E+03  0.1867E+03
     -1.497  0.2566E+03  0.1922E+03
     -1.476  0.2853E+03  0.1982E+03
     -1.455  0.2625E+03  0.2038E+03
     -1.434  0.1940E+03  0.2079E+03
     -1.413  0.1443E+03  0.2109E+03
     -1.391  0.1702E+03  0.2145E+03
     -1.370  0.2123E+03  0.2190E+03
     -1.349  0.2007E+03  0.2233E+03
     -1.328  0.1478E+03  0.2264E+03
     -1.307  0.1029E+03  0.2286E+03
     -1.285  0.1152E+03  0.2311E+03
     -1.264  0.1612E+03  0.2345E+03
     -1.243  0.1765E+03  0.2382E+03
     -1.222  0.1515E+03  0.2414E+03
     -1.201  0.1520E+03  0.2446E+03
     -1.180  0.1995E+03  0.2489E+03
     -1.158  0.2335E+03  0.2538E+03
     -1.137  0.2311E+03  0.2587E+03
     -1.116  0.1897E+03  0.2627E+03
     -1.095  0.1190E+03  0.2653E+03
     -1.074  0.7527E+02  0.2669E+03
     -1.052  0.7621E+02  0.2685E+03
     -1.031  0.8208E+02  0.2702E+03
     -1.010  0.8210E+02  0.2719E+03
     -0.989  0.1141E+03  0.2744E+03
     -0.968  0.1956E+03  0.2785E+03
     -0.946  0.2764E+03  0.2844E+03
     -0.925  0.3033E+03  0.2908E+03
     -0.904  0.2769E+03  0.2967E+03
     -0.883  0.2350E+03  0.3016E+03
     -0.862  0.2225E+03  0.3064E+03
     -0.840  0.2434E+03  0.3115E+03
     -0.819  0.2674E+03  0.3172E+03
     -0.798  0.2798E+03  0.3231E+03
     -0.777  0.2530E+03  0.3285E+03
     -0.756  0.1886E+03  0.3325E+03
     -0.735  0.1417E+03  0.3355E+03
     -0.713  0.1347E+03  0.3383E+03
     -0.692  0.1436E+03  0.3414E+03
     -0.671  0.1418E+03  0.3444E+03
     -0.650  0.1595E+03  0.3478E+03
     -0.629  0.2077E+03  0.3522E+03
     -0.607  0.2323E+03  0.3571E+03
     -0.586  0.2136E+03  0.3616E+03
     -0.565  0.1780E+03  0.3654E+03
     -0.544  0.1616E+03  0.3688E+03
     -0.523  0.1936E+03  0.3729E+03
     -0.501  0.2475E+03  0.3781E+03
     -0.480  0.2794E+03  0.3841E+03
     -0.459  0.2751E+03  0.3899E+03
     -0.438  0.2391E+03  0.3950E+03
     -0.417  0.2054E+03  0.3993E+03
     -0.395  0.2024E+03  0.4036E+03
     -0.374  0.2065E+03  0.4080E+03
     -0.353  0.1892E+03  0.4120E+03
     -0.332  0.1662E+03  0.4155E+03
     -0.311  0.1644E+03  0.4190E+03
     -0.290  0.1943E+03  0.4231E+03
     -0.268  0.2371E+03  0.4281E+03
     -0.247  0.2601E+03  0.4336E+03
     -0.226  0.2618E+03  0.4392E+03
     -0.205  0.2514E+03  0.4445E+03
     -0.184  0.2392E+03  0.4496E+03
     -0.162  0.2340E+03  0.4546E+03
     -0.141  0.2259E+03  0.4593E+03
     -0.120  0.1958E+03  0.4635E+03
     -0.099  0.1652E+03  0.4670E+03
     -0.078  0.1860E+03  0.4709E+03
     -0.056  0.2382E+03  0.4760E+03
     -0.035  0.2724E+03  0.4817E+03
     -0.014  0.2815E+03  0.4877E+03
      0.007  0.2770E+03  0.4936E+03
      0.028  0.2695E+03  0.4993E+03
      0.050  0.2552E+03  0.5047E+03
      0.071  0.2367E+03  0.5097E+03
      0.092  0.2301E+03  0.5146E+03
      0.113  0.2493E+03  0.5199E+03
      0.134  0.2919E+03  0.5261E+03
      0.155  0.3207E+03  0.5329E+03
      0.177  0.3235E+03  0.5397E+03
      0.198  0.3177E+03  0.5464E+03
      0.219  0.3174E+03  0.5532E+03
      0.240  0.3234E+03  0.5600E+03
      0.261  0.3217E+03  0.5668E+03
      0.283  0.3083E+03  0.5734E+03
      0.304  0.2869E+03  0.5795E+03
      0.325  0.2660E+03  0.5851E+03
      0.346  0.2501E+03  0.5904E+03
      0.367  0.2242E+03  0.5951E+03
      0.389  0.2064E+03  0.5995E+03
      0.410  0.2203E+03  0.6042E+03
      0.431  0.2292E+03  0.6090E+03
      0.452  0.2182E+03  0.6137E+03
      0.473  0.2101E+03  0.6181E+03
      0.495  0.2033E+03  0.6224E+03
      0.516  0.1890E+03  0.6264E+03
      0.537  0.1765E+03  0.6302E+03
      0.558  0.1716E+03  0.6338E+03
      0.579  0.1820E+03  0.6377E+03
      0.600  0.2011E+03  0.6419E+03
      0.622  0.2247E+03  0.6467E+03
      0.643  0.2600E+03  0.6522E+03
      0.664  0.2882E+03  0.6583E+03
      0.685  0.2922E+03  0.6645E+03
      0.706  0.2855E+03  0.6705E+03
      0.728  0.2806E+03  0.6765E+03
      0.749  0.2814E+03  0.6825E+03
      0.770  0.2803E+03  0.6884E+03
      0.791  0.2816E+03  0.6944E+03
      0.812  0.2780E+03  0.7003E+03
      0.834  0.2602E+03  0.7058E+03
      0.855  0.2380E+03  0.7108E+03
      0.876  0.2194E+03  0.7155E+03
      0.897  0.2147E+03  0.7200E+03
      0.918  0.2257E+03  0.7248E+03
      0.940  0.2351E+03  0.7298E+03
      0.961  0.2349E+03  0.7348E+03
      0.982  0.2378E+03  0.7398E+03
      1.003  0.2467E+03  0.7450E+03
      1.024  0.2502E+03  0.7503E+03
      1.045  0.2426E+03  0.7555E+03
      1.067  0.2315E+03  0.7604E+03
      1.088  0.2153E+03  0.7649E+03
      1.109  0.1888E+03  0.7689E+03
      1.130  0.1714E+03  0.7726E+03
      1.151  0.1707E+03  0.7762E+03
      1.173  0.1607E+03  0.7796E+03
      1.194  0.1347E+03  0.7824E+03
      1.215  0.1245E+03  0.7851E+03
      1.236  0.1430E+03  0.7881E+03
      1.257  0.1608E+03  0.7915E+03
      1.279  0.1723E+03  0.7952E+03
      1.300  0.1908E+03  0.7992E+03
      1.321  0.2017E+03  0.8035E+03
      1.342  0.2061E+03  0.8079E+03
      1.363  0.2219E+03  0.8126E+03
      1.385  0.2406E+03  0.8177E+03
      1.406  0.2437E+03  0.8228E+03
      1.427  0.2352E+03  0.8278E+03
      1.448  0.2304E+03  0.8327E+03
      1.469  0.2316E+03  0.8376E+03
      1.490  0.2318E+03  0.8425E+03
      1.512  0.2241E+03  0.8473E+03
      1.533  0.2064E+03  0.8516E+03
      1.554  0.1886E+03  0.8556E+03
      1.575  0.1789E+03  0.8594E+03
      1.596  0.1681E+03  0.8630E+03
      1.618  0.1458E+03  0.8661E+03
      1.639  0.1369E+03  0.8690E+03
      1.660  0.1495E+03  0.8721E+03
      1.681  0.1526E+03  0.8754E+03
      1.702  0.1561E+03  0.8787E+03
      1.724  0.1695E+03  0.8823E+03
      1.745  0.1832E+03  0.8862E+03
      1.766  0.1890E+03  0.8902E+03
      1.787  0.1815E+03  0.8940E+03
      1.808  0.1758E+03  0.8977E+03
      1.830  0.1742E+03  0.9014E+03
      1.851  0.1640E+03  0.9049E+03
      1.872  0.1528E+03  0.9081E+03
      1.893  0.1487E+03  0.9113E+03
      1.914  0.1537E+03  0.9145E+03
      1.935  0.1592E+03  0.9179E+03
      1.957  0.1575E+03  0.9213E+03
      1.978  0.1594E+03  0.9246E+03
      1.999  0.1687E+03  0.9282E+03
      2.020  0.1741E+03  0.9319E+03
      2.041  0.1717E+03  0.9355E+03
      2.063  0.1638E+03  0.9390E+03
      2.084  0.1533E+03  0.9423E+03
      2.105  0.1452E+03  0.9453E+03
      2.126  0.1479E+03  0.9485E+03
      2.147  0.1572E+03  0.9518E+03
      2.169  0.1668E+03  0.9553E+03
      2.190  0.1766E+03  0.9591E+03
      2.211  0.1870E+03  0.9630E+03
      2.232  0.1887E+03  0.9670E+03
      2.253  0.1785E+03  0.9708E+03
      2.275  0.1728E+03  0.9745E+03
      2.296  0.1707E+03  0.9781E+03
      2.317  0.1651E+03  0.9816E+03
      2.338  0.1586E+03  0.9850E+03
      2.359  0.1525E+03  0.9882E+03
      2.380  0.1486E+03  0.9913E+03
      2.402  0.1482E+03  0.9945E+03
      2.423  0.1365E+03  0.9974E+03
      2.444  0.1091E+03  0.9997E+03
      2.465  0.7112E+02  0.1001E+04
      2.486  0.3060E+02  0.1002E+04
      2.508  0.6937E+01  0.1002E+04
      2.529  0.7201E+00  0.1002E+04
      2.550  0.3178E-01  0.1002E+04
      2.571  0.5713E-03  0.1002E+04
      2.592  0.4074E-05  0.1002E+04
      2.614  0.1131E-07  0.1002E+04
      2.635  0.1207E-10  0.1002E+04
      2.656  0.5239E-14  0.1002E+04
      2.677  0.0000E+00  0.1002E+04
      2.698  0.0000E+00  0.1002E+04
      2.720  0.0000E+00  0.1002E+04
      2.741  0.0000E+00  0.1002E+04
      2.762  0.0000E+00  0.1002E+04
