Li                                      
           1
    22.732500   -0.000000    0.000000
    -0.000000   22.732500    0.000000
     0.000000    0.000000   22.732500
   Li
   500
Direct configuration=     1
   0.00677272  0.01498567  0.00339280
   0.98054880  0.10279369  0.10798276
   0.00584074  0.22921316  0.21031998
   0.01887689  0.30882102  0.32404642
   0.02285872  0.39054992  0.41215117
   0.00566438  0.50715420  0.49535092
   0.00296442  0.58433958  0.59855945
   0.98856382  0.68333911  0.71191894
   0.00493952  0.77726298  0.82089229
   0.00897634  0.88922753  0.91837504
   0.08977818  0.02706269  0.10536077
   0.10620906  0.11631257  0.20051925
   0.09896499  0.19764859  0.33721770
   0.12481074  0.30829278  0.42676866
   0.08487317  0.41076427  0.50691883
   0.12495494  0.52996349  0.59709821
   0.10376082  0.61257133  0.69889482
   0.10404234  0.68345615  0.82452980
   0.11150951  0.79499421  0.91603146
   0.10760730  0.90175962  0.01709962
   0.20959822  0.00168324  0.17855032
   0.18278419  0.10320263  0.29932077
   0.20509395  0.19609429  0.40018946
   0.20136841  0.28553818  0.50238387
   0.19544754  0.39229826  0.58616097
   0.18291025  0.50537378  0.69726598
   0.20078196  0.59966156  0.78122917
   0.18956137  0.68737525  0.89979178
   0.21139565  0.78526848  0.99595618
   0.21035809  0.90845048  0.08408293
   0.28419308  0.00561308  0.28199685
   0.28196110  0.09156601  0.38630944
   0.29067162  0.20818384  0.50996169
   0.28589242  0.31010916  0.60350073
   0.29177261  0.42195168  0.70076781
   0.30352208  0.51060666  0.80775400
   0.28638375  0.61842623  0.91796771
   0.30321460  0.68270535  0.99659062
   0.30370139  0.77575959  0.09907685
   0.30342275  0.91063030  0.20484180
   0.39605521  0.00998406  0.41355869
   0.38860276  0.10054625  0.51621931
   0.39791778  0.21328840  0.60853598
   0.39261107  0.30226685  0.71045616
   0.38398226  0.40304079  0.81027762
   0.40981239  0.49415908  0.91754375
   0.40180895  0.58095831  0.00912747
   0.40067902  0.71902715  0.10973888
   0.39587271  0.79793600  0.19580413
   0.37735861  0.93427406  0.29661745
   0.50116001  0.01208736  0.51726072
   0.50696664  0.11595248  0.59685725
   0.48385179  0.19127944  0.71038493
   0.49055291  0.30282136  0.80609080
   0.50018535  0.39644926  0.92941039
   0.50766689  0.50128614  0.01463373
   0.49901221  0.60193331  0.10488677
   0.49655948  0.69673381  0.17311253
   0.47091026  0.81604595  0.29304664
   0.47710083  0.91841521  0.40508475
   0.62987479  0.99942658  0.58098245
   0.59675469  0.09183909  0.70244522
   0.62869115  0.19973724  0.78989352
   0.61334077  0.29076047  0.91097248
   0.60049110  0.36441595  0.01537536
   0.60567775  0.48377600  0.10421496
   0.61101099  0.58323971  0.21367171
   0.57382789  0.71645172  0.28809416
   0.58159924  0.81096010  0.39498353
   0.61163187  0.90547316  0.51666325
   0.71714419  0.99053492  0.68721807
   0.70371076  0.09455992  0.77548905
   0.71961833  0.21052386  0.87857431
   0.72405177  0.29184252  0.98775869
   0.70488069  0.38071779  0.09479923
   0.69106779  0.47574702  0.19959007
   0.68005408  0.59895508  0.30337934
   0.69321786  0.71018620  0.39728524
   0.68478881  0.78411025  0.48238172
   0.69672664  0.87604141  0.59677392
   0.80465923  0.99289984  0.80186030
   0.80205806  0.09654253  0.87887896
   0.81046005  0.19318884  0.99636142
   0.81502854  0.29722848  0.08918846
   0.81358763  0.38686920  0.20932153
   0.80216921  0.48847828  0.30665600
   0.78584672  0.59176982  0.38745262
   0.79577785  0.70439238  0.49230191
   0.80654054  0.77866699  0.57957286
   0.80314151  0.88975302  0.68837745
   0.88790771  0.99399057  0.91497251
   0.90833785  0.11817209  0.99212844
   0.89349335  0.19523182  0.10936805
   0.90037582  0.28996924  0.20921961
   0.92459216  0.39339087  0.30098362
   0.91727037  0.50308068  0.40462474
   0.91292620  0.61513138  0.47682878
   0.90189627  0.70225641  0.59075939
   0.91644686  0.78419136  0.70847043
   0.90682947  0.89255315  0.80647669
   0.11313306  0.10956080  0.99056346
   0.10895645  0.19083716  0.10050403
   0.09708302  0.29384036  0.20547698
   0.10577738  0.40063818  0.32295065
   0.11027533  0.50389249  0.41338916
   0.10640832  0.61606808  0.49807028
   0.11437186  0.70332839  0.59886667
   0.11795691  0.78866040  0.70435978
   0.10527782  0.91378713  0.83412449
   0.10856489  0.97869165  0.92068839
   0.20933983  0.10401505  0.08485701
   0.20125323  0.21095024  0.19325864
   0.19547279  0.29977656  0.30726572
   0.19372862  0.40120444  0.42035874
   0.19776936  0.51653400  0.51296998
   0.20757583  0.63208468  0.59818342
   0.22519941  0.70022190  0.70431991
   0.18420391  0.79305088  0.81321245
   0.20568103  0.89129184  0.92296063
   0.20379500  0.99735355  0.00828805
   0.30098470  0.11281464  0.21155292
   0.30431440  0.15985596  0.28578762
   0.29452622  0.28499795  0.39440297
   0.29776527  0.40138323  0.50563282
   0.28190734  0.49957285  0.60200510
   0.30140477  0.58818404  0.69630277
   0.29532902  0.70953699  0.80380225
   0.30605615  0.77239222  0.91579491
   0.31895855  0.91254690  0.00314394
   0.31473459  0.02581494  0.10907350
   0.41121991  0.06926983  0.32598550
   0.38019652  0.19155709  0.41643420
   0.36078392  0.29317749  0.52571233
   0.39517647  0.39134539  0.62362957
   0.40559472  0.50393228  0.69838533
   0.38435679  0.58269570  0.82825621
   0.41794329  0.68260511  0.91166317
   0.40552817  0.81196993  0.98457460
   0.38605312  0.91013782  0.07917814
   0.38489466  0.00390176  0.18910998
   0.51931448  0.08732932  0.40690703
   0.49632294  0.19848452  0.50499970
   0.50741844  0.30224488  0.60116116
   0.50456768  0.41044877  0.71915071
   0.49565315  0.49674446  0.82487924
   0.49527210  0.59171663  0.90974020
   0.47358974  0.71153917  0.03895899
   0.50578442  0.82583084  0.09562476
   0.47421725  0.91150661  0.19011029
   0.47530007  0.99702271  0.29311384
   0.60106506  0.11650408  0.49245272
   0.62626949  0.20649681  0.59414189
   0.61609911  0.30621397  0.69963324
   0.58212051  0.40319265  0.82418511
   0.60172595  0.51068261  0.91578486
   0.61661149  0.60701831  0.01000856
   0.60106130  0.70773772  0.10954274
   0.57580736  0.81293895  0.20517475
   0.56542744  0.91446114  0.30426326
   0.62066270  0.00069270  0.40563516
   0.71858489  0.10049395  0.59225800
   0.71653564  0.19365487  0.69692935
   0.72659771  0.31397307  0.78639499
   0.69213542  0.41282880  0.91564485
   0.70050097  0.50755436  0.01091190
   0.70743881  0.60049936  0.11286437
   0.70029566  0.69240614  0.20272101
   0.68918025  0.79798419  0.28976858
   0.69247055  0.88291667  0.39205264
   0.69504127  0.97821355  0.48423399
   0.81523740  0.09692561  0.69293996
   0.80777816  0.21032435  0.77973687
   0.81580865  0.32091294  0.87290671
   0.81998208  0.41452743  0.99521696
   0.79800005  0.50660360  0.10423278
   0.79517785  0.59437446  0.22004565
   0.81194975  0.69183705  0.29972738
   0.77839995  0.77982559  0.39383107
   0.80189289  0.88284088  0.50021382
   0.80192084  0.00504634  0.58766624
   0.90164017  0.08899986  0.78574586
   0.90408467  0.21246555  0.87280453
   0.89872791  0.28771878  0.98811941
   0.90095215  0.40171639  0.10206644
   0.90346757  0.49472185  0.20625641
   0.92442890  0.59761821  0.30846274
   0.88771796  0.69786824  0.38909214
   0.93634895  0.78702418  0.48314215
   0.89369293  0.87876616  0.61432300
   0.91590375  0.99595239  0.69373151
   0.01003598  0.10552057  0.88732524
   0.98767563  0.19991194  0.99403248
   0.99832049  0.29604933  0.09224194
   0.00088724  0.38941653  0.20194911
   0.01440423  0.49376938  0.32033275
   0.02161629  0.62847973  0.39142152
   0.00597391  0.69471603  0.50057716
   0.99932107  0.78712844  0.61496602
   0.00943041  0.88634703  0.70752477
   0.01121638  0.99155019  0.81179779
   0.17993954  0.19032778  0.99967131
   0.21064195  0.28377079  0.08279197
   0.21379022  0.39093029  0.18510649
   0.19104837  0.49402882  0.31077509
   0.20585683  0.61240675  0.39510954
   0.20622643  0.70162018  0.50272340
   0.21182832  0.78279945  0.60782309
   0.18427913  0.89340134  0.70123939
   0.19132553  0.97637847  0.79854351
   0.19062603  0.07920068  0.87039689
   0.29732080  0.19736318  0.09342293
   0.30028432  0.28954908  0.19044046
   0.30171894  0.38662915  0.31746973
   0.29861607  0.50797363  0.41916016
   0.31714307  0.61503336  0.51608926
   0.32136413  0.68642964  0.60172010
   0.28957976  0.79988757  0.67644169
   0.28133003  0.88520550  0.77709705
   0.28782098  0.98507687  0.87934309
   0.28986145  0.10241822  0.97841341
   0.37977986  0.18381286  0.18743882
   0.37700997  0.27210774  0.29099674
   0.38823364  0.39718714  0.39486346
   0.40923979  0.49582449  0.50342058
   0.40498168  0.59074518  0.60535506
   0.41023765  0.68862810  0.72500683
   0.36168668  0.77540603  0.81227828
   0.39684303  0.89194990  0.90321835
   0.38916943  0.00511967  0.98660685
   0.40702369  0.11225343  0.06883620
   0.48794136  0.17009784  0.28546828
   0.48995145  0.26759611  0.41806042
   0.49197835  0.38502318  0.48540326
   0.50283940  0.49121718  0.59668683
   0.48318254  0.58487183  0.72955045
   0.49997375  0.69251378  0.81161673
   0.50462800  0.79859111  0.90601446
   0.50966702  0.92360545  0.99109184
   0.47348652  0.01955530  0.07419872
   0.48193179  0.11440612  0.19208161
   0.59177061  0.21127276  0.38884368
   0.60638630  0.29630660  0.51080013
   0.58886034  0.39965874  0.58865822
   0.61886301  0.49834860  0.71954012
   0.60252196  0.58172380  0.80818128
   0.58625375  0.69774304  0.91249717
   0.59092163  0.81340500  0.01360139
   0.59138982  0.91926147  0.11555730
   0.57285465  0.00406115  0.20700235
   0.60586038  0.06850351  0.29733968
   0.71314932  0.22821972  0.50173637
   0.72458578  0.30346455  0.61616006
   0.69656132  0.43140460  0.70257016
   0.71594682  0.49834630  0.81780654
   0.70372736  0.60442857  0.90562752
   0.70923659  0.71138794  0.01884684
   0.68610037  0.82065987  0.10468733
   0.68320823  0.92296108  0.20886146
   0.69320511  0.99492249  0.31186322
   0.71885380  0.09446267  0.38656014
   0.81423620  0.21107103  0.60068984
   0.82436180  0.31991132  0.69817293
   0.80208440  0.41965065  0.79500642
   0.79348447  0.50028326  0.91411376
   0.79898779  0.59477444  0.00556366
   0.80378841  0.69360608  0.10612290
   0.80745929  0.80560574  0.20116705
   0.80815958  0.89949293  0.28330357
   0.80236291  0.98985866  0.40263109
   0.81699654  0.10002551  0.51691140
   0.91075600  0.21155783  0.68641770
   0.91378834  0.29715163  0.78965752
   0.91109884  0.41938341  0.88387211
   0.91558533  0.50994114  0.00423609
   0.88486910  0.60015285  0.09742211
   0.90908392  0.69718299  0.20493843
   0.90928676  0.78775075  0.29867086
   0.91094601  0.89473386  0.40220553
   0.89328622  0.97246959  0.50183489
   0.91705071  0.08821530  0.59870556
   0.99860612  0.20183474  0.79603427
   0.02326646  0.31284823  0.89038513
   0.99060763  0.39455648  0.99863092
   0.00482653  0.50729828  0.10406094
   0.00892887  0.59383954  0.20896939
   0.02528031  0.72618903  0.28489893
   0.03042809  0.80330822  0.37718158
   0.00526935  0.88862714  0.50667649
   0.00182205  0.96779418  0.60973442
   0.99268775  0.07943202  0.68412927
   0.10135788  0.19560190  0.89854011
   0.10580830  0.30390786  0.99392514
   0.09714235  0.41698886  0.09177391
   0.10648715  0.48060916  0.22127297
   0.11585029  0.60543391  0.29334911
   0.12087621  0.70225798  0.38743646
   0.10546343  0.79646338  0.50415489
   0.11213797  0.87368918  0.61380336
   0.07270180  0.98710945  0.68980448
   0.08007579  0.08287207  0.78504320
   0.29766851  0.28661662  0.97830209
   0.30759518  0.40588168  0.10016960
   0.29441977  0.49225651  0.20685696
   0.30103557  0.59307803  0.28893537
   0.32529827  0.69963773  0.39319978
   0.29942615  0.77587118  0.49612409
   0.28880430  0.89629752  0.58924560
   0.29232365  0.00262903  0.68983541
   0.29181809  0.09513213  0.81947971
   0.26960361  0.19081873  0.89242701
   0.39213820  0.29193257  0.10956801
   0.37453153  0.40220067  0.20985313
   0.38410761  0.49009511  0.28744332
   0.41995261  0.58767430  0.39427238
   0.40407195  0.69587302  0.48826104
   0.39877567  0.80657681  0.59986569
   0.40756852  0.90147583  0.68517257
   0.39580623  0.99684726  0.78773503
   0.39114854  0.09713766  0.87414045
   0.38875568  0.19047818  0.97552597
   0.47558345  0.30259555  0.19305534
   0.48371039  0.38619046  0.33269986
   0.49294300  0.49485595  0.38935151
   0.48946089  0.59107766  0.48585081
   0.49278384  0.70313342  0.62109938
   0.48824069  0.80345526  0.71044987
   0.47806868  0.87750593  0.80326336
   0.51921611  0.98574523  0.88330237
   0.50664341  0.11337701  0.96328099
   0.48691306  0.20547207  0.08735964
   0.58359153  0.30241189  0.28339545
   0.58731407  0.38877263  0.41031344
   0.57893752  0.50279751  0.48204593
   0.58543300  0.58739190  0.60246132
   0.59161099  0.69142633  0.70951081
   0.59213664  0.77996397  0.81086034
   0.59778495  0.87485382  0.88241928
   0.59194622  0.00844096  0.99561139
   0.59781728  0.10149622  0.09068869
   0.58948440  0.21482986  0.18782735
   0.71733920  0.30198087  0.39636198
   0.70594894  0.40816917  0.48025420
   0.68323161  0.51525148  0.59542684
   0.72593563  0.59204700  0.70603201
   0.70257410  0.68330031  0.79492448
   0.70069979  0.80417632  0.90265930
   0.68371102  0.90666259  0.99289751
   0.69325964  0.01437969  0.10966185
   0.70181285  0.10038219  0.19473709
   0.73507990  0.20039348  0.30492618
   0.81492525  0.32850180  0.51110899
   0.78980128  0.41892269  0.61124876
   0.80732126  0.51198787  0.69591002
   0.80361927  0.61730269  0.81810090
   0.80727533  0.70594971  0.91070118
   0.78789963  0.81138901  0.02431783
   0.79355603  0.92492571  0.11599004
   0.79724843  0.02013603  0.21079304
   0.82037225  0.10612451  0.31380015
   0.81388208  0.20953184  0.41538365
   0.88964716  0.33527002  0.60549784
   0.91914141  0.41340699  0.67865469
   0.89462798  0.51435081  0.79221195
   0.90004410  0.59279008  0.90493680
   0.88881334  0.69843628  0.01984754
   0.87939589  0.79931915  0.09781710
   0.91912805  0.90507259  0.20606633
   0.91535719  0.00896503  0.30971866
   0.89052620  0.08450001  0.42054117
   0.90619778  0.20987789  0.51094839
   0.99768791  0.30523443  0.66495048
   0.00198204  0.39634692  0.78589282
   0.99332826  0.51965387  0.87426519
   0.00318902  0.60184807  0.99811756
   0.00082798  0.68623894  0.08895110
   0.00365839  0.79289336  0.19085491
   0.98642782  0.91083902  0.29353231
   0.01818222  0.97962874  0.42446740
   0.98676786  0.08594118  0.51019162
   0.00181684  0.19305244  0.57980307
   0.09012429  0.32807856  0.76909381
   0.08042049  0.40071184  0.89281738
   0.09766832  0.48397567  0.97495718
   0.09541832  0.59452092  0.08320506
   0.11545216  0.70232380  0.19312905
   0.12262485  0.80584752  0.27323488
   0.10594107  0.89602784  0.37113314
   0.11712654  0.98412183  0.51639806
   0.10815144  0.08139469  0.60320455
   0.08506966  0.19192365  0.68489379
   0.17538632  0.29734179  0.89083192
   0.20429786  0.41451127  0.01290961
   0.21100100  0.49233689  0.09627527
   0.19011611  0.59225951  0.18648692
   0.21044482  0.70075490  0.30022110
   0.21185885  0.79268512  0.40253383
   0.21021707  0.88786570  0.47310203
   0.20724661  0.99220181  0.61840825
   0.18306384  0.08459512  0.70427596
   0.18141974  0.20808541  0.80547086
   0.39004291  0.40587003  0.99556479
   0.40035684  0.48500692  0.11698541
   0.39949425  0.60069951  0.18963572
   0.40631437  0.67747130  0.27618406
   0.39720953  0.78883955  0.39199466
   0.37913304  0.89106545  0.48787361
   0.38817784  0.99897157  0.61147853
   0.38586150  0.11656820  0.70950328
   0.38350306  0.22141837  0.81661713
   0.40972138  0.30041796  0.89525309
   0.49957554  0.40281255  0.10184894
   0.49643478  0.50135336  0.21150467
   0.49300338  0.58929147  0.28727180
   0.50817234  0.69447379  0.36924884
   0.50119439  0.80488275  0.50895858
   0.49148998  0.91810975  0.59920053
   0.50354968  0.00427531  0.69244128
   0.48872711  0.09559577  0.80120892
   0.51518795  0.19562586  0.90025272
   0.47496950  0.30760625  0.98256448
   0.57328350  0.37996924  0.20813956
   0.58274137  0.47778122  0.29907882
   0.58888867  0.61734234  0.38296924
   0.59082274  0.71619210  0.50622296
   0.59414784  0.82191840  0.62412605
   0.61154808  0.89874456  0.69222199
   0.60283857  0.00462292  0.80128231
   0.62267140  0.11154278  0.87061691
   0.60900241  0.20898210  0.00539949
   0.60693490  0.30139310  0.08293123
   0.72117329  0.38256904  0.29795090
   0.67364220  0.50873850  0.39878894
   0.68672174  0.60590349  0.49119320
   0.67210909  0.70750053  0.57946333
   0.68257066  0.77962033  0.68702954
   0.71139187  0.88058029  0.77173662
   0.68960082  0.97964390  0.89239913
   0.71727737  0.07648776  0.99541303
   0.71689091  0.21029981  0.10864260
   0.72485496  0.32275585  0.19551768
   0.81212920  0.41075504  0.39958779
   0.79566272  0.50900475  0.49820842
   0.78557603  0.60337621  0.58987239
   0.79578807  0.72131646  0.70089029
   0.80669622  0.80911615  0.79705097
   0.79411573  0.91265706  0.92484322
   0.81305559  0.00102541  0.99843790
   0.79916231  0.11377263  0.10421275
   0.81988775  0.19542060  0.21282875
   0.81529352  0.29283606  0.31233091
   0.88988207  0.42819634  0.51775827
   0.88400231  0.52342167  0.58461491
   0.87649446  0.59479519  0.68628603
   0.88390184  0.70220834  0.81689506
   0.88826127  0.81979675  0.91879928
   0.91666453  0.89956861  0.01181073
   0.90322472  0.01070460  0.09678006
   0.91182344  0.11347013  0.19935904
   0.89966279  0.19761568  0.33526357
   0.89676890  0.31446799  0.41909417
   0.98898688  0.44904163  0.59126658
   0.00459292  0.52495327  0.69007832
   0.99626254  0.60946573  0.79436705
   0.99560665  0.69225907  0.91893899
   0.00771607  0.80825672  0.00315779
   0.98921974  0.92149978  0.10508215
   0.00452738  0.00338966  0.20168044
   0.02141853  0.10670795  0.29973149
   0.00619355  0.20299741  0.40868730
   0.01341506  0.30732635  0.49911115
   0.07970527  0.40545737  0.68220053
   0.09338626  0.49471257  0.78990137
   0.10006192  0.60921931  0.90552194
   0.10661152  0.71426850  0.98921987
   0.10979622  0.80528412  0.10311838
   0.10286607  0.90151706  0.19224683
   0.09299563  0.01758976  0.29160446
   0.09226111  0.08476035  0.40118550
   0.10388781  0.17948537  0.49338791
   0.09552038  0.29947521  0.58599672
   0.17998869  0.41108500  0.80038701
   0.20936761  0.51720713  0.89507836
   0.19046445  0.60096137  0.00279274
   0.19760980  0.70407662  0.07819535
   0.20997012  0.79960149  0.19856448
   0.20284905  0.90416881  0.30201349
   0.20419423  0.01914352  0.39751747
   0.20693641  0.09769833  0.49429591
   0.19057283  0.21272978  0.60669630
   0.18532958  0.32728522  0.69566710
   0.28499369  0.40115244  0.89550988
   0.31422355  0.51191474  0.98817789
   0.29821400  0.59944449  0.09654782
   0.29298142  0.68427829  0.18235064
   0.30484497  0.79727020  0.30793715
   0.29354823  0.88935402  0.38397361
   0.30112369  0.98154552  0.53019933
   0.29017630  0.11796672  0.60889645
   0.27136721  0.19748923  0.70634623
   0.29188093  0.28715261  0.79732094
