 432 432   0   0
  0.1857636E+02  0.2002080E-08  0.2002080E-08  0.2002080E-08  0.5000000E-15
  1.000000000000000E-004
  CAR 
 Li                                      
      3.93142109     -3.31655504  301      0.63218464      1.00000000
     -3.317  0.0000E+00  0.0000E+00
     -3.292  0.0000E+00  0.0000E+00
     -3.268  0.0000E+00  0.0000E+00
     -3.244  0.0000E+00  0.0000E+00
     -3.220  0.0000E+00  0.0000E+00
     -3.196  0.0000E+00  0.0000E+00
     -3.172  0.0000E+00  0.0000E+00
     -3.147  0.1638E-11  0.3958E-13
     -3.123  0.5513E-08  0.1332E-09
     -3.099  0.5211E-05  0.1260E-06
     -3.075  0.1397E-02  0.3389E-04
     -3.051  0.1079E+00  0.2641E-02
     -3.027  0.2448E+01  0.6179E-01
     -3.002  0.1673E+02  0.4661E+00
     -2.978  0.3527E+02  0.1318E+01
     -2.954  0.2320E+02  0.1879E+01
     -2.930  0.4773E+01  0.1994E+01
     -2.906  0.1896E+01  0.2040E+01
     -2.882  0.1812E+02  0.2477E+01
     -2.858  0.7040E+02  0.4178E+01
     -2.833  0.9849E+02  0.6558E+01
     -2.809  0.5013E+02  0.7769E+01
     -2.785  0.9157E+01  0.7990E+01
     -2.761  0.4208E+01  0.8092E+01
     -2.737  0.3050E+02  0.8829E+01
     -2.713  0.8726E+02  0.1094E+02
     -2.688  0.8936E+02  0.1310E+02
     -2.664  0.3304E+02  0.1389E+02
     -2.640  0.6150E+01  0.1404E+02
     -2.616  0.2021E+02  0.1453E+02
     -2.592  0.7819E+02  0.1642E+02
     -2.568  0.1237E+03  0.1941E+02
     -2.543  0.8267E+02  0.2141E+02
     -2.519  0.2262E+02  0.2195E+02
     -2.495  0.8889E+01  0.2217E+02
     -2.471  0.5123E+02  0.2340E+02
     -2.447  0.1454E+03  0.2692E+02
     -2.423  0.1726E+03  0.3108E+02
     -2.398  0.9451E+02  0.3337E+02
     -2.374  0.2385E+02  0.3394E+02
     -2.350  0.6810E+01  0.3411E+02
     -2.326  0.3411E+02  0.3493E+02
     -2.302  0.9046E+02  0.3712E+02
     -2.278  0.8613E+02  0.3920E+02
     -2.254  0.2991E+02  0.3992E+02
     -2.229  0.1152E+02  0.4020E+02
     -2.205  0.5273E+02  0.4147E+02
     -2.181  0.1355E+03  0.4475E+02
     -2.157  0.1629E+03  0.4868E+02
     -2.133  0.1022E+03  0.5115E+02
     -2.109  0.3341E+02  0.5196E+02
     -2.084  0.2745E+02  0.5262E+02
     -2.060  0.9926E+02  0.5502E+02
     -2.036  0.1994E+03  0.5984E+02
     -2.012  0.2184E+03  0.6511E+02
     -1.988  0.1410E+03  0.6852E+02
     -1.964  0.5213E+02  0.6978E+02
     -1.939  0.1582E+02  0.7016E+02
     -1.915  0.3980E+02  0.7112E+02
     -1.891  0.8636E+02  0.7321E+02
     -1.867  0.7965E+02  0.7514E+02
     -1.843  0.3204E+02  0.7591E+02
     -1.819  0.1972E+02  0.7639E+02
     -1.794  0.7872E+02  0.7829E+02
     -1.770  0.1748E+03  0.8251E+02
     -1.746  0.1848E+03  0.8698E+02
     -1.722  0.9800E+02  0.8934E+02
     -1.698  0.2749E+02  0.9001E+02
     -1.674  0.3236E+02  0.9079E+02
     -1.650  0.1188E+03  0.9366E+02
     -1.625  0.2117E+03  0.9877E+02
     -1.601  0.2095E+03  0.1038E+03
     -1.577  0.1268E+03  0.1069E+03
     -1.553  0.4257E+02  0.1079E+03
     -1.529  0.3013E+02  0.1087E+03
     -1.505  0.9642E+02  0.1110E+03
     -1.480  0.1648E+03  0.1150E+03
     -1.456  0.1410E+03  0.1184E+03
     -1.432  0.6154E+02  0.1199E+03
     -1.408  0.4449E+02  0.1209E+03
     -1.384  0.1192E+03  0.1238E+03
     -1.360  0.1985E+03  0.1286E+03
     -1.335  0.2023E+03  0.1335E+03
     -1.311  0.1323E+03  0.1367E+03
     -1.287  0.5602E+02  0.1380E+03
     -1.263  0.6331E+02  0.1396E+03
     -1.239  0.1532E+03  0.1433E+03
     -1.215  0.2200E+03  0.1486E+03
     -1.190  0.1885E+03  0.1531E+03
     -1.166  0.9330E+02  0.1554E+03
     -1.142  0.2931E+02  0.1561E+03
     -1.118  0.4665E+02  0.1572E+03
     -1.094  0.1184E+03  0.1601E+03
     -1.070  0.1572E+03  0.1639E+03
     -1.046  0.1191E+03  0.1668E+03
     -1.021  0.4922E+02  0.1680E+03
     -0.997  0.4109E+02  0.1690E+03
     -0.973  0.9792E+02  0.1713E+03
     -0.949  0.1435E+03  0.1748E+03
     -0.925  0.1269E+03  0.1779E+03
     -0.901  0.7921E+02  0.1798E+03
     -0.876  0.8971E+02  0.1819E+03
     -0.852  0.1886E+03  0.1865E+03
     -0.828  0.2646E+03  0.1929E+03
     -0.804  0.2816E+03  0.1997E+03
     -0.780  0.2460E+03  0.2056E+03
     -0.756  0.1410E+03  0.2090E+03
     -0.731  0.7601E+02  0.2109E+03
     -0.707  0.1278E+03  0.2140E+03
     -0.683  0.1982E+03  0.2188E+03
     -0.659  0.1931E+03  0.2234E+03
     -0.635  0.1295E+03  0.2265E+03
     -0.611  0.5990E+02  0.2280E+03
     -0.586  0.6257E+02  0.2295E+03
     -0.562  0.1403E+03  0.2329E+03
     -0.538  0.1838E+03  0.2373E+03
     -0.514  0.1359E+03  0.2406E+03
     -0.490  0.7164E+02  0.2423E+03
     -0.466  0.9891E+02  0.2447E+03
     -0.442  0.1807E+03  0.2491E+03
     -0.417  0.2211E+03  0.2544E+03
     -0.393  0.2205E+03  0.2598E+03
     -0.369  0.1821E+03  0.2642E+03
     -0.345  0.1304E+03  0.2673E+03
     -0.321  0.1083E+03  0.2699E+03
     -0.297  0.6691E+02  0.2716E+03
     -0.272  0.3228E+02  0.2723E+03
     -0.248  0.7112E+02  0.2741E+03
     -0.224  0.1496E+03  0.2777E+03
     -0.200  0.1948E+03  0.2824E+03
     -0.176  0.2164E+03  0.2876E+03
     -0.152  0.2099E+03  0.2927E+03
     -0.127  0.1691E+03  0.2968E+03
     -0.103  0.1440E+03  0.3002E+03
     -0.079  0.1519E+03  0.3039E+03
     -0.055  0.1787E+03  0.3082E+03
     -0.031  0.2125E+03  0.3134E+03
     -0.007  0.2309E+03  0.3189E+03
      0.018  0.2244E+03  0.3244E+03
      0.042  0.1863E+03  0.3289E+03
      0.066  0.1287E+03  0.3320E+03
      0.090  0.1132E+03  0.3347E+03
      0.114  0.1398E+03  0.3381E+03
      0.138  0.1558E+03  0.3418E+03
      0.162  0.1600E+03  0.3457E+03
      0.187  0.1879E+03  0.3502E+03
      0.211  0.2179E+03  0.3555E+03
      0.235  0.2280E+03  0.3610E+03
      0.259  0.2292E+03  0.3666E+03
      0.283  0.2216E+03  0.3719E+03
      0.307  0.1908E+03  0.3765E+03
      0.332  0.1569E+03  0.3803E+03
      0.356  0.1587E+03  0.3841E+03
      0.380  0.1832E+03  0.3886E+03
      0.404  0.1953E+03  0.3933E+03
      0.428  0.1903E+03  0.3979E+03
      0.452  0.1650E+03  0.4019E+03
      0.477  0.1351E+03  0.4051E+03
      0.501  0.1402E+03  0.4085E+03
      0.525  0.1642E+03  0.4125E+03
      0.549  0.1729E+03  0.4167E+03
      0.573  0.1831E+03  0.4211E+03
      0.597  0.1913E+03  0.4257E+03
      0.622  0.1813E+03  0.4301E+03
      0.646  0.1819E+03  0.4345E+03
      0.670  0.1908E+03  0.4391E+03
      0.694  0.1893E+03  0.4437E+03
      0.718  0.1904E+03  0.4483E+03
      0.742  0.1933E+03  0.4529E+03
      0.766  0.1838E+03  0.4574E+03
      0.791  0.1715E+03  0.4615E+03
      0.815  0.1725E+03  0.4657E+03
      0.839  0.1649E+03  0.4697E+03
      0.863  0.1704E+03  0.4738E+03
      0.887  0.1961E+03  0.4785E+03
      0.911  0.2042E+03  0.4835E+03
      0.936  0.2145E+03  0.4887E+03
      0.960  0.2255E+03  0.4941E+03
      0.984  0.2221E+03  0.4995E+03
      1.008  0.2305E+03  0.5050E+03
      1.032  0.2361E+03  0.5107E+03
      1.056  0.2232E+03  0.5161E+03
      1.081  0.2142E+03  0.5213E+03
      1.105  0.2169E+03  0.5265E+03
      1.129  0.2111E+03  0.5316E+03
      1.153  0.2120E+03  0.5368E+03
      1.177  0.2222E+03  0.5421E+03
      1.201  0.2115E+03  0.5472E+03
      1.226  0.2013E+03  0.5521E+03
      1.250  0.1990E+03  0.5569E+03
      1.274  0.2030E+03  0.5618E+03
      1.298  0.2125E+03  0.5669E+03
      1.322  0.2145E+03  0.5721E+03
      1.346  0.2102E+03  0.5772E+03
      1.370  0.2058E+03  0.5822E+03
      1.395  0.2044E+03  0.5871E+03
      1.419  0.1942E+03  0.5918E+03
      1.443  0.1826E+03  0.5962E+03
      1.467  0.1836E+03  0.6007E+03
      1.491  0.1768E+03  0.6049E+03
      1.515  0.1751E+03  0.6092E+03
      1.540  0.1733E+03  0.6133E+03
      1.564  0.1693E+03  0.6174E+03
      1.588  0.1761E+03  0.6217E+03
      1.612  0.1899E+03  0.6263E+03
      1.636  0.1849E+03  0.6308E+03
      1.660  0.1724E+03  0.6349E+03
      1.685  0.1661E+03  0.6389E+03
      1.709  0.1631E+03  0.6429E+03
      1.733  0.1595E+03  0.6467E+03
      1.757  0.1468E+03  0.6503E+03
      1.781  0.1403E+03  0.6537E+03
      1.805  0.1374E+03  0.6570E+03
      1.830  0.1371E+03  0.6603E+03
      1.854  0.1471E+03  0.6638E+03
      1.878  0.1507E+03  0.6675E+03
      1.902  0.1535E+03  0.6712E+03
      1.926  0.1613E+03  0.6751E+03
      1.950  0.1623E+03  0.6790E+03
      1.974  0.1625E+03  0.6829E+03
      1.999  0.1625E+03  0.6869E+03
      2.023  0.1595E+03  0.6907E+03
      2.047  0.1602E+03  0.6946E+03
      2.071  0.1589E+03  0.6984E+03
      2.095  0.1645E+03  0.7024E+03
      2.119  0.1744E+03  0.7066E+03
      2.144  0.1762E+03  0.7109E+03
      2.168  0.1730E+03  0.7151E+03
      2.192  0.1703E+03  0.7192E+03
      2.216  0.1669E+03  0.7232E+03
      2.240  0.1595E+03  0.7271E+03
      2.264  0.1585E+03  0.7309E+03
      2.289  0.1598E+03  0.7347E+03
      2.313  0.1532E+03  0.7384E+03
      2.337  0.1607E+03  0.7423E+03
      2.361  0.1674E+03  0.7464E+03
      2.385  0.1493E+03  0.7500E+03
      2.409  0.1346E+03  0.7532E+03
      2.434  0.1349E+03  0.7565E+03
      2.458  0.1338E+03  0.7597E+03
      2.482  0.1319E+03  0.7629E+03
      2.506  0.1264E+03  0.7660E+03
      2.530  0.1195E+03  0.7689E+03
      2.554  0.1217E+03  0.7718E+03
      2.578  0.1220E+03  0.7747E+03
      2.603  0.1199E+03  0.7776E+03
      2.627  0.1181E+03  0.7805E+03
      2.651  0.1079E+03  0.7831E+03
      2.675  0.9652E+02  0.7854E+03
      2.699  0.1025E+03  0.7879E+03
      2.723  0.1059E+03  0.7905E+03
      2.748  0.9589E+02  0.7928E+03
      2.772  0.7063E+02  0.7945E+03
      2.796  0.4252E+02  0.7955E+03
      2.820  0.1988E+02  0.7960E+03
      2.844  0.2231E+02  0.7965E+03
      2.868  0.5104E+02  0.7978E+03
      2.893  0.6702E+02  0.7994E+03
      2.917  0.6185E+02  0.8009E+03
      2.941  0.5718E+02  0.8023E+03
      2.965  0.5896E+02  0.8037E+03
      2.989  0.6577E+02  0.8053E+03
      3.013  0.7152E+02  0.8070E+03
      3.038  0.7688E+02  0.8089E+03
      3.062  0.9295E+02  0.8111E+03
      3.086  0.1079E+03  0.8137E+03
      3.110  0.1152E+03  0.8165E+03
      3.134  0.1188E+03  0.8194E+03
      3.158  0.1142E+03  0.8221E+03
      3.182  0.1129E+03  0.8249E+03
      3.207  0.1146E+03  0.8276E+03
      3.231  0.1184E+03  0.8305E+03
      3.255  0.1254E+03  0.8335E+03
      3.279  0.1208E+03  0.8364E+03
      3.303  0.1139E+03  0.8392E+03
      3.327  0.1096E+03  0.8418E+03
      3.352  0.9839E+02  0.8442E+03
      3.376  0.9150E+02  0.8464E+03
      3.400  0.7895E+02  0.8483E+03
      3.424  0.7530E+02  0.8501E+03
      3.448  0.7489E+02  0.8520E+03
      3.472  0.7652E+02  0.8538E+03
      3.497  0.8310E+02  0.8558E+03
      3.521  0.9213E+02  0.8580E+03
      3.545  0.1060E+03  0.8606E+03
      3.569  0.1016E+03  0.8631E+03
      3.593  0.7432E+02  0.8649E+03
      3.617  0.3685E+02  0.8657E+03
      3.642  0.9596E+01  0.8660E+03
      3.666  0.1026E+01  0.8660E+03
      3.690  0.3809E-01  0.8660E+03
      3.714  0.4456E-03  0.8660E+03
      3.738  0.1558E-05  0.8660E+03
      3.762  0.1580E-08  0.8660E+03
      3.786  0.4549E-12  0.8660E+03
      3.811  0.0000E+00  0.8660E+03
      3.835  0.0000E+00  0.8660E+03
      3.859  0.0000E+00  0.8660E+03
      3.883  0.0000E+00  0.8660E+03
      3.907  0.0000E+00  0.8660E+03
      3.931  0.0000E+00  0.8660E+03
