Li                                      
           1
    20.020800    0.000000    0.000000
     0.000000   20.020800    0.000000
     0.000000    0.000000   20.020800
   Li
   432
Direct configuration=     1
   0.99432096  0.97069396  0.02087910
   0.91981294  0.08526685  0.08661742
   0.84180812  0.17667807  0.18995179
   0.75583997  0.22527451  0.27987892
   0.68587010  0.32594863  0.31715924
   0.58801873  0.40314883  0.42604316
   0.49635692  0.47890912  0.50553116
   0.41727709  0.57338596  0.57316471
   0.34845206  0.66033852  0.68588643
   0.23720199  0.73334398  0.75968829
   0.17655068  0.84398618  0.86137786
   0.08394247  0.90671885  0.89788917
   0.07900321  0.89216616  0.08727158
   0.99383986  0.99294159  0.14921894
   0.90394072  0.07246705  0.24889724
   0.85048007  0.15198717  0.37377988
   0.74766932  0.23365287  0.40926812
   0.65045170  0.30730604  0.47516922
   0.59098436  0.39605276  0.59689462
   0.48697846  0.51281747  0.64552486
   0.43440405  0.58199625  0.79994619
   0.31376445  0.66136200  0.87517126
   0.23579633  0.73581852  0.94415747
   0.16945302  0.82528923  0.99807833
   0.17225847  0.84352265  0.14243780
   0.09590602  0.93258514  0.24698779
   0.02362539  0.00830299  0.33344651
   0.91894916  0.07603523  0.42395116
   0.83909656  0.14846163  0.52641696
   0.75151268  0.24382584  0.58501106
   0.67203245  0.32788783  0.63872423
   0.58856393  0.42319695  0.73255733
   0.52700148  0.50910738  0.83841401
   0.42864146  0.58659828  0.93764760
   0.32774552  0.64095929  0.01045283
   0.23520325  0.75364108  0.07066488
   0.24121578  0.77904677  0.25362001
   0.18777825  0.86023448  0.32183662
   0.08985503  0.91145488  0.40535937
   0.00238554  0.98785266  0.49482664
   0.90822299  0.04999997  0.57274170
   0.86511487  0.16417555  0.66904334
   0.76887252  0.23926666  0.70864515
   0.65322869  0.33516420  0.78235703
   0.60174601  0.40610285  0.93367558
   0.52018991  0.52843816  0.02075458
   0.42342031  0.58478635  0.11549754
   0.34632226  0.69220640  0.18695549
   0.34641948  0.66571750  0.34158721
   0.27597858  0.75955571  0.38161445
   0.18653431  0.81348546  0.47645167
   0.09200176  0.88926734  0.57031285
   0.00303521  0.97692130  0.66108493
   0.94350844  0.08904369  0.73144466
   0.83639928  0.15760536  0.81240292
   0.74168351  0.26047746  0.90243276
   0.65603993  0.30837045  0.00596567
   0.57351348  0.39462310  0.10671757
   0.51592300  0.49930751  0.19359028
   0.42459493  0.55795983  0.27349262
   0.43783944  0.56463617  0.44051967
   0.37255761  0.68834624  0.48083495
   0.24807718  0.73509525  0.58014410
   0.17660680  0.82774463  0.65586175
   0.11837760  0.92416958  0.75924814
   0.01807107  0.00738070  0.83913312
   0.91360362  0.08146584  0.90277770
   0.83571207  0.16013159  0.98615332
   0.77257021  0.22414528  0.07927190
   0.67796416  0.31816492  0.18404026
   0.58050093  0.41224319  0.26147286
   0.52500345  0.50887983  0.33628387
   0.08996411  0.10624267  0.95397463
   0.95936524  0.16889568  0.00890407
   0.91317524  0.25373516  0.09853569
   0.83992649  0.30861107  0.20026483
   0.75264662  0.41205150  0.28241061
   0.66579948  0.51940437  0.36280529
   0.55395825  0.59176685  0.41817394
   0.47880768  0.68659146  0.50421074
   0.44088697  0.75842792  0.59035452
   0.33106885  0.82627535  0.68792679
   0.24609750  0.92321558  0.79455571
   0.20607853  0.01102579  0.86646915
   0.14516638  0.00250891  0.99497456
   0.06859548  0.08807200  0.08666323
   0.01198604  0.17805304  0.18725488
   0.94917454  0.23973164  0.28278561
   0.85721289  0.32592758  0.34284887
   0.76901276  0.41100092  0.42678353
   0.65603605  0.50388886  0.48752189
   0.58774871  0.58408707  0.56998685
   0.49449238  0.67132699  0.69234248
   0.38518815  0.73761969  0.76401265
   0.31818670  0.83341355  0.86170214
   0.23412007  0.90620014  0.92954213
   0.24992178  0.91702797  0.05136178
   0.16844729  0.97580003  0.16597358
   0.10507135  0.06297277  0.24140213
   0.01512883  0.13720443  0.33515281
   0.93620666  0.23387945  0.41503740
   0.85846143  0.30199646  0.50474324
   0.75057527  0.41867827  0.57976438
   0.64305238  0.50738969  0.64900112
   0.61272751  0.59290852  0.73739261
   0.51974240  0.68519740  0.84933331
   0.42736316  0.73047169  0.93573472
   0.33013252  0.83315565  0.99491907
   0.33742248  0.83974282  0.15861963
   0.25766996  0.90877546  0.24379295
   0.17065868  0.00046651  0.32692615
   0.09416402  0.05096417  0.41976406
   0.99495439  0.14904176  0.49983984
   0.95605040  0.24571534  0.60428774
   0.83993523  0.33838885  0.68046168
   0.76811872  0.42032155  0.71789756
   0.67845671  0.49983764  0.82521885
   0.60563875  0.57424747  0.94517544
   0.53357969  0.66476577  0.01862964
   0.41355923  0.74469839  0.08241285
   0.40613283  0.74854336  0.26958802
   0.34118545  0.85373007  0.31689756
   0.25249401  0.92008200  0.42043166
   0.15997232  0.97674068  0.51898389
   0.08524718  0.06609570  0.57443405
   0.03191440  0.14481535  0.66115152
   0.95646625  0.24713626  0.72813003
   0.80699648  0.34191878  0.80057031
   0.72320319  0.42341631  0.89074536
   0.66622600  0.49167553  0.02694355
   0.60480536  0.58919900  0.12188622
   0.48801688  0.67983989  0.17293661
   0.49068556  0.68205821  0.33154101
   0.42577286  0.75903937  0.37800159
   0.32777466  0.81210040  0.50008991
   0.24651094  0.89330589  0.58117757
   0.16229777  0.99861234  0.65395592
   0.12445376  0.08804506  0.76176111
   0.02732175  0.15498175  0.83056814
   0.91231804  0.24813861  0.89047140
   0.82321921  0.33033831  0.97899794
   0.75991323  0.38648671  0.09564727
   0.68163841  0.45641347  0.18666425
   0.59555677  0.56353598  0.25199472
   0.16520807  0.15628450  0.83816267
   0.09827653  0.27146377  0.91562195
   0.98303757  0.29646398  0.99890697
   0.89188293  0.41657846  0.08570143
   0.80652805  0.49903096  0.17248834
   0.74781032  0.59255993  0.25055105
   0.65811254  0.65577460  0.34846357
   0.58477768  0.76194199  0.43732819
   0.47744002  0.84652430  0.50822672
   0.40850334  0.90347926  0.62521840
   0.31766150  0.97664683  0.70935615
   0.24424554  0.10832878  0.73555643
   0.25199576  0.08796350  0.94844088
   0.17291892  0.20024150  0.02280830
   0.06918486  0.25853427  0.09800349
   0.00758374  0.33611819  0.19188029
   0.93710474  0.43973535  0.25520602
   0.84828447  0.53115822  0.31486325
   0.75698529  0.59373693  0.41209557
   0.67064837  0.65879542  0.48078175
   0.56079169  0.76940730  0.56851707
   0.49979058  0.84683744  0.68729334
   0.42078189  0.91146537  0.79515370
   0.33950978  0.03026514  0.83816744
   0.33346980  0.98872496  0.98463966
   0.22625069  0.07043894  0.07129425
   0.16846920  0.17325519  0.17124733
   0.10482247  0.25318079  0.26766839
   0.99730209  0.35794706  0.34735455
   0.90428668  0.41820650  0.41018208
   0.81130678  0.51378185  0.51027558
   0.74742399  0.57000405  0.57187699
   0.65818636  0.66775191  0.63525794
   0.56511683  0.74466622  0.75498262
   0.48343430  0.81287705  0.84405486
   0.42109533  0.92049883  0.93631571
   0.42491297  0.89659479  0.03642671
   0.33083501  0.98105781  0.13006534
   0.26501270  0.08467940  0.23932079
   0.18512105  0.15402124  0.33631071
   0.07729905  0.24538965  0.43581360
   0.99141244  0.35385859  0.48617927
   0.93951103  0.41873027  0.54904386
   0.84721506  0.50665174  0.63227545
   0.75338967  0.57372982  0.71424319
   0.65597741  0.69105823  0.82450257
   0.60079114  0.77431422  0.94290383
   0.51248817  0.83591681  0.99251789
   0.48298763  0.84848901  0.16546922
   0.40902480  0.91781071  0.25519447
   0.30452438  0.01154936  0.33378765
   0.24729913  0.07999106  0.44569458
   0.15148683  0.16873836  0.51799259
   0.07217030  0.27818122  0.57645618
   0.01585119  0.34221063  0.65506231
   0.92171196  0.42514187  0.74804784
   0.83678436  0.50347933  0.83890187
   0.74605103  0.59183736  0.91611577
   0.67207865  0.68275620  0.01385089
   0.57320883  0.75296384  0.09673886
   0.56306049  0.73839072  0.27306409
   0.48571564  0.85619187  0.32964462
   0.37926293  0.91939553  0.42277370
   0.33942425  0.98323243  0.50315084
   0.25679616  0.08601513  0.60270705
   0.15186283  0.18125418  0.64562864
   0.10679165  0.25579986  0.73878296
   0.98278057  0.34143115  0.82673394
   0.90352534  0.40872074  0.90359637
   0.83272304  0.49261678  0.99390709
   0.70994333  0.58031154  0.08980656
   0.66571878  0.67877779  0.17330314
   0.22263271  0.27791887  0.74568272
   0.13672918  0.33888174  0.83753072
   0.06971420  0.40932731  0.93416733
   0.97701951  0.48273764  0.03502707
   0.88055997  0.58996830  0.06560980
   0.80099891  0.69214607  0.15547931
   0.72014967  0.76601715  0.26147633
   0.61392361  0.85441899  0.32587311
   0.56236755  0.92422473  0.41913293
   0.49055862  0.99447090  0.52660793
   0.38721975  0.06477333  0.61719006
   0.30928568  0.19760915  0.67700067
   0.32039660  0.17323564  0.83854535
   0.23451455  0.26517067  0.90443141
   0.18870486  0.33876025  0.01790462
   0.08289003  0.42773259  0.10727593
   0.98831201  0.50617141  0.15812431
   0.91763171  0.61005155  0.20629006
   0.82914928  0.67237857  0.34040716
   0.73403123  0.75831057  0.40658375
   0.63102557  0.87364165  0.48755623
   0.57450334  0.90627566  0.60632822
   0.51927592  0.99766880  0.66378713
   0.42395853  0.09273869  0.74763395
   0.41680260  0.09373695  0.91877808
   0.31218479  0.19328335  0.00943813
   0.25904167  0.27376924  0.08769475
   0.16871124  0.32855186  0.17285394
   0.07665110  0.44178156  0.23747448
   0.00585323  0.52147475  0.31076960
   0.93154549  0.60276621  0.39670361
   0.82990288  0.67260311  0.49820015
   0.72811918  0.74786877  0.57166262
   0.67605158  0.84198359  0.71170750
   0.55761846  0.94365368  0.78218279
   0.47780910  0.03272737  0.86024885
   0.50237584  0.00100694  0.98769511
   0.42099235  0.09265436  0.07104718
   0.34248891  0.15463337  0.15565347
   0.26515216  0.23750761  0.23738596
   0.16226558  0.33866197  0.34608420
   0.08852954  0.44550519  0.40299327
   0.00233877  0.51115337  0.46512935
   0.93482217  0.58952535  0.56357871
   0.84784261  0.66458800  0.65712146
   0.73998081  0.75589278  0.72578360
   0.65615007  0.85812362  0.80108294
   0.58204887  0.92252896  0.90524645
   0.57561257  0.92108744  0.08657285
   0.48086255  0.00692174  0.16017707
   0.38385450  0.08459834  0.23920532
   0.32392044  0.15433704  0.33009795
   0.25979935  0.22267155  0.42161173
   0.17260383  0.35848907  0.50232443
   0.07696967  0.42824664  0.55990817
   0.98044499  0.51831555  0.65804442
   0.93068018  0.56005390  0.73086573
   0.83611393  0.64225808  0.81593598
   0.73677308  0.75866601  0.89791075
   0.66103195  0.85068838  0.01236079
   0.66404463  0.82235057  0.16964281
   0.57391466  0.93684699  0.23710579
   0.47701512  0.99608536  0.32385309
   0.40475057  0.07601963  0.41425613
   0.33001863  0.17740827  0.51497270
   0.23697800  0.27716808  0.58614454
   0.17321309  0.36450774  0.65642915
   0.09475008  0.41186778  0.75677799
   0.00754075  0.50796658  0.84139975
   0.90128318  0.60536731  0.93742540
   0.80322499  0.68743151  0.00199388
   0.72021025  0.77240448  0.07448872
   0.33783378  0.36643231  0.68302675
   0.25281057  0.41823073  0.74124223
   0.13212923  0.50360446  0.85295345
   0.05545677  0.56997272  0.92408032
   0.98450269  0.68389761  0.02266544
   0.90870502  0.77258056  0.08756807
   0.83506552  0.84341826  0.16915487
   0.72489254  0.91082726  0.24956570
   0.66453135  0.99460662  0.34415752
   0.54318794  0.08984409  0.44019254
   0.45764392  0.16353090  0.51971534
   0.39285844  0.26608340  0.61478961
   0.40973416  0.25042469  0.75634890
   0.35664038  0.34987600  0.84222440
   0.22776752  0.41510506  0.90056975
   0.15629914  0.50353993  0.01402038
   0.07243610  0.59244808  0.09965097
   0.00561462  0.68584028  0.15386207
   0.91401545  0.76575273  0.25207931
   0.84088840  0.81609281  0.34107021
   0.74166888  0.89978728  0.38292211
   0.67413622  0.96393083  0.48351456
   0.58350528  0.08185810  0.56134539
   0.48092942  0.19015582  0.65157788
   0.48891548  0.14821602  0.82066640
   0.41485893  0.25744282  0.91513817
   0.33983522  0.35092368  0.97716332
   0.26054891  0.42405296  0.08486497
   0.19746834  0.52096260  0.16333091
   0.08594943  0.60106692  0.22001387
   0.00936299  0.66377106  0.30220684
   0.93737424  0.71043039  0.40548308
   0.83774643  0.81707659  0.47032758
   0.75485279  0.90893694  0.57377922
   0.65468587  0.96931813  0.66652340
   0.59871016  0.07870648  0.75425114
   0.60554032  0.09837840  0.91837704
   0.50194874  0.17880558  0.99905893
   0.40460044  0.25326349  0.08093942
   0.32801386  0.32529732  0.16244411
   0.23881779  0.41430808  0.21778873
   0.19714837  0.51671010  0.34631177
   0.10445438  0.59876858  0.41232376
   0.01602416  0.65403724  0.50067610
   0.91760438  0.75055360  0.55648703
   0.85393647  0.81670122  0.64349571
   0.77971366  0.93091006  0.73196612
   0.68213661  0.99578611  0.82389642
   0.65342764  0.00226852  0.00029478
   0.58145638  0.09047375  0.07320108
   0.49190357  0.17280127  0.17543044
   0.41277241  0.22594260  0.27345395
   0.32191058  0.30277860  0.32875342
   0.24824418  0.40879045  0.42309349
   0.21455860  0.54417693  0.50405241
   0.09370895  0.57834464  0.56801740
   0.00212225  0.67701804  0.66833734
   0.90144917  0.74674466  0.73947326
   0.83482871  0.81501980  0.81323983
   0.73941406  0.91492280  0.90227785
   0.74389403  0.93350072  0.08629575
   0.67692669  0.01967026  0.15918020
   0.58326098  0.05823136  0.23838623
   0.48890619  0.15420899  0.32489866
   0.40353377  0.22121490  0.40425533
   0.33401955  0.33884952  0.49422674
   0.26844709  0.44522155  0.58272764
   0.17019910  0.50777092  0.66778030
   0.08573536  0.58228419  0.74814716
   0.98594755  0.66020634  0.83621524
   0.91247391  0.75088163  0.90197505
   0.81211313  0.83126837  0.98994968
   0.39991857  0.39635666  0.59744706
   0.33386263  0.50813698  0.67186382
   0.22386994  0.57425904  0.76777257
   0.15977160  0.64883247  0.84804888
   0.07206365  0.74328349  0.92818396
   0.98007234  0.82851681  0.97108153
   0.90159063  0.90641381  0.07587341
   0.84018761  0.01052677  0.16288528
   0.78304610  0.10490999  0.25052161
   0.65432065  0.10910608  0.35384016
   0.57102605  0.21993919  0.41381669
   0.47303483  0.33588309  0.48651063
   0.49550971  0.33551583  0.69249777
   0.43714231  0.42959066  0.74919431
   0.33678951  0.51693056  0.82520214
   0.24784536  0.55937910  0.93077168
   0.15686270  0.62403996  0.98184270
   0.08623582  0.74409435  0.06498563
   0.99714352  0.83469175  0.16116826
   0.90849808  0.94683109  0.24631645
   0.84949684  0.99622239  0.33524606
   0.74894040  0.06724156  0.43058062
   0.66642341  0.16290194  0.48366030
   0.57853381  0.23553680  0.57027309
   0.58318457  0.21914357  0.71752203
   0.51611830  0.31210644  0.83126115
   0.45364272  0.42536983  0.90432207
   0.35009833  0.49399212  0.00189593
   0.26758958  0.59142215  0.08380731
   0.18316966  0.68377272  0.14739757
   0.11408583  0.75746522  0.24600808
   0.00086612  0.83366460  0.33189774
   0.94759632  0.90763025  0.37010438
   0.84036348  0.98153550  0.46830424
   0.74742715  0.05905913  0.59162746
   0.65823334  0.15060818  0.65103235
   0.66046287  0.16709766  0.81636869
   0.59337103  0.23554561  0.92803957
   0.50769056  0.33376881  0.00374697
   0.42922555  0.39701471  0.08873900
   0.36290953  0.50467176  0.14775527
   0.24714046  0.59948629  0.23944725
   0.18011623  0.67298204  0.33034980
   0.10803830  0.74521874  0.38332890
   0.98344463  0.81555309  0.47535181
   0.90985372  0.90733363  0.56564234
   0.84270986  0.98214650  0.64061380
   0.75048372  0.07999952  0.73833070
   0.73486335  0.09451532  0.91420443
   0.65688300  0.17979940  0.00247704
   0.57988783  0.24214412  0.09477274
   0.47829940  0.32031955  0.19022684
   0.40388527  0.41277185  0.27929937
   0.30820154  0.48530687  0.33873611
   0.29776536  0.59949395  0.43005738
   0.18195234  0.69756394  0.50685440
   0.08949555  0.75183388  0.57115434
   0.00894895  0.83784518  0.68135030
   0.90477108  0.92402535  0.75323856
   0.82650901  0.01394597  0.82686113
   0.83250215  0.98673578  0.99727095
   0.75544889  0.08866974  0.09534359
   0.66607716  0.15793641  0.17615688
   0.58512443  0.23554489  0.25079634
   0.51684037  0.32525581  0.33417163
   0.39327525  0.39540634  0.40237719
   0.34160936  0.50228398  0.51431568
   0.27383032  0.60561026  0.58091868
   0.13706561  0.65857456  0.66616933
   0.11173020  0.75134814  0.77632230
   0.01355391  0.81999835  0.81912581
   0.90981562  0.90504484  0.89049381
