 500 500   0   0
  0.2029568E+02  0.2165000E-08  0.2165000E-08  0.2165000E-08  0.5000000E-15
  1.000000000000000E-004
  CAR 
 Li                                      
      3.53752458     -3.44519527  301      0.39494606      1.00000000
     -3.445  0.0000E+00  0.0000E+00
     -3.422  0.0000E+00  0.0000E+00
     -3.399  0.0000E+00  0.0000E+00
     -3.375  0.0000E+00  0.0000E+00
     -3.352  0.0000E+00  0.0000E+00
     -3.329  0.0000E+00  0.0000E+00
     -3.306  0.0000E+00  0.0000E+00
     -3.282  0.1404E-10  0.3267E-12
     -3.259  0.2655E-07  0.6184E-09
     -3.236  0.1548E-04  0.3610E-06
     -3.212  0.2809E-02  0.6573E-04
     -3.189  0.1606E+00  0.3804E-02
     -3.166  0.2946E+01  0.7237E-01
     -3.143  0.1769E+02  0.4842E+00
     -3.119  0.3544E+02  0.1309E+01
     -3.096  0.2389E+02  0.1865E+01
     -3.073  0.5785E+01  0.2000E+01
     -3.050  0.7755E+01  0.2180E+01
     -3.026  0.4643E+02  0.3261E+01
     -3.003  0.1019E+03  0.5633E+01
     -2.980  0.7853E+02  0.7461E+01
     -2.956  0.2145E+02  0.7960E+01
     -2.933  0.7836E+01  0.8142E+01
     -2.910  0.4063E+02  0.9088E+01
     -2.887  0.9826E+02  0.1138E+02
     -2.863  0.8439E+02  0.1334E+02
     -2.840  0.2595E+02  0.1394E+02
     -2.817  0.9218E+01  0.1416E+02
     -2.793  0.4490E+02  0.1520E+02
     -2.770  0.1173E+03  0.1793E+02
     -2.747  0.1198E+03  0.2072E+02
     -2.724  0.4786E+02  0.2184E+02
     -2.700  0.1491E+02  0.2218E+02
     -2.677  0.5521E+02  0.2347E+02
     -2.654  0.1544E+03  0.2706E+02
     -2.631  0.1841E+03  0.3135E+02
     -2.607  0.9327E+02  0.3352E+02
     -2.584  0.2099E+02  0.3401E+02
     -2.561  0.2148E+02  0.3451E+02
     -2.537  0.7606E+02  0.3628E+02
     -2.514  0.1023E+03  0.3866E+02
     -2.491  0.4907E+02  0.3980E+02
     -2.468  0.1211E+02  0.4008E+02
     -2.444  0.3482E+02  0.4089E+02
     -2.421  0.1236E+03  0.4377E+02
     -2.398  0.1903E+03  0.4820E+02
     -2.375  0.1258E+03  0.5113E+02
     -2.351  0.3953E+02  0.5205E+02
     -2.328  0.4907E+02  0.5319E+02
     -2.305  0.1587E+03  0.5688E+02
     -2.281  0.2598E+03  0.6293E+02
     -2.258  0.2103E+03  0.6782E+02
     -2.235  0.8019E+02  0.6969E+02
     -2.212  0.1948E+02  0.7014E+02
     -2.188  0.4314E+02  0.7115E+02
     -2.165  0.9794E+02  0.7343E+02
     -2.142  0.8266E+02  0.7535E+02
     -2.118  0.2677E+02  0.7598E+02
     -2.095  0.2280E+02  0.7651E+02
     -2.072  0.9707E+02  0.7877E+02
     -2.049  0.2027E+03  0.8348E+02
     -2.025  0.1900E+03  0.8791E+02
     -2.002  0.7825E+02  0.8973E+02
     -1.979  0.3141E+02  0.9046E+02
     -1.956  0.9994E+02  0.9278E+02
     -1.932  0.2279E+03  0.9809E+02
     -1.909  0.2530E+03  0.1040E+03
     -1.886  0.1365E+03  0.1072E+03
     -1.862  0.3650E+02  0.1080E+03
     -1.839  0.3659E+02  0.1089E+03
     -1.816  0.1246E+03  0.1118E+03
     -1.793  0.1928E+03  0.1162E+03
     -1.769  0.1265E+03  0.1192E+03
     -1.746  0.4874E+02  0.1203E+03
     -1.723  0.8862E+02  0.1224E+03
     -1.700  0.2047E+03  0.1271E+03
     -1.676  0.2495E+03  0.1330E+03
     -1.653  0.1604E+03  0.1367E+03
     -1.630  0.5483E+02  0.1380E+03
     -1.606  0.5300E+02  0.1392E+03
     -1.583  0.1692E+03  0.1431E+03
     -1.560  0.2700E+03  0.1494E+03
     -1.537  0.2009E+03  0.1541E+03
     -1.513  0.7254E+02  0.1558E+03
     -1.490  0.3583E+02  0.1566E+03
     -1.467  0.1053E+03  0.1591E+03
     -1.443  0.1868E+03  0.1634E+03
     -1.420  0.1449E+03  0.1668E+03
     -1.397  0.5387E+02  0.1680E+03
     -1.374  0.5086E+02  0.1692E+03
     -1.350  0.1141E+03  0.1719E+03
     -1.327  0.1487E+03  0.1753E+03
     -1.304  0.1248E+03  0.1782E+03
     -1.281  0.6899E+02  0.1799E+03
     -1.257  0.7380E+02  0.1816E+03
     -1.234  0.1996E+03  0.1862E+03
     -1.211  0.3460E+03  0.1943E+03
     -1.187  0.3636E+03  0.2027E+03
     -1.164  0.2296E+03  0.2081E+03
     -1.141  0.9759E+02  0.2104E+03
     -1.118  0.1229E+03  0.2132E+03
     -1.094  0.2320E+03  0.2186E+03
     -1.071  0.2396E+03  0.2242E+03
     -1.048  0.1327E+03  0.2273E+03
     -1.025  0.5545E+02  0.2286E+03
     -1.001  0.6278E+02  0.2300E+03
     -0.978  0.1284E+03  0.2330E+03
     -0.955  0.1982E+03  0.2376E+03
     -0.931  0.1592E+03  0.2413E+03
     -0.908  0.1310E+03  0.2444E+03
     -0.885  0.2073E+03  0.2492E+03
     -0.862  0.2639E+03  0.2553E+03
     -0.838  0.2514E+03  0.2612E+03
     -0.815  0.1544E+03  0.2648E+03
     -0.792  0.4794E+02  0.2659E+03
     -0.768  0.2476E+02  0.2665E+03
     -0.745  0.7021E+02  0.2681E+03
     -0.722  0.9932E+02  0.2704E+03
     -0.699  0.6115E+02  0.2719E+03
     -0.675  0.6056E+02  0.2733E+03
     -0.652  0.1659E+03  0.2771E+03
     -0.629  0.2896E+03  0.2839E+03
     -0.606  0.3425E+03  0.2918E+03
     -0.582  0.3195E+03  0.2993E+03
     -0.559  0.2443E+03  0.3050E+03
     -0.536  0.1729E+03  0.3090E+03
     -0.512  0.1974E+03  0.3136E+03
     -0.489  0.2889E+03  0.3203E+03
     -0.466  0.3067E+03  0.3274E+03
     -0.443  0.2281E+03  0.3328E+03
     -0.419  0.1459E+03  0.3361E+03
     -0.396  0.8769E+02  0.3382E+03
     -0.373  0.9721E+02  0.3405E+03
     -0.350  0.1337E+03  0.3436E+03
     -0.326  0.1576E+03  0.3472E+03
     -0.303  0.1914E+03  0.3517E+03
     -0.280  0.1763E+03  0.3558E+03
     -0.256  0.1699E+03  0.3597E+03
     -0.233  0.1857E+03  0.3641E+03
     -0.210  0.1517E+03  0.3676E+03
     -0.187  0.1478E+03  0.3710E+03
     -0.163  0.2354E+03  0.3765E+03
     -0.140  0.3238E+03  0.3841E+03
     -0.117  0.3210E+03  0.3915E+03
     -0.093  0.2210E+03  0.3967E+03
     -0.070  0.1691E+03  0.4006E+03
     -0.047  0.2355E+03  0.4061E+03
     -0.024  0.2466E+03  0.4118E+03
     -0.000  0.1401E+03  0.4151E+03
      0.023  0.5686E+02  0.4164E+03
      0.046  0.9557E+02  0.4186E+03
      0.069  0.2061E+03  0.4234E+03
      0.093  0.2919E+03  0.4302E+03
      0.116  0.3130E+03  0.4375E+03
      0.139  0.2618E+03  0.4436E+03
      0.163  0.1842E+03  0.4479E+03
      0.186  0.1811E+03  0.4521E+03
      0.209  0.2156E+03  0.4571E+03
      0.232  0.2023E+03  0.4618E+03
      0.256  0.1820E+03  0.4661E+03
      0.279  0.2058E+03  0.4709E+03
      0.302  0.2366E+03  0.4764E+03
      0.325  0.2393E+03  0.4819E+03
      0.349  0.2599E+03  0.4880E+03
      0.372  0.2748E+03  0.4944E+03
      0.395  0.2444E+03  0.5001E+03
      0.419  0.2106E+03  0.5050E+03
      0.442  0.2271E+03  0.5103E+03
      0.465  0.2349E+03  0.5157E+03
      0.488  0.2200E+03  0.5209E+03
      0.512  0.2213E+03  0.5260E+03
      0.535  0.2571E+03  0.5320E+03
      0.558  0.3152E+03  0.5393E+03
      0.582  0.3610E+03  0.5477E+03
      0.605  0.3769E+03  0.5565E+03
      0.628  0.3623E+03  0.5649E+03
      0.651  0.3267E+03  0.5725E+03
      0.675  0.2949E+03  0.5794E+03
      0.698  0.2861E+03  0.5861E+03
      0.721  0.2851E+03  0.5927E+03
      0.744  0.2811E+03  0.5992E+03
      0.768  0.2778E+03  0.6057E+03
      0.791  0.2369E+03  0.6112E+03
      0.814  0.1444E+03  0.6146E+03
      0.838  0.5878E+02  0.6159E+03
      0.861  0.5221E+02  0.6172E+03
      0.884  0.1047E+03  0.6196E+03
      0.907  0.1313E+03  0.6227E+03
      0.931  0.1586E+03  0.6263E+03
      0.954  0.1875E+03  0.6307E+03
      0.977  0.1845E+03  0.6350E+03
      1.000  0.2074E+03  0.6398E+03
      1.024  0.2523E+03  0.6457E+03
      1.047  0.2608E+03  0.6518E+03
      1.070  0.2407E+03  0.6574E+03
      1.094  0.2455E+03  0.6631E+03
      1.117  0.2727E+03  0.6694E+03
      1.140  0.2850E+03  0.6761E+03
      1.163  0.2976E+03  0.6830E+03
      1.187  0.3014E+03  0.6900E+03
      1.210  0.2918E+03  0.6968E+03
      1.233  0.2787E+03  0.7033E+03
      1.257  0.2506E+03  0.7091E+03
      1.280  0.2118E+03  0.7141E+03
      1.303  0.1776E+03  0.7182E+03
      1.326  0.1747E+03  0.7223E+03
      1.350  0.1995E+03  0.7269E+03
      1.373  0.2152E+03  0.7319E+03
      1.396  0.2250E+03  0.7371E+03
      1.419  0.2309E+03  0.7425E+03
      1.443  0.2296E+03  0.7479E+03
      1.466  0.2232E+03  0.7531E+03
      1.489  0.2117E+03  0.7580E+03
      1.513  0.2017E+03  0.7627E+03
      1.536  0.1858E+03  0.7670E+03
      1.559  0.1449E+03  0.7704E+03
      1.582  0.1191E+03  0.7731E+03
      1.606  0.1446E+03  0.7765E+03
      1.629  0.1663E+03  0.7804E+03
      1.652  0.1538E+03  0.7840E+03
      1.675  0.1294E+03  0.7870E+03
      1.699  0.1035E+03  0.7894E+03
      1.722  0.1001E+03  0.7917E+03
      1.745  0.1254E+03  0.7946E+03
      1.769  0.1544E+03  0.7982E+03
      1.792  0.1926E+03  0.8027E+03
      1.815  0.2190E+03  0.8078E+03
      1.838  0.2329E+03  0.8132E+03
      1.862  0.2486E+03  0.8190E+03
      1.885  0.2625E+03  0.8251E+03
      1.908  0.2678E+03  0.8314E+03
      1.931  0.2692E+03  0.8376E+03
      1.955  0.2700E+03  0.8439E+03
      1.978  0.2455E+03  0.8496E+03
      2.001  0.2178E+03  0.8547E+03
      2.025  0.2015E+03  0.8594E+03
      2.048  0.1828E+03  0.8636E+03
      2.071  0.1523E+03  0.8672E+03
      2.094  0.1377E+03  0.8704E+03
      2.118  0.1544E+03  0.8740E+03
      2.141  0.1488E+03  0.8774E+03
      2.164  0.1077E+03  0.8800E+03
      2.188  0.1032E+03  0.8824E+03
      2.211  0.1427E+03  0.8857E+03
      2.234  0.1670E+03  0.8896E+03
      2.257  0.1683E+03  0.8935E+03
      2.281  0.1572E+03  0.8971E+03
      2.304  0.1400E+03  0.9004E+03
      2.327  0.1376E+03  0.9036E+03
      2.350  0.1374E+03  0.9068E+03
      2.374  0.1428E+03  0.9101E+03
      2.397  0.1564E+03  0.9138E+03
      2.420  0.1427E+03  0.9171E+03
      2.444  0.1178E+03  0.9198E+03
      2.467  0.1243E+03  0.9227E+03
      2.490  0.1439E+03  0.9261E+03
      2.513  0.1637E+03  0.9299E+03
      2.537  0.1659E+03  0.9337E+03
      2.560  0.1423E+03  0.9371E+03
      2.583  0.1195E+03  0.9398E+03
      2.606  0.1121E+03  0.9425E+03
      2.630  0.9431E+02  0.9446E+03
      2.653  0.7456E+02  0.9464E+03
      2.676  0.9378E+02  0.9486E+03
      2.700  0.1187E+03  0.9513E+03
      2.723  0.1249E+03  0.9542E+03
      2.746  0.1400E+03  0.9575E+03
      2.769  0.1625E+03  0.9613E+03
      2.793  0.1709E+03  0.9653E+03
      2.816  0.1700E+03  0.9692E+03
      2.839  0.1693E+03  0.9732E+03
      2.863  0.1675E+03  0.9770E+03
      2.886  0.1570E+03  0.9807E+03
      2.909  0.1351E+03  0.9838E+03
      2.932  0.1045E+03  0.9863E+03
      2.956  0.5721E+02  0.9876E+03
      2.979  0.1507E+02  0.9880E+03
      3.002  0.1532E+01  0.9880E+03
      3.025  0.5486E-01  0.9880E+03
      3.049  0.2017E-01  0.9880E+03
      3.072  0.6355E+00  0.9880E+03
      3.095  0.7374E+01  0.9882E+03
      3.119  0.3379E+02  0.9890E+03
      3.142  0.7400E+02  0.9907E+03
      3.165  0.1072E+03  0.9932E+03
      3.188  0.1324E+03  0.9963E+03
      3.212  0.1323E+03  0.9994E+03
      3.235  0.8442E+02  0.1001E+04
      3.258  0.2598E+02  0.1002E+04
      3.281  0.3179E+01  0.1002E+04
      3.305  0.1394E+00  0.1002E+04
      3.328  0.2064E-02  0.1002E+04
      3.351  0.9958E-05  0.1002E+04
      3.375  0.1530E-07  0.1002E+04
      3.398  0.7372E-11  0.1002E+04
      3.421  0.0000E+00  0.1002E+04
      3.444  0.0000E+00  0.1002E+04
      3.468  0.0000E+00  0.1002E+04
      3.491  0.0000E+00  0.1002E+04
      3.514  0.0000E+00  0.1002E+04
      3.538  0.0000E+00  0.1002E+04
