       N       E                     dE             d eps       ncg     rms          rms(c)
DAV:   1    -0.305530779955E+03   -0.30553E+03   -0.12122E+05  4008   0.656E+02
DAV:   2    -0.893953755724E+03   -0.58842E+03   -0.53975E+03  4604   0.670E+01
DAV:   3    -0.935254008323E+03   -0.41300E+02   -0.37561E+02  5168   0.140E+01
DAV:   4    -0.936637406292E+03   -0.13834E+01   -0.13619E+01  4632   0.280E+00
DAV:   5    -0.936668333832E+03   -0.30928E-01   -0.30882E-01  4784   0.447E-01    0.699E+00
DAV:   6    -0.932587365176E+03    0.40810E+01   -0.59645E+00  4504   0.276E+00    0.472E+00
DAV:   7    -0.931986335175E+03    0.60103E+00   -0.46707E+00  4592   0.290E+00    0.412E+00
DAV:   8    -0.929819275396E+03    0.21671E+01   -0.23859E+00  4528   0.180E+00    0.203E+00
DAV:   9    -0.929518533125E+03    0.30074E+00   -0.12736E+00  4416   0.926E-01    0.111E+00
DAV:  10    -0.929574414511E+03   -0.55881E-01   -0.35695E-01  4616   0.597E-01    0.985E-01
DAV:  11    -0.929472716698E+03    0.10170E+00   -0.16193E-01  4520   0.442E-01    0.505E-01
DAV:  12    -0.929461122109E+03    0.11595E-01   -0.36882E-02  4312   0.164E-01    0.217E-01
DAV:  13    -0.929461480899E+03   -0.35879E-03   -0.91638E-03  4496   0.973E-02    0.132E-01
DAV:  14    -0.929460768487E+03    0.71241E-03   -0.34104E-03  4576   0.724E-02    0.950E-02
DAV:  15    -0.929459831062E+03    0.93743E-03   -0.11052E-03  4520   0.426E-02    0.465E-02
DAV:  16    -0.929459655625E+03    0.17544E-03   -0.55014E-04  4272   0.205E-02    0.175E-02
DAV:  17    -0.929459680419E+03   -0.24794E-04   -0.11709E-04  4848   0.127E-02    0.193E-02
DAV:  18    -0.929459620449E+03    0.59970E-04   -0.65373E-05  4624   0.924E-03    0.653E-03
DAV:  19    -0.929459613734E+03    0.67143E-05   -0.18241E-05  2848   0.410E-03
   1 F= -.92945961E+03 E0= -.92941006E+03  d E =-.991067E-01
