Li                                      
           1
    21.650000    0.000000    0.000000
     0.000000   21.650000    0.000000
    -0.000000   -0.000000   21.650000
   Li
   500
Direct configuration=     1
   0.99531334  0.00254695  0.00564811
   0.99063059  0.11167447  0.09594955
   0.99257675  0.21673755  0.20519449
   0.98402574  0.31634497  0.29281505
   0.98698202  0.40307270  0.39619390
   0.98479031  0.48692019  0.49640160
   0.99283181  0.57935061  0.60857118
   0.00482314  0.68434792  0.70196029
   0.00550963  0.78690945  0.80100068
   0.01457780  0.90039490  0.90082937
   0.09030685  0.00585526  0.10529450
   0.09604288  0.11041722  0.19985125
   0.08748540  0.19687356  0.28761299
   0.08554522  0.29582054  0.40048953
   0.09263035  0.39153440  0.48384590
   0.10922508  0.47928182  0.60369991
   0.09123484  0.58064250  0.69788241
   0.10729371  0.69156500  0.80332401
   0.10018961  0.79635857  0.89911434
   0.09631567  0.89463037  0.00849053
   0.20046283  0.99216498  0.20929176
   0.19971925  0.08616926  0.31147164
   0.19344149  0.20468724  0.39861684
   0.20893265  0.30148224  0.49445876
   0.19407676  0.39430526  0.61505383
   0.18943292  0.49480807  0.70181529
   0.19576763  0.59703106  0.80071031
   0.19989595  0.69650504  0.90081703
   0.19415706  0.80253856  0.99499307
   0.18541142  0.90823610  0.10512951
   0.29636046  0.99673616  0.30477677
   0.30213746  0.08985723  0.40217247
   0.29845908  0.20352427  0.49430577
   0.30063312  0.30179391  0.60300516
   0.30134062  0.39994680  0.69438813
   0.29292343  0.50092438  0.79492867
   0.30679853  0.58910956  0.90208698
   0.30677101  0.69640401  0.00076953
   0.28617651  0.81711009  0.10058393
   0.29206989  0.90708539  0.19067641
   0.41128581  0.98394846  0.39266500
   0.41867113  0.10214419  0.50496213
   0.39773198  0.21160353  0.61185476
   0.40528266  0.29296392  0.70309166
   0.39928004  0.40968275  0.79988319
   0.40267087  0.50174397  0.89608485
   0.40051483  0.58691028  0.01037358
   0.39878990  0.69740333  0.11481670
   0.39662847  0.80921316  0.19491482
   0.38731229  0.89184058  0.30610104
   0.50227812  0.98109069  0.50953200
   0.48428486  0.10858800  0.58781103
   0.49807458  0.20935684  0.69874051
   0.50550401  0.31046283  0.80840592
   0.50503211  0.39184867  0.90067798
   0.50083588  0.50000744  0.98941149
   0.49070400  0.59674901  0.11906869
   0.48713602  0.70463566  0.18988260
   0.49734102  0.80201597  0.29567462
   0.50656092  0.89480690  0.38960102
   0.59592570  0.00344921  0.59420432
   0.59350287  0.09199626  0.69069257
   0.59375187  0.19629096  0.77441349
   0.59033152  0.29905350  0.89269227
   0.59471525  0.39699956  0.99995081
   0.59140654  0.51690357  0.10462954
   0.60400744  0.61114925  0.20639152
   0.61235839  0.71555349  0.29694542
   0.60265824  0.80402127  0.40449940
   0.59644712  0.88476578  0.50488751
   0.70071740  0.98662724  0.69293122
   0.68995498  0.10519667  0.78269985
   0.68949797  0.19902164  0.89464336
   0.69189437  0.28907101  0.99824195
   0.68339673  0.40443837  0.09952876
   0.69129830  0.51264563  0.20868801
   0.71149100  0.62144742  0.30184520
   0.71219308  0.72013208  0.40419452
   0.69743450  0.80038573  0.50989087
   0.69611148  0.89411692  0.60660046
   0.80746159  0.98740989  0.79178449
   0.79446328  0.08556732  0.89258117
   0.80920540  0.18387686  0.99748143
   0.79678226  0.29979814  0.10219764
   0.78983770  0.40545108  0.18645785
   0.79308350  0.50029129  0.28092109
   0.80262695  0.60678042  0.39311043
   0.81315713  0.69896430  0.50352093
   0.80596184  0.79640945  0.61431666
   0.82740569  0.90805463  0.70302332
   0.90827434  0.99159429  0.89319606
   0.89909387  0.10021904  0.99262256
   0.89026696  0.20244194  0.10953686
   0.88412101  0.31009635  0.19752283
   0.88200036  0.40419157  0.29000354
   0.89307780  0.50029160  0.40219830
   0.90028106  0.60089822  0.50882009
   0.90718257  0.68964416  0.60448497
   0.90190902  0.79341871  0.69632675
   0.92015357  0.89594982  0.78305490
   0.09688579  0.10634794  0.00849991
   0.10676454  0.18801715  0.10230679
   0.09851340  0.30804368  0.21110934
   0.10597540  0.40773807  0.30444170
   0.08906573  0.49589350  0.39619860
   0.09192827  0.58651589  0.50529182
   0.10631580  0.69253366  0.59986140
   0.10218683  0.78700314  0.68518580
   0.10191370  0.89049580  0.79833040
   0.08468250  0.00306022  0.90754875
   0.21180922  0.09745418  0.10277677
   0.21439271  0.20583899  0.19902580
   0.20363217  0.29452502  0.30032001
   0.20604502  0.40224465  0.38311830
   0.19249391  0.49060870  0.50763986
   0.21037276  0.59533616  0.60607326
   0.20111836  0.69280987  0.69947479
   0.19001591  0.79065694  0.79698173
   0.18966495  0.89267205  0.88393579
   0.19786503  0.99750566  0.00107339
   0.30258311  0.09271767  0.20293894
   0.29143185  0.18769420  0.30760697
   0.30091223  0.30595299  0.39294572
   0.29086634  0.39498217  0.51525767
   0.30299292  0.49053748  0.61231897
   0.29058775  0.59544799  0.68554928
   0.29824929  0.68074750  0.80656847
   0.28435340  0.79877082  0.90469957
   0.28627347  0.89618304  0.00208039
   0.30211989  0.00487122  0.09659018
   0.39506001  0.08831464  0.30577088
   0.39710690  0.20189625  0.38178936
   0.40306863  0.31171166  0.49497208
   0.40861942  0.40735759  0.59203141
   0.40780368  0.50815542  0.70928729
   0.40532619  0.61300424  0.80129466
   0.39754644  0.68948761  0.89224186
   0.39976032  0.80370582  0.01130155
   0.39182293  0.90678330  0.08792889
   0.39580095  0.99335532  0.20842841
   0.51029037  0.07944559  0.39725052
   0.48819539  0.22553890  0.48454752
   0.49720459  0.30473912  0.58487187
   0.51486889  0.40054334  0.70758901
   0.51277192  0.50791477  0.80554645
   0.49402893  0.61287947  0.90460709
   0.49879760  0.70619481  0.99799350
   0.50356679  0.81672045  0.09419274
   0.48844325  0.89746430  0.19418027
   0.49672921  0.97635128  0.28330077
   0.59730827  0.09523219  0.49620884
   0.60192208  0.19906716  0.59337154
   0.60064262  0.30203809  0.69273150
   0.61439026  0.41563070  0.80323290
   0.59828612  0.49666315  0.91486676
   0.59824465  0.60893431  0.99790978
   0.60187188  0.70793862  0.08892522
   0.59670803  0.79794123  0.18924496
   0.60326199  0.89374689  0.29530146
   0.60731242  0.99358348  0.39601560
   0.69810859  0.10417422  0.59631236
   0.69414560  0.19746622  0.69600853
   0.69206782  0.31110517  0.80399999
   0.70633848  0.38713205  0.90846746
   0.69771742  0.50034999  0.00333804
   0.70739892  0.60219234  0.08947008
   0.71559309  0.70140022  0.18597153
   0.69425880  0.79326357  0.28350084
   0.70803892  0.89140434  0.41809557
   0.70554959  0.99445480  0.50090445
   0.80504127  0.10798229  0.69741263
   0.80061311  0.20051988  0.79623290
   0.79147917  0.29584342  0.90886458
   0.78705599  0.40441841  0.00027987
   0.78893718  0.48999554  0.10352387
   0.79160588  0.60422015  0.18617528
   0.80416389  0.71707376  0.29982111
   0.81093554  0.80522135  0.42042745
   0.80735168  0.90370533  0.51234701
   0.79809207  0.99468625  0.60203098
   0.90126316  0.09538498  0.81484050
   0.90312877  0.20100075  0.88534730
   0.89859227  0.30270181  0.00459762
   0.89620740  0.40309142  0.10296216
   0.90419656  0.49799156  0.18776763
   0.87903098  0.60792314  0.29119648
   0.90336751  0.69575223  0.39271815
   0.91030377  0.80167014  0.51348438
   0.91165485  0.90778051  0.61322424
   0.90820563  0.02136174  0.69460739
   0.99670668  0.11191188  0.89214672
   0.99355335  0.20004589  0.99827535
   0.00397711  0.31673698  0.11339644
   0.99473764  0.41263081  0.19916779
   0.99478066  0.49107667  0.30965224
   0.98003997  0.59475699  0.39173797
   0.00854053  0.69350165  0.49792058
   0.01422516  0.78514555  0.60753878
   0.01506079  0.88144484  0.68804405
   0.00874769  0.99357356  0.78370137
   0.19122376  0.20138140  0.00199870
   0.19268411  0.28834863  0.10209789
   0.21735842  0.40099028  0.19300967
   0.21287983  0.50427981  0.30076585
   0.20174500  0.59265950  0.41258499
   0.19239474  0.69314693  0.49559361
   0.20367786  0.79495950  0.60609991
   0.19506557  0.90857607  0.69209934
   0.19505244  0.01011720  0.81267000
   0.19232401  0.09262672  0.90102135
   0.31105526  0.21101177  0.09879789
   0.29933482  0.29441996  0.20566298
   0.31574364  0.39880386  0.29623588
   0.30577137  0.48493478  0.41250874
   0.30886859  0.59288496  0.50659054
   0.30808644  0.70725726  0.59655365
   0.30099616  0.79356024  0.70386660
   0.30425467  0.90136260  0.79287254
   0.29400657  0.98384377  0.90384971
   0.29472846  0.11511281  0.99070553
   0.39355936  0.20342466  0.19734265
   0.39278999  0.29468745  0.29948587
   0.40688933  0.41379594  0.41398379
   0.40404279  0.49953393  0.50805734
   0.40678284  0.59479206  0.60474344
   0.40152526  0.69493465  0.70002733
   0.39268146  0.79840613  0.80308542
   0.39464367  0.89602930  0.89559483
   0.39209460  0.00706421  0.97321351
   0.40580028  0.10521609  0.08427833
   0.49687895  0.18670695  0.30122507
   0.49233958  0.30454316  0.40681706
   0.50855115  0.41589630  0.50230172
   0.50393754  0.49969910  0.60768664
   0.51501318  0.59902854  0.69720392
   0.50017062  0.70242753  0.80027902
   0.50387492  0.81595494  0.89861583
   0.49577930  0.90644616  0.99007627
   0.49213174  0.99987316  0.10040656
   0.47979237  0.10109961  0.21536709
   0.60362561  0.20071200  0.41069435
   0.60077989  0.30198230  0.50067580
   0.60108115  0.40520706  0.59652269
   0.60925295  0.50146623  0.69217369
   0.60119195  0.59489931  0.81854005
   0.59408301  0.71881416  0.90004374
   0.60523983  0.82023113  0.99705734
   0.59925546  0.90422402  0.10869310
   0.59352369  0.99025074  0.19287398
   0.59446322  0.10383109  0.29309349
   0.71102600  0.19662951  0.50238881
   0.68900110  0.29694407  0.60435046
   0.69301227  0.40214940  0.70046108
   0.70034218  0.50268187  0.81523886
   0.71507741  0.60813396  0.91852836
   0.70855551  0.69586938  0.99960599
   0.70469256  0.80577468  0.10065653
   0.71240543  0.90788355  0.19180636
   0.68690812  0.98244984  0.29389775
   0.68700974  0.07781241  0.39099124
   0.79768377  0.20652268  0.60426649
   0.79132300  0.29011315  0.71972551
   0.78955661  0.39995224  0.80376550
   0.79776092  0.49550266  0.90891941
   0.82013945  0.59820329  0.01357998
   0.80721268  0.69991298  0.10416110
   0.80721096  0.80482877  0.17310702
   0.78924940  0.89599141  0.30174272
   0.78383272  0.00803661  0.39141121
   0.80185390  0.10571677  0.48722792
   0.91579596  0.19872463  0.71286974
   0.89195452  0.29134161  0.81494932
   0.89364530  0.38881038  0.90022658
   0.88910982  0.48273480  0.00805393
   0.91535451  0.59722090  0.10530354
   0.89868039  0.70677747  0.18304602
   0.89729104  0.80596403  0.30187435
   0.89874984  0.92063697  0.39650783
   0.89670158  0.00304970  0.50646074
   0.91220797  0.10972102  0.58257766
   0.00678008  0.20238823  0.80011512
   0.00893432  0.29116630  0.88334688
   0.99516027  0.39241204  0.00485520
   0.01177213  0.48749273  0.09212528
   0.00099718  0.57084725  0.19512413
   0.99410912  0.69733645  0.28929102
   0.00345224  0.80002949  0.41107976
   0.99752921  0.90278995  0.51077970
   0.01559983  0.00909565  0.59538628
   0.99620589  0.11500734  0.71083698
   0.11005847  0.20878040  0.90617250
   0.08562735  0.30705892  0.00666610
   0.10935213  0.40414791  0.10746963
   0.11873224  0.49590097  0.19990817
   0.10365598  0.59261012  0.29522480
   0.09134852  0.67962821  0.39393299
   0.09585438  0.80479801  0.50197867
   0.11555470  0.90294879  0.58561120
   0.10311430  0.00644903  0.70713323
   0.09722810  0.10621296  0.81085542
   0.30040234  0.29818890  0.01388394
   0.30449847  0.38510367  0.10527561
   0.31033130  0.50066646  0.20897650
   0.29485421  0.60276380  0.30787865
   0.28242050  0.69617502  0.39595633
   0.29877534  0.79340980  0.49056613
   0.29473393  0.90510899  0.59300412
   0.28070597  0.00968087  0.69145522
   0.30882944  0.08958756  0.81084337
   0.29310671  0.21743371  0.88652752
   0.40546664  0.29407431  0.11386084
   0.41236900  0.39412406  0.19671854
   0.41054012  0.50226708  0.31807374
   0.39293947  0.61754642  0.40514004
   0.38921261  0.70943686  0.49998232
   0.39444117  0.80421198  0.60769344
   0.39680257  0.91099223  0.68531469
   0.39307810  0.00034847  0.79058174
   0.40517888  0.10921669  0.89242552
   0.41174716  0.20497929  0.99311546
   0.51116986  0.29745554  0.21838250
   0.50455335  0.41126585  0.29939656
   0.49884162  0.52213598  0.41197076
   0.51038161  0.61535379  0.50325459
   0.49866538  0.70398435  0.60388054
   0.50393052  0.79403236  0.71642561
   0.50433763  0.91484155  0.79235009
   0.49058902  0.01959520  0.88808427
   0.50710277  0.08613395  0.99379065
   0.50872890  0.19068426  0.10528807
   0.60140223  0.29795666  0.31305870
   0.61658686  0.41690555  0.40509910
   0.61691044  0.52410844  0.51144695
   0.61910980  0.61122281  0.61003104
   0.60934844  0.70013643  0.71622056
   0.59884673  0.80149917  0.79295550
   0.59865131  0.91366228  0.88411028
   0.60390281  0.00841265  0.00204934
   0.59569759  0.10576832  0.09076268
   0.60606798  0.19993611  0.21445493
   0.69505820  0.29904527  0.40714372
   0.70977251  0.39911432  0.50256226
   0.71416468  0.49997014  0.59772851
   0.70295671  0.59641768  0.71447748
   0.70551887  0.70624347  0.80781621
   0.70332048  0.81372469  0.90427245
   0.69600890  0.89914754  0.00529970
   0.70134847  0.00715972  0.09118329
   0.68989353  0.09007867  0.20678732
   0.70750091  0.19729501  0.31874241
   0.78187816  0.31041348  0.49409019
   0.78669342  0.38792554  0.60293472
   0.79423023  0.49683093  0.70734134
   0.81236839  0.59666022  0.81723418
   0.80638764  0.70710020  0.90789033
   0.80958206  0.81515838  0.99359763
   0.80249567  0.92033110  0.09142223
   0.79183321  0.99026521  0.19588239
   0.78107587  0.08849911  0.28955664
   0.80054298  0.19551052  0.39535623
   0.87337717  0.30637299  0.60423106
   0.89323685  0.38133945  0.71998359
   0.90065707  0.50230964  0.80392230
   0.89755153  0.59217761  0.90844523
   0.89678826  0.70651439  0.00905658
   0.90487164  0.80699247  0.08020219
   0.89950951  0.91115098  0.17861716
   0.89371062  0.99280490  0.30249176
   0.89813551  0.10188432  0.39575107
   0.88631214  0.22288984  0.49367582
   0.99607687  0.28737439  0.70116860
   0.99283765  0.38001023  0.81178590
   0.00043460  0.49678416  0.90903608
   0.01868385  0.59960880  0.01195624
   0.98488123  0.70826980  0.09749326
   0.00899330  0.81056756  0.19571658
   0.00170235  0.91113046  0.29207759
   0.01050760  0.99472555  0.39802248
   0.99853545  0.11655023  0.48189018
   0.99057635  0.21145715  0.60041457
   0.10068535  0.29185944  0.79688927
   0.09685129  0.40417779  0.90391086
   0.10412208  0.48411362  0.98240854
   0.09955839  0.60592130  0.09742610
   0.10500113  0.68805329  0.19594413
   0.08857785  0.80295640  0.29882516
   0.10650465  0.89551178  0.40523373
   0.10512214  0.00470914  0.49045705
   0.09913355  0.11625618  0.60325445
   0.10261815  0.20630389  0.70179406
   0.20797167  0.30435455  0.89784440
   0.20261601  0.38729037  0.00620342
   0.19510637  0.49878785  0.10631101
   0.20774966  0.60551723  0.20397276
   0.19535221  0.69790701  0.29355755
   0.20203729  0.79476325  0.39524303
   0.19821182  0.89824239  0.48758103
   0.20846500  0.02543382  0.59419681
   0.19511603  0.11344953  0.70870205
   0.20086734  0.19507223  0.79397011
   0.40605780  0.38572072  0.98917716
   0.41166945  0.48436806  0.09674159
   0.39474640  0.59708168  0.21477031
   0.39655394  0.70147148  0.28991205
   0.39880050  0.79512560  0.39875572
   0.40191825  0.89366598  0.49365238
   0.39627094  0.98406968  0.60358038
   0.39921157  0.09652328  0.68705628
   0.40366260  0.21018966  0.80436721
   0.40430322  0.29905842  0.90468662
   0.49472885  0.39375853  0.09489279
   0.49081094  0.51615648  0.19846462
   0.49963394  0.62885618  0.30105065
   0.50794592  0.71270036  0.39911222
   0.50031087  0.80683956  0.50884863
   0.49294461  0.88658539  0.61055419
   0.49744900  0.00369194  0.69640955
   0.50043635  0.10117840  0.78432982
   0.50185682  0.18726366  0.89177559
   0.51532085  0.29893192  0.99561343
   0.59312859  0.41004450  0.20185608
   0.60177215  0.50652076  0.30868506
   0.61307328  0.61327706  0.38749659
   0.60638353  0.71875285  0.50965757
   0.58955781  0.79128304  0.60438542
   0.60292043  0.90429596  0.70163817
   0.59369441  0.99266472  0.78432827
   0.59783133  0.09288659  0.88828289
   0.59549219  0.18014900  0.99327213
   0.59388255  0.29201136  0.09086018
   0.69143678  0.39563629  0.29308504
   0.70056481  0.48876764  0.39410102
   0.71073115  0.62448412  0.49807922
   0.71217415  0.69595096  0.60364733
   0.70003850  0.80102344  0.69501844
   0.69584137  0.89863651  0.79169847
   0.69990344  0.98375833  0.88858618
   0.70332212  0.10618585  0.98840849
   0.69781162  0.19333756  0.10155762
   0.69621416  0.31044295  0.20435564
   0.79276401  0.39728741  0.39246222
   0.79129259  0.50444000  0.50032682
   0.79473163  0.60351500  0.60912768
   0.81066922  0.69485863  0.70994075
   0.79511248  0.80283283  0.79841987
   0.81851385  0.90237060  0.89602258
   0.79923365  0.00352022  0.99731880
   0.80276730  0.09989527  0.09934209
   0.79044518  0.20750596  0.19622941
   0.80173836  0.30901555  0.29737563
   0.88052222  0.40002742  0.49816903
   0.88636729  0.48953447  0.60125977
   0.89913491  0.60081921  0.70517851
   0.91068643  0.69255227  0.80639015
   0.90835867  0.79073531  0.88657076
   0.90245645  0.89706981  0.99841717
   0.91020317  0.01489449  0.10190284
   0.88846067  0.08646431  0.20800441
   0.88763970  0.20042533  0.29895990
   0.90138734  0.30885136  0.38922493
   0.98791488  0.38901660  0.60182227
   0.99548295  0.49138702  0.70605268
   0.99634027  0.59168492  0.79762367
   0.01038979  0.68123045  0.90842044
   0.01272256  0.78633582  0.98739919
   0.00714073  0.89318423  0.10529399
   0.98953160  0.01225774  0.19975290
   0.00434499  0.09705081  0.30805188
   0.99578502  0.20226487  0.39488954
   0.99175258  0.30911830  0.50998118
   0.09267701  0.39037260  0.71931752
   0.09729227  0.50035240  0.80571902
   0.10905684  0.59692765  0.91276841
   0.11809362  0.69098875  0.01288422
   0.10206574  0.79106837  0.10337438
   0.10179402  0.90366017  0.19454441
   0.09010237  0.00650323  0.29482830
   0.09349757  0.10475245  0.40233585
   0.10466825  0.22564511  0.50737258
   0.10940621  0.29922936  0.60379772
   0.21055424  0.39295467  0.81047808
   0.21315664  0.49460282  0.90780605
   0.20279651  0.59960592  0.00200455
   0.20910208  0.68723245  0.09617417
   0.19055040  0.79738419  0.20753396
   0.20244607  0.89583941  0.29587447
   0.19254547  0.00447304  0.38947972
   0.18690722  0.10454058  0.48959537
   0.20302483  0.19758570  0.60351740
   0.20961483  0.29163315  0.70662927
   0.32082729  0.39161291  0.91321372
   0.30226702  0.47942184  0.01260910
   0.30235628  0.58618641  0.10046284
   0.28773646  0.69693575  0.19533234
   0.30572342  0.78994132  0.28943685
   0.29332782  0.89244024  0.39669208
   0.29892828  0.99810044  0.48478405
   0.29909638  0.10226162  0.59109684
   0.31500187  0.19225769  0.71381009
   0.30646417  0.30748724  0.78353011
