 504 504   0   0
  0.2106490E+02  0.2170700E-08  0.2148436E-08  0.2276500E-08  0.5000000E-15
  1.000000000000000E-004
  CAR 
 Li                                      
      3.20006597     -3.46883125  301      0.29128999      1.00000000
     -3.469  0.0000E+00  0.0000E+00
     -3.447  0.0000E+00  0.0000E+00
     -3.424  0.0000E+00  0.0000E+00
     -3.402  0.0000E+00  0.0000E+00
     -3.380  0.0000E+00  0.0000E+00
     -3.358  0.0000E+00  0.0000E+00
     -3.335  0.5119E-13  0.1138E-14
     -3.313  0.1476E-09  0.3282E-11
     -3.291  0.1472E-06  0.3275E-08
     -3.269  0.5024E-04  0.1120E-05
     -3.247  0.5919E-02  0.1327E-03
     -3.224  0.2435E+00  0.5546E-02
     -3.202  0.3548E+01  0.8442E-01
     -3.180  0.1860E+02  0.4980E+00
     -3.158  0.3557E+02  0.1289E+01
     -3.135  0.2502E+02  0.1845E+01
     -3.113  0.7615E+01  0.2014E+01
     -3.091  0.1221E+02  0.2286E+01
     -3.069  0.4723E+02  0.3336E+01
     -3.046  0.8873E+02  0.5308E+01
     -3.024  0.8056E+02  0.7099E+01
     -3.002  0.3445E+02  0.7865E+01
     -2.980  0.1279E+02  0.8149E+01
     -2.958  0.3561E+02  0.8941E+01
     -2.935  0.8023E+02  0.1072E+02
     -2.913  0.8692E+02  0.1266E+02
     -2.891  0.4855E+02  0.1374E+02
     -2.869  0.2424E+02  0.1427E+02
     -2.846  0.4395E+02  0.1525E+02
     -2.824  0.8237E+02  0.1708E+02
     -2.802  0.1069E+03  0.1946E+02
     -2.780  0.8207E+02  0.2128E+02
     -2.757  0.4010E+02  0.2217E+02
     -2.735  0.5541E+02  0.2341E+02
     -2.713  0.1095E+03  0.2584E+02
     -2.691  0.1399E+03  0.2895E+02
     -2.669  0.1266E+03  0.3176E+02
     -2.646  0.7520E+02  0.3344E+02
     -2.624  0.3575E+02  0.3423E+02
     -2.602  0.5179E+02  0.3538E+02
     -2.580  0.8743E+02  0.3733E+02
     -2.557  0.8003E+02  0.3910E+02
     -2.535  0.4702E+02  0.4015E+02
     -2.513  0.5267E+02  0.4132E+02
     -2.491  0.8693E+02  0.4325E+02
     -2.468  0.1090E+03  0.4568E+02
     -2.446  0.1162E+03  0.4826E+02
     -2.424  0.1160E+03  0.5084E+02
     -2.402  0.1096E+03  0.5327E+02
     -2.380  0.1119E+03  0.5576E+02
     -2.357  0.1356E+03  0.5878E+02
     -2.335  0.1633E+03  0.6241E+02
     -2.313  0.1632E+03  0.6604E+02
     -2.291  0.1235E+03  0.6878E+02
     -2.268  0.7299E+02  0.7040E+02
     -2.246  0.5409E+02  0.7161E+02
     -2.224  0.5921E+02  0.7292E+02
     -2.202  0.7258E+02  0.7454E+02
     -2.180  0.7009E+02  0.7609E+02
     -2.157  0.8350E+02  0.7795E+02
     -2.135  0.1162E+03  0.8053E+02
     -2.113  0.1302E+03  0.8343E+02
     -2.091  0.1352E+03  0.8643E+02
     -2.068  0.1392E+03  0.8953E+02
     -2.046  0.1268E+03  0.9235E+02
     -2.024  0.1162E+03  0.9493E+02
     -2.002  0.1311E+03  0.9785E+02
     -1.979  0.1532E+03  0.1013E+03
     -1.957  0.1694E+03  0.1050E+03
     -1.935  0.1657E+03  0.1087E+03
     -1.913  0.1091E+03  0.1111E+03
     -1.891  0.5320E+02  0.1123E+03
     -1.868  0.6982E+02  0.1139E+03
     -1.846  0.1220E+03  0.1166E+03
     -1.824  0.1437E+03  0.1198E+03
     -1.802  0.1346E+03  0.1228E+03
     -1.779  0.1360E+03  0.1258E+03
     -1.757  0.1554E+03  0.1292E+03
     -1.735  0.1666E+03  0.1329E+03
     -1.713  0.1658E+03  0.1366E+03
     -1.690  0.1557E+03  0.1401E+03
     -1.668  0.1397E+03  0.1432E+03
     -1.646  0.1373E+03  0.1462E+03
     -1.624  0.1411E+03  0.1494E+03
     -1.602  0.1549E+03  0.1528E+03
     -1.579  0.1582E+03  0.1563E+03
     -1.557  0.1291E+03  0.1592E+03
     -1.535  0.1027E+03  0.1615E+03
     -1.513  0.1053E+03  0.1638E+03
     -1.490  0.1154E+03  0.1664E+03
     -1.468  0.1132E+03  0.1689E+03
     -1.446  0.1084E+03  0.1713E+03
     -1.424  0.1229E+03  0.1741E+03
     -1.401  0.1437E+03  0.1773E+03
     -1.379  0.1527E+03  0.1806E+03
     -1.357  0.1577E+03  0.1842E+03
     -1.335  0.1653E+03  0.1878E+03
     -1.313  0.1721E+03  0.1917E+03
     -1.290  0.1839E+03  0.1957E+03
     -1.268  0.2030E+03  0.2003E+03
     -1.246  0.2106E+03  0.2049E+03
     -1.224  0.2085E+03  0.2096E+03
     -1.201  0.2044E+03  0.2141E+03
     -1.179  0.1911E+03  0.2184E+03
     -1.157  0.1685E+03  0.2221E+03
     -1.135  0.1539E+03  0.2255E+03
     -1.112  0.1438E+03  0.2287E+03
     -1.090  0.1246E+03  0.2315E+03
     -1.068  0.1164E+03  0.2341E+03
     -1.046  0.1362E+03  0.2371E+03
     -1.024  0.1565E+03  0.2406E+03
     -1.001  0.1613E+03  0.2442E+03
     -0.979  0.1603E+03  0.2477E+03
     -0.957  0.1686E+03  0.2515E+03
     -0.935  0.1855E+03  0.2556E+03
     -0.912  0.1933E+03  0.2599E+03
     -0.890  0.1814E+03  0.2639E+03
     -0.868  0.1648E+03  0.2676E+03
     -0.846  0.1512E+03  0.2710E+03
     -0.824  0.1432E+03  0.2741E+03
     -0.801  0.1552E+03  0.2776E+03
     -0.779  0.1684E+03  0.2813E+03
     -0.757  0.1633E+03  0.2850E+03
     -0.735  0.1658E+03  0.2887E+03
     -0.712  0.1811E+03  0.2927E+03
     -0.690  0.1988E+03  0.2971E+03
     -0.668  0.2138E+03  0.3019E+03
     -0.646  0.2150E+03  0.3066E+03
     -0.623  0.2138E+03  0.3114E+03
     -0.601  0.2206E+03  0.3163E+03
     -0.579  0.2224E+03  0.3212E+03
     -0.557  0.2145E+03  0.3260E+03
     -0.535  0.2120E+03  0.3307E+03
     -0.512  0.2099E+03  0.3354E+03
     -0.490  0.1901E+03  0.3396E+03
     -0.468  0.1715E+03  0.3434E+03
     -0.446  0.1770E+03  0.3474E+03
     -0.423  0.1813E+03  0.3514E+03
     -0.401  0.1668E+03  0.3551E+03
     -0.379  0.1623E+03  0.3587E+03
     -0.357  0.1832E+03  0.3628E+03
     -0.334  0.2034E+03  0.3673E+03
     -0.312  0.2040E+03  0.3718E+03
     -0.290  0.1981E+03  0.3762E+03
     -0.268  0.1969E+03  0.3806E+03
     -0.246  0.2012E+03  0.3851E+03
     -0.223  0.2163E+03  0.3899E+03
     -0.201  0.2309E+03  0.3950E+03
     -0.179  0.2395E+03  0.4003E+03
     -0.157  0.2450E+03  0.4058E+03
     -0.134  0.2411E+03  0.4112E+03
     -0.112  0.2242E+03  0.4161E+03
     -0.090  0.2101E+03  0.4208E+03
     -0.068  0.2093E+03  0.4255E+03
     -0.045  0.2204E+03  0.4304E+03
     -0.023  0.2280E+03  0.4354E+03
     -0.001  0.2213E+03  0.4403E+03
      0.021  0.2053E+03  0.4449E+03
      0.043  0.1939E+03  0.4492E+03
      0.066  0.1968E+03  0.4536E+03
      0.088  0.1952E+03  0.4579E+03
      0.110  0.1885E+03  0.4621E+03
      0.132  0.1995E+03  0.4666E+03
      0.155  0.2156E+03  0.4714E+03
      0.177  0.2220E+03  0.4763E+03
      0.199  0.2292E+03  0.4814E+03
      0.221  0.2337E+03  0.4866E+03
      0.244  0.2421E+03  0.4920E+03
      0.266  0.2501E+03  0.4975E+03
      0.288  0.2529E+03  0.5031E+03
      0.310  0.2639E+03  0.5090E+03
      0.332  0.2750E+03  0.5151E+03
      0.355  0.2717E+03  0.5212E+03
      0.377  0.2596E+03  0.5269E+03
      0.399  0.2560E+03  0.5326E+03
      0.421  0.2577E+03  0.5384E+03
      0.444  0.2547E+03  0.5440E+03
      0.466  0.2543E+03  0.5497E+03
      0.488  0.2569E+03  0.5554E+03
      0.510  0.2615E+03  0.5612E+03
      0.533  0.2583E+03  0.5669E+03
      0.555  0.2574E+03  0.5727E+03
      0.577  0.2577E+03  0.5784E+03
      0.599  0.2414E+03  0.5838E+03
      0.621  0.2210E+03  0.5887E+03
      0.644  0.2110E+03  0.5934E+03
      0.666  0.2134E+03  0.5981E+03
      0.688  0.2146E+03  0.6029E+03
      0.710  0.2083E+03  0.6075E+03
      0.733  0.2003E+03  0.6120E+03
      0.755  0.2039E+03  0.6165E+03
      0.777  0.2212E+03  0.6214E+03
      0.799  0.2316E+03  0.6266E+03
      0.821  0.2338E+03  0.6317E+03
      0.844  0.2234E+03  0.6367E+03
      0.866  0.2123E+03  0.6414E+03
      0.888  0.2210E+03  0.6463E+03
      0.910  0.2315E+03  0.6515E+03
      0.933  0.2319E+03  0.6566E+03
      0.955  0.2317E+03  0.6618E+03
      0.977  0.2406E+03  0.6671E+03
      0.999  0.2494E+03  0.6727E+03
      1.022  0.2407E+03  0.6780E+03
      1.044  0.2251E+03  0.6830E+03
      1.066  0.2065E+03  0.6876E+03
      1.088  0.1957E+03  0.6920E+03
      1.110  0.2061E+03  0.6966E+03
      1.133  0.2194E+03  0.7014E+03
      1.155  0.2245E+03  0.7064E+03
      1.177  0.2197E+03  0.7113E+03
      1.199  0.2159E+03  0.7161E+03
      1.222  0.2170E+03  0.7209E+03
      1.244  0.2182E+03  0.7258E+03
      1.266  0.2168E+03  0.7306E+03
      1.288  0.2182E+03  0.7355E+03
      1.311  0.2202E+03  0.7404E+03
      1.333  0.2178E+03  0.7452E+03
      1.355  0.2112E+03  0.7499E+03
      1.377  0.2151E+03  0.7547E+03
      1.399  0.2186E+03  0.7595E+03
      1.422  0.2171E+03  0.7644E+03
      1.444  0.2154E+03  0.7692E+03
      1.466  0.2056E+03  0.7737E+03
      1.488  0.2060E+03  0.7783E+03
      1.511  0.2162E+03  0.7831E+03
      1.533  0.2184E+03  0.7880E+03
      1.555  0.2129E+03  0.7927E+03
      1.577  0.2075E+03  0.7973E+03
      1.600  0.2054E+03  0.8019E+03
      1.622  0.2038E+03  0.8064E+03
      1.644  0.2052E+03  0.8110E+03
      1.666  0.2173E+03  0.8158E+03
      1.688  0.2239E+03  0.8208E+03
      1.711  0.2225E+03  0.8257E+03
      1.733  0.2175E+03  0.8306E+03
      1.755  0.2089E+03  0.8352E+03
      1.777  0.1995E+03  0.8396E+03
      1.800  0.1975E+03  0.8440E+03
      1.822  0.2012E+03  0.8485E+03
      1.844  0.1948E+03  0.8528E+03
      1.866  0.1782E+03  0.8568E+03
      1.889  0.1734E+03  0.8606E+03
      1.911  0.1835E+03  0.8647E+03
      1.933  0.1863E+03  0.8689E+03
      1.955  0.1843E+03  0.8730E+03
      1.977  0.1877E+03  0.8771E+03
      2.000  0.1799E+03  0.8811E+03
      2.022  0.1675E+03  0.8849E+03
      2.044  0.1648E+03  0.8885E+03
      2.066  0.1688E+03  0.8923E+03
      2.089  0.1689E+03  0.8960E+03
      2.111  0.1739E+03  0.8999E+03
      2.133  0.1819E+03  0.9039E+03
      2.155  0.1751E+03  0.9078E+03
      2.178  0.1673E+03  0.9115E+03
      2.200  0.1665E+03  0.9152E+03
      2.222  0.1584E+03  0.9188E+03
      2.244  0.1520E+03  0.9221E+03
      2.266  0.1541E+03  0.9256E+03
      2.289  0.1552E+03  0.9290E+03
      2.311  0.1515E+03  0.9324E+03
      2.333  0.1520E+03  0.9358E+03
      2.355  0.1508E+03  0.9391E+03
      2.378  0.1489E+03  0.9424E+03
      2.400  0.1483E+03  0.9457E+03
      2.422  0.1441E+03  0.9489E+03
      2.444  0.1415E+03  0.9521E+03
      2.466  0.1473E+03  0.9554E+03
      2.489  0.1549E+03  0.9588E+03
      2.511  0.1544E+03  0.9622E+03
      2.533  0.1520E+03  0.9656E+03
      2.555  0.1489E+03  0.9689E+03
      2.578  0.1384E+03  0.9720E+03
      2.600  0.1340E+03  0.9750E+03
      2.622  0.1309E+03  0.9779E+03
      2.644  0.1256E+03  0.9807E+03
      2.667  0.1226E+03  0.9834E+03
      2.689  0.1292E+03  0.9863E+03
      2.711  0.1258E+03  0.9891E+03
      2.733  0.1111E+03  0.9915E+03
      2.755  0.1118E+03  0.9940E+03
      2.778  0.1227E+03  0.9968E+03
      2.800  0.1262E+03  0.9996E+03
      2.822  0.1154E+03  0.1002E+04
      2.844  0.1075E+03  0.1005E+04
      2.867  0.9756E+02  0.1007E+04
      2.889  0.7935E+02  0.1008E+04
      2.911  0.4977E+02  0.1010E+04
      2.933  0.1734E+02  0.1010E+04
      2.956  0.2637E+01  0.1010E+04
      2.978  0.1563E+00  0.1010E+04
      3.000  0.3420E-02  0.1010E+04
      3.022  0.2674E-04  0.1010E+04
      3.044  0.7323E-07  0.1010E+04
      3.067  0.6934E-10  0.1010E+04
      3.089  0.2497E-13  0.1010E+04
      3.111  0.0000E+00  0.1010E+04
      3.133  0.0000E+00  0.1010E+04
      3.156  0.0000E+00  0.1010E+04
      3.178  0.0000E+00  0.1010E+04
      3.200  0.0000E+00  0.1010E+04
