 running on   64 total cores
 distrk:  each k-point on   32 cores,    2 groups
 distr:  one band on   32 cores,    1 groups
 vasp.6.2.1 16May21 (build Nov 23 2021 15:40:41) complex                        
  
 POSCAR found type information on POSCAR Li
 POSCAR found :  1 types and     504 ions
 scaLAPACK will be used
 -----------------------------------------------------------------------------
|                                                                             |
|           W    W    AA    RRRRR   N    N  II  N    N   GGGG   !!!           |
|           W    W   A  A   R    R  NN   N  II  NN   N  G    G  !!!           |
|           W    W  A    A  R    R  N N  N  II  N N  N  G       !!!           |
|           W WW W  AAAAAA  RRRRR   N  N N  II  N  N N  G  GGG   !            |
|           WW  WW  A    A  R   R   N   NN  II  N   NN  G    G                |
|           W    W  A    A  R    R  N    N  II  N    N   GGGG   !!!           |
|                                                                             |
|     For optimal performance we recommend to set                             |
|       NCORE = 2 up to number-of-cores-per-socket                            |
|     NCORE specifies how many cores store one orbital (NPAR=cpu/NCORE).      |
|     This setting can greatly improve the performance of VASP for DFT.       |
|     The default, NCORE=1 might be grossly inefficient on modern             |
|     multi-core architectures or massively parallel machines. Do your        |
|     own testing! More info at https://www.vasp.at/wiki/index.php/NCORE      |
|     Unfortunately you need to use the default for GW and RPA                |
|     calculations (for HF NCORE is supported but not extensively tested      |
|     yet).                                                                   |
|                                                                             |
 -----------------------------------------------------------------------------

 -----------------------------------------------------------------------------
|                                                                             |
|               ----> ADVICE to this user running VASP <----                  |
|                                                                             |
|     You have a (more or less) 'large supercell' and for larger cells it     |
|     might be more efficient to use real-space projection operators.         |
|     Therefore, try LREAL= Auto in the INCAR file.                           |
|     Mind: If you want to do very accurate calculations, keep the            |
|     reciprocal projection scheme (i.e. LREAL=.FALSE.).                      |
|                                                                             |
 -----------------------------------------------------------------------------

 LDA part: xc-table for Pade appr. of Perdew
 POSCAR found type information on POSCAR Li
 POSCAR found :  1 types and     504 ions
 POSCAR, INCAR and KPOINTS ok, starting setup
 FFT: planning ...
 WAVECAR not read
 entering main loop
       N       E                     dE             d eps       ncg     rms          rms(c)
DAV:   1    -0.304201941112E+03   -0.30420E+03   -0.12302E+05  4040   0.658E+02
DAV:   2    -0.905695410111E+03   -0.60149E+03   -0.55137E+03  4636   0.677E+01
DAV:   3    -0.947219382582E+03   -0.41524E+02   -0.37702E+02  5136   0.140E+01
DAV:   4    -0.948625522077E+03   -0.14061E+01   -0.13815E+01  4640   0.280E+00
DAV:   5    -0.948656511160E+03   -0.30989E-01   -0.30924E-01  4800   0.449E-01    0.717E+00
DAV:   6    -0.955658835424E+03   -0.70023E+01   -0.76909E+00  4696   0.473E+00    0.874E+00
DAV:   7    -0.942408834385E+03    0.13250E+02   -0.63430E+00  4720   0.427E+00    0.371E+00
DAV:   8    -0.941655962497E+03    0.75287E+00   -0.34764E+00  4568   0.180E+00    0.266E+00
DAV:   9    -0.941236194078E+03    0.41977E+00   -0.16424E+00  4544   0.140E+00    0.188E+00
DAV:  10    -0.940903382606E+03    0.33281E+00   -0.68589E-01  4520   0.863E-01    0.103E+00
DAV:  11    -0.940882733941E+03    0.20649E-01   -0.26018E-01  4488   0.467E-01    0.725E-01
DAV:  12    -0.940858061588E+03    0.24672E-01   -0.93910E-02  4560   0.355E-01    0.531E-01
DAV:  13    -0.940836813725E+03    0.21248E-01   -0.28077E-02  4528   0.191E-01    0.252E-01
DAV:  14    -0.940838652263E+03   -0.18385E-02   -0.11008E-02  4616   0.132E-01    0.218E-01
DAV:  15    -0.940834203621E+03    0.44486E-02   -0.69736E-03  4592   0.101E-01    0.103E-01
DAV:  16    -0.940833345742E+03    0.85788E-03   -0.23306E-03  4488   0.497E-02    0.462E-02
DAV:  17    -0.940833371285E+03   -0.25543E-04   -0.67904E-04  4520   0.276E-02    0.357E-02
DAV:  18    -0.940833220995E+03    0.15029E-03   -0.27269E-04  4472   0.197E-02    0.182E-02
DAV:  19    -0.940833183953E+03    0.37042E-04   -0.75021E-05  4464   0.919E-03    0.103E-02
DAV:  20    -0.940833171173E+03    0.12781E-04   -0.28873E-05  3480   0.581E-03    0.728E-03
DAV:  21    -0.940833163492E+03    0.76808E-05   -0.13039E-05  2552   0.435E-03
   1 F= -.94083316E+03 E0= -.94076806E+03  d E =-.130213E+00
