Li                                      
           1
   -10.636430   18.422837    0.000000
   -18.233880  -10.527336    0.000000
    -0.000000    0.000000   22.309700
   Li
   504
Direct configuration=     1
   0.00296912  0.00086263  0.00013364
   0.92089825  0.04629709  0.67212375
   0.85425445  0.08554698  0.31996339
   0.77945231  0.11910436  0.00932934
   0.71048696  0.16124715  0.65810584
   0.64370601  0.20868017  0.33134222
   0.57370205  0.24613720  0.00082833
   0.50459078  0.28675815  0.66838059
   0.42725238  0.33040097  0.34537876
   0.35266118  0.37776376  0.97809570
   0.28918546  0.41761440  0.65520126
   0.20187711  0.46168116  0.33666981
   0.07756294  0.04178035  0.68109521
   0.99651636  0.08246491  0.32957968
   0.92548333  0.12971998  0.99916940
   0.86610775  0.16574872  0.67553581
   0.78310288  0.20559785  0.33812307
   0.71995800  0.24984210  0.00143576
   0.63693668  0.29235941  0.68211503
   0.56965679  0.32822020  0.33788842
   0.50249137  0.37866600  0.98295263
   0.43387836  0.40924051  0.67038406
   0.36111580  0.44908459  0.33602016
   0.28487822  0.49883618  0.98607659
   0.14312165  0.08721792  0.33230843
   0.07170643  0.12672370  0.00593663
   0.99907086  0.16324670  0.67890275
   0.92152498  0.20750940  0.32610301
   0.85762022  0.24423029  0.00158397
   0.79201594  0.28879721  0.66839545
   0.71706895  0.33112957  0.33367538
   0.64375450  0.37751901  0.99811189
   0.56995576  0.42015489  0.68329167
   0.50401549  0.46139664  0.33623969
   0.43266228  0.49401136  0.99979196
   0.36165545  0.54147285  0.67082341
   0.21466743  0.12284020  0.00103093
   0.13866795  0.16608310  0.66768060
   0.07426058  0.20787722  0.34347762
   0.99499738  0.24988906  0.00749802
   0.92191621  0.29219788  0.67278952
   0.85618835  0.33510076  0.33602602
   0.78674065  0.37629624  0.01227222
   0.71108890  0.42186674  0.66549076
   0.64132118  0.45770056  0.33629965
   0.57264175  0.49992621  0.00111655
   0.50358826  0.54612051  0.66841416
   0.43175388  0.58430592  0.33146623
   0.28514695  0.16706013  0.66272137
   0.21736189  0.21153597  0.33711521
   0.14784119  0.24920600  0.99005082
   0.07185464  0.29580466  0.68692807
   0.99945042  0.33319205  0.33263899
   0.92614683  0.36842203  0.00569978
   0.85195003  0.42264128  0.66163275
   0.78382444  0.46511461  0.34067373
   0.71284990  0.50355608  0.00783801
   0.64569776  0.54623878  0.65387876
   0.57679464  0.58639166  0.33020001
   0.50001114  0.63111915  0.98640052
   0.35349797  0.21384674  0.33044641
   0.28545508  0.24696111  0.97692566
   0.21954563  0.29313934  0.67109486
   0.14409274  0.32929406  0.35876072
   0.07007850  0.37021097  0.00386982
   0.00178776  0.41820537  0.66947719
   0.93401957  0.45531607  0.34064839
   0.85287119  0.49809407  0.99684659
   0.77900881  0.54221456  0.67092272
   0.71579011  0.58642156  0.34255856
   0.64676526  0.62747508  0.99620177
   0.57832177  0.66683505  0.66143181
   0.42893565  0.24135805  0.00435677
   0.36229860  0.29767801  0.65996279
   0.28789950  0.33160094  0.34159009
   0.22254204  0.37135276  0.00604833
   0.14343174  0.41622365  0.67423034
   0.06565472  0.45715224  0.33812371
   0.00176017  0.50056032  0.99632438
   0.93273554  0.53958191  0.65399036
   0.85497725  0.57890055  0.35654697
   0.78111997  0.62692423  0.99078276
   0.71232218  0.67048509  0.65159546
   0.64969350  0.71198945  0.34563502
   0.14339199  0.50481007  0.98287030
   0.06893032  0.54618111  0.66703910
   0.00664847  0.58698811  0.33586315
   0.93388740  0.61855667  0.99424945
   0.85801596  0.66424969  0.66169722
   0.78484242  0.70576158  0.34013103
   0.71115672  0.74433049  0.97821645
   0.21656168  0.53980992  0.67112273
   0.14179218  0.58361573  0.32219425
   0.06681668  0.63370016  0.00222517
   0.99994580  0.66836687  0.68492521
   0.92908286  0.69896420  0.33831710
   0.86203355  0.74857403  0.98946618
   0.78200716  0.79047232  0.65735705
   0.28793843  0.57747875  0.33399889
   0.21649532  0.62433569  0.99646111
   0.14781513  0.66751252  0.67007662
   0.07059288  0.70554246  0.32563874
   0.00396394  0.74738132  0.02222462
   0.92870501  0.78787976  0.66963510
   0.85392567  0.82996243  0.34212841
   0.35285732  0.61893687  0.98715700
   0.28943363  0.65905798  0.67835950
   0.21021489  0.69951125  0.33690992
   0.13359239  0.74774181  0.01510560
   0.07230089  0.79328379  0.68575748
   0.99534166  0.82891829  0.32938450
   0.92807491  0.87588775  0.00067941
   0.42461243  0.66337996  0.65819642
   0.35650272  0.70469599  0.33903603
   0.28159587  0.74407267  0.99175641
   0.20840443  0.79620377  0.66942272
   0.13843056  0.83580364  0.31836622
   0.07301153  0.87790372  0.99781040
   0.00164876  0.91045873  0.67326188
   0.93328992  0.95719472  0.33347828
   0.85339441  0.99523301  0.00664215
   0.78429536  0.03830031  0.65632542
   0.70625303  0.08167251  0.33851399
   0.63864203  0.12795205  0.99489683
   0.56793996  0.16557698  0.67326691
   0.50346668  0.20270636  0.33516774
   0.06710368  0.96213033  0.32597730
   0.14505281  0.00195388  0.99413061
   0.21711665  0.03266273  0.66824169
   0.28666882  0.08016985  0.35499879
   0.35273458  0.11808362  0.99456455
   0.42946594  0.16135824  0.65980732
   0.86602650  0.91245020  0.67516312
   0.78463207  0.95148150  0.33077023
   0.71491974  0.00225583  0.98590709
   0.64799638  0.04773918  0.67019478
   0.57612583  0.08325800  0.32678950
   0.50094969  0.12484031  0.99601475
   0.14572900  0.91845432  0.66161463
   0.21796321  0.94842848  0.34454653
   0.28979689  0.98707746  0.98911979
   0.35728179  0.04027559  0.66876819
   0.42534569  0.08242498  0.34435085
   0.78462852  0.87535891  0.99573099
   0.71731675  0.91277702  0.66022199
   0.64348423  0.96073897  0.33643187
   0.56633068  0.00242011  0.98385805
   0.49891239  0.04373496  0.66478379
   0.21117136  0.87540198  0.99986380
   0.29157869  0.91040448  0.67584564
   0.36174275  0.95728013  0.34083355
   0.42514270  0.99969754  0.99899421
   0.70945951  0.83654570  0.32913047
   0.64362605  0.88231332  0.00658860
   0.57383454  0.91680273  0.64751263
   0.50289754  0.96471761  0.34514129
   0.28880805  0.82374547  0.33191140
   0.36404709  0.87191789  0.99355185
   0.42777163  0.91789182  0.66445242
   0.63786453  0.78871789  0.66279865
   0.57492990  0.82785105  0.34803994
   0.50320472  0.87542464  0.99075889
   0.35765381  0.79538909  0.67429881
   0.42781752  0.84377685  0.34497061
   0.57338765  0.74995562  0.98998083
   0.50421415  0.78771134  0.66329917
   0.42904336  0.74613888  0.99732413
   0.49624199  0.70130235  0.33093924
   0.99923410  0.00074782  0.77814279
   0.92803104  0.03819061  0.44897262
   0.85134688  0.08461302  0.10621465
   0.78848044  0.11817210  0.78013240
   0.71826533  0.16154028  0.44273677
   0.64957717  0.20941405  0.10678392
   0.57582027  0.24547177  0.79450091
   0.50870841  0.29291598  0.44663031
   0.43401485  0.31969504  0.10595637
   0.35950610  0.36710809  0.78540288
   0.28169240  0.42139151  0.43930399
   0.22145138  0.45293678  0.10175466
   0.06667332  0.05160419  0.43707898
   0.98756104  0.08243851  0.09348629
   0.93477918  0.12503692  0.77916942
   0.86241936  0.17043577  0.44359180
   0.77599244  0.20865440  0.11098118
   0.71656591  0.24107124  0.77572985
   0.63996722  0.28790316  0.44089589
   0.57339282  0.33429696  0.10150033
   0.51049801  0.36702667  0.78425380
   0.42504933  0.41863335  0.44206591
   0.35832013  0.45970054  0.11622273
   0.28071614  0.49545470  0.77716501
   0.15036478  0.08487923  0.11153848
   0.08178905  0.12033900  0.77532489
   0.99916745  0.17048880  0.44088072
   0.92479013  0.21317738  0.11819936
   0.86490456  0.24747454  0.78193346
   0.78111843  0.29023407  0.44441256
   0.70859014  0.32944671  0.11101533
   0.64546188  0.36937982  0.77202158
   0.57433821  0.42938074  0.44970055
   0.50706493  0.44782628  0.11079299
   0.42998267  0.49735621  0.78520151
   0.35517769  0.55060408  0.45022229
   0.21754228  0.12619438  0.76889337
   0.13784001  0.16479895  0.45479986
   0.07755356  0.21005949  0.11310379
   0.00222125  0.25103498  0.78385456
   0.92767203  0.29721790  0.44442923
   0.85394267  0.32567264  0.12684851
   0.78557702  0.37388385  0.76264796
   0.71382093  0.41100640  0.45592296
   0.63382885  0.46844500  0.11007057
   0.57342260  0.49798501  0.79007541
   0.49068527  0.53579098  0.43296397
   0.43361522  0.58041957  0.11827898
   0.29084985  0.17146463  0.44819862
   0.22098642  0.21614042  0.10784163
   0.14086115  0.24295648  0.77967845
   0.07505425  0.29183825  0.45652957
   0.99772911  0.33264829  0.11144569
   0.92721805  0.37600748  0.77472198
   0.84405905  0.41947936  0.45992520
   0.77786960  0.46223738  0.12358501
   0.71626396  0.49005317  0.77481671
   0.65076122  0.54492480  0.43209272
   0.58012145  0.59039297  0.10264255
   0.49787114  0.63057227  0.77232609
   0.36381147  0.20666438  0.10477856
   0.29144334  0.24579817  0.77037101
   0.19709494  0.30022843  0.45069111
   0.14026973  0.33434301  0.11053778
   0.06211596  0.37956791  0.77870009
   0.98955360  0.41878225  0.43756065
   0.92258904  0.46229311  0.11226457
   0.86130495  0.49748059  0.77333775
   0.77292593  0.54710673  0.44322127
   0.72038986  0.59099739  0.10798053
   0.65869044  0.62659658  0.76222060
   0.56143397  0.66369839  0.44584410
   0.43507625  0.24425388  0.77543385
   0.36611436  0.28765220  0.43719778
   0.28583481  0.33551882  0.10927130
   0.20274066  0.37577895  0.77514331
   0.13660400  0.42347381  0.44998438
   0.07878883  0.45414775  0.11667218
   0.00345248  0.50892669  0.76268496
   0.92165380  0.54452578  0.45301266
   0.85715336  0.58758588  0.11606208
   0.78864804  0.61917866  0.77582326
   0.70277601  0.67003877  0.47000441
   0.64417890  0.71993858  0.10809617
   0.12977626  0.49289274  0.78423074
   0.06820545  0.55473134  0.44066129
   0.00455352  0.58096374  0.09874259
   0.93111702  0.62822058  0.77316463
   0.84852557  0.66629409  0.45420828
   0.78678257  0.71344022  0.10377731
   0.71887187  0.75007311  0.76799709
   0.20296077  0.54203425  0.44576930
   0.14241507  0.57848422  0.11431701
   0.06596067  0.62880371  0.77106970
   0.99248349  0.66689524  0.44162551
   0.92433381  0.71414154  0.10793244
   0.85885374  0.75364763  0.76932071
   0.79152368  0.78533168  0.44753606
   0.29344666  0.57992643  0.11175993
   0.20782631  0.63162378  0.77749722
   0.12935092  0.67325815  0.45165519
   0.07027548  0.70811835  0.11957180
   0.99831236  0.75538909  0.78338838
   0.92413447  0.80069984  0.45820879
   0.85964913  0.83311103  0.10673069
   0.35029949  0.63029894  0.77714772
   0.28897359  0.66368083  0.44393050
   0.21350728  0.70307951  0.10837296
   0.14576399  0.75182672  0.79337053
   0.06844595  0.79439166  0.43885730
   0.98822698  0.83207035  0.11522532
   0.92707214  0.87367193  0.78188200
   0.42125347  0.66614597  0.44305838
   0.36764601  0.69722218  0.11270358
   0.27750766  0.75823244  0.76917202
   0.20750166  0.79752299  0.43551471
   0.13626339  0.82846969  0.11081488
   0.05935855  0.87825068  0.78321388
   0.99188035  0.91857051  0.43904639
   0.92939174  0.95276114  0.11359030
   0.85169840  0.00642434  0.77916417
   0.79146400  0.03390694  0.43569703
   0.72345170  0.07734605  0.10500005
   0.64953411  0.12172212  0.77696965
   0.57682623  0.16943292  0.43014121
   0.50947305  0.19306074  0.11589997
   0.07141520  0.95370825  0.11588090
   0.14581937  0.99636469  0.78082805
   0.20956029  0.04401229  0.43890500
   0.29349872  0.06659711  0.10028617
   0.35848749  0.11685553  0.78923193
   0.44270084  0.16936910  0.44793412
   0.84990630  0.92129187  0.44812034
   0.77742149  0.95279282  0.10546158
   0.71722040  0.99551640  0.76844095
   0.64841412  0.04334730  0.44032920
   0.57422470  0.08245393  0.11415710
   0.51133216  0.11317766  0.78758716
   0.14289332  0.92477670  0.44510097
   0.21183011  0.94937803  0.11176059
   0.28546112  0.00856450  0.77116788
   0.35353119  0.05847429  0.45456823
   0.42833646  0.08984566  0.10633979
   0.77957636  0.87877226  0.77649527
   0.71842461  0.91526156  0.44514450
   0.64001843  0.95460551  0.09471125
   0.57122464  0.00012910  0.76071113
   0.49774409  0.04665203  0.44675873
   0.21474500  0.87900926  0.78158817
   0.30712680  0.93567595  0.44600032
   0.35535425  0.94645581  0.11324461
   0.43183791  0.00721690  0.75847607
   0.71356368  0.83347429  0.11539259
   0.64949274  0.87238829  0.76685827
   0.57958629  0.92328459  0.46219090
   0.50449050  0.95389649  0.09891234
   0.28601648  0.82343815  0.11701797
   0.36095829  0.88390383  0.77737482
   0.42748900  0.92283964  0.45296177
   0.62595324  0.79048098  0.44001944
   0.58886628  0.83595024  0.11277685
   0.50322294  0.86453289  0.75911865
   0.34665521  0.78882046  0.44574094
   0.43611995  0.83201306  0.10576768
   0.57169550  0.74810701  0.77731212
   0.49401300  0.78946569  0.44881582
   0.43016905  0.75422562  0.75867198
   0.49256029  0.69927771  0.10768572
   0.99024542  0.99470028  0.22702906
   0.92736802  0.04784806  0.89453425
   0.85470942  0.08278372  0.55353934
   0.77427237  0.13518891  0.21644622
   0.71027039  0.17638562  0.90308139
   0.64120139  0.20699290  0.55405790
   0.57526715  0.24355358  0.23293927
   0.49681938  0.28663151  0.88611337
   0.42969690  0.34136489  0.54150674
   0.35920438  0.37345730  0.23027212
   0.28429991  0.41325576  0.88100830
   0.20254090  0.46062477  0.55400485
   0.07529225  0.03640523  0.88073861
   0.99084658  0.09052113  0.55383735
   0.91183214  0.12873263  0.21298424
   0.85848671  0.16466974  0.89424936
   0.79052237  0.20515256  0.56737634
   0.72074745  0.25982430  0.23661812
   0.65191417  0.28937434  0.88248694
   0.57565242  0.33379511  0.55685399
   0.49792327  0.37152994  0.23486076
   0.44160824  0.41030289  0.86358623
   0.36081368  0.46096872  0.57070793
   0.29613479  0.50216643  0.21680112
   0.13254521  0.08942290  0.57206297
   0.06689022  0.12754863  0.21715520
   0.99565508  0.15729615  0.89244020
   0.92450911  0.19883082  0.56767577
   0.84983062  0.24892449  0.21566345
   0.79186156  0.29588993  0.89581830
   0.71231777  0.33307060  0.56571464
   0.63658218  0.39211876  0.21860702
   0.57259746  0.41664812  0.88388478
   0.49439344  0.46046191  0.56220754
   0.43340339  0.50018945  0.22856032
   0.36025002  0.54354597  0.87102693
   0.21958719  0.12598071  0.22365645
   0.13449168  0.17388729  0.89134668
   0.05610134  0.21380184  0.56736014
   0.99894400  0.26505618  0.21743256
   0.93123544  0.29571727  0.88978325
   0.85086913  0.34196143  0.55351912
   0.78765370  0.37266316  0.22294890
   0.71813603  0.41669238  0.89296678
   0.64792545  0.46348958  0.56499524
   0.58390245  0.50631188  0.22078960
   0.51240550  0.54834190  0.88643869
   0.42820866  0.59043471  0.54678494
   0.27651935  0.16565974  0.88318052
   0.21884366  0.20839166  0.55676359
   0.14871044  0.24610702  0.23262188
   0.07199060  0.29328680  0.89007780
   0.00289469  0.33294298  0.56128163
   0.93029129  0.37395503  0.24133561
   0.86692848  0.41779753  0.87939375
   0.77216242  0.46251601  0.56018320
   0.70706806  0.50632586  0.22052975
   0.64037184  0.54406347  0.88332271
   0.56105340  0.57866261  0.55687373
   0.50991383  0.63033632  0.21782043
   0.35836840  0.20915348  0.55797146
   0.27904277  0.24937893  0.22929387
   0.22400348  0.29031324  0.88760428
   0.14088814  0.33250576  0.57238207
   0.07869300  0.37018372  0.23246470
   0.00663986  0.42481790  0.88022267
   0.92530070  0.45791463  0.55333897
   0.84402740  0.50301862  0.22567674
   0.78209145  0.53684844  0.87701189
   0.70755217  0.57833895  0.56179935
   0.64712484  0.63284119  0.22638920
   0.58441807  0.67371673  0.86927898
   0.42901400  0.24397432  0.23042843
   0.35705985  0.28810031  0.87272342
   0.29016921  0.33227377  0.54251964
   0.22870242  0.36428512  0.21661459
   0.13218242  0.41883381  0.88239357
   0.07049517  0.47054436  0.55050113
   0.00599814  0.49950705  0.21760829
   0.93067258  0.54041610  0.88435731
   0.84780586  0.58322686  0.55833864
   0.78559799  0.63428360  0.23902309
   0.72228493  0.66210262  0.87206017
   0.62997015  0.70299042  0.55585843
   0.15581619  0.49977217  0.22471742
   0.06250507  0.55262046  0.87531874
   0.00692915  0.58494198  0.56227605
   0.93317502  0.62906741  0.23353842
   0.85750112  0.66915469  0.88039659
   0.77563128  0.69643934  0.55428388
   0.71476519  0.75383757  0.22672362
   0.21191478  0.53906384  0.87256174
   0.13903345  0.59393111  0.55416001
   0.07977551  0.62380386  0.22507636
   0.01008976  0.66807180  0.89564794
   0.92167670  0.69719130  0.56056786
   0.85474808  0.74369831  0.23043219
   0.78601411  0.79662408  0.88395356
   0.28257465  0.58413112  0.55433058
   0.21951871  0.61948470  0.22742082
   0.15201254  0.67448763  0.89165690
   0.07117661  0.70889422  0.57289513
   0.99806452  0.75543363  0.21239350
   0.92771982  0.78309566  0.89044840
   0.85097862  0.83366755  0.55924836
   0.36479583  0.61600907  0.22221336
   0.28277536  0.66989991  0.89076396
   0.20827611  0.71140962  0.55915832
   0.14505333  0.74189519  0.21162874
   0.06657124  0.78966823  0.89828094
   0.00333419  0.83393089  0.56839933
   0.92637056  0.87198599  0.22366979
   0.43641961  0.66318272  0.88432763
   0.35108249  0.71569624  0.55418351
   0.29566122  0.73987274  0.22426338
   0.22302110  0.79916744  0.88917662
   0.13641350  0.83975908  0.54916551
   0.07167802  0.86622380  0.22746093
   0.99683206  0.91581283  0.89010655
   0.93097567  0.96270210  0.55493448
   0.84136601  0.00127484  0.21314649
   0.77555932  0.03877940  0.89601602
   0.70811536  0.09858746  0.54198960
   0.62947766  0.12112401  0.22430253
   0.57314528  0.15602156  0.89142000
   0.50821877  0.20730659  0.53791239
   0.07181230  0.97088928  0.56057348
   0.14178493  0.00449833  0.21624385
   0.21772929  0.04992492  0.88864750
   0.27057455  0.09328560  0.54620943
   0.34910936  0.11808846  0.22404448
   0.42891491  0.15972567  0.88106607
   0.86000813  0.91512989  0.89210991
   0.78604682  0.96541204  0.56895113
   0.70809757  0.00756918  0.21856998
   0.64557918  0.04849973  0.89270476
   0.56128392  0.08546562  0.56202771
   0.49985335  0.12156080  0.22914439
   0.13089997  0.92064123  0.88962306
   0.21843366  0.96332464  0.55185816
   0.28722120  0.97829688  0.23952402
   0.36111194  0.03314203  0.89440716
   0.42504318  0.09096157  0.56322209
   0.78889470  0.87201938  0.21628041
   0.70818815  0.91356803  0.88989403
   0.65297721  0.97119958  0.55620971
   0.57046573  0.99538761  0.22150415
   0.49905682  0.03509194  0.88672463
   0.21090993  0.87089316  0.22169546
   0.27281038  0.91151453  0.88748687
   0.37042888  0.96803570  0.57052579
   0.43325584  0.99123763  0.21684868
   0.71158933  0.82508729  0.53660501
   0.65049349  0.87633784  0.22638551
   0.57104780  0.91518758  0.87245300
   0.51098975  0.95545786  0.54606540
   0.29198715  0.84454480  0.55705582
   0.36566150  0.86383311  0.21679038
   0.42851135  0.91648201  0.87020666
   0.65579571  0.79481029  0.88176668
   0.57170123  0.83643595  0.55428635
   0.50248003  0.87254385  0.24032601
   0.36508212  0.79858268  0.88392827
   0.42570553  0.83744371  0.56027911
   0.56663925  0.75268485  0.22607013
   0.50943113  0.79788950  0.87780835
   0.43868254  0.73645935  0.21360724
   0.49531096  0.71418868  0.55733254
