 500 500   0   0
  0.1852332E+02  0.2100050E-08  0.2100050E-08  0.2100050E-08  0.5000000E-15
  1.000000000000000E-004
  CAR 
 Li                                      
      4.03841315     -3.33190739  301      0.64265068      1.00000000
     -3.332  0.0000E+00  0.0000E+00
     -3.307  0.0000E+00  0.0000E+00
     -3.283  0.0000E+00  0.0000E+00
     -3.258  0.0000E+00  0.0000E+00
     -3.234  0.0000E+00  0.0000E+00
     -3.209  0.0000E+00  0.0000E+00
     -3.185  0.0000E+00  0.0000E+00
     -3.160  0.6123E-12  0.1504E-13
     -3.135  0.2690E-08  0.6611E-10
     -3.111  0.3183E-05  0.7826E-07
     -3.086  0.1023E-02  0.2521E-04
     -3.062  0.9064E-01  0.2252E-02
     -3.037  0.2264E+01  0.5787E-01
     -3.013  0.1638E+02  0.4602E+00
     -2.988  0.3521E+02  0.1325E+01
     -2.963  0.2280E+02  0.1885E+01
     -2.939  0.4701E+01  0.2001E+01
     -2.914  0.7021E+01  0.2173E+01
     -2.890  0.4760E+02  0.3343E+01
     -2.865  0.1033E+03  0.5880E+01
     -2.841  0.7032E+02  0.7607E+01
     -2.816  0.1524E+02  0.7982E+01
     -2.791  0.7105E+01  0.8156E+01
     -2.767  0.4488E+02  0.9259E+01
     -2.742  0.1020E+03  0.1177E+02
     -2.718  0.7325E+02  0.1357E+02
     -2.693  0.1688E+02  0.1398E+02
     -2.669  0.9392E+01  0.1421E+02
     -2.644  0.5832E+02  0.1564E+02
     -2.619  0.1329E+03  0.1891E+02
     -2.595  0.9955E+02  0.2135E+02
     -2.570  0.2499E+02  0.2197E+02
     -2.546  0.1439E+02  0.2232E+02
     -2.521  0.8291E+02  0.2436E+02
     -2.497  0.1897E+03  0.2902E+02
     -2.472  0.1539E+03  0.3280E+02
     -2.447  0.4453E+02  0.3389E+02
     -2.423  0.9740E+01  0.3413E+02
     -2.398  0.4021E+02  0.3512E+02
     -2.374  0.9756E+02  0.3752E+02
     -2.349  0.7855E+02  0.3945E+02
     -2.325  0.2121E+02  0.3997E+02
     -2.300  0.1249E+02  0.4028E+02
     -2.275  0.7516E+02  0.4212E+02
     -2.251  0.1824E+03  0.4660E+02
     -2.226  0.1610E+03  0.5056E+02
     -2.202  0.5334E+02  0.5187E+02
     -2.177  0.2339E+02  0.5244E+02
     -2.153  0.1076E+03  0.5509E+02
     -2.128  0.2546E+03  0.6134E+02
     -2.104  0.2434E+03  0.6732E+02
     -2.079  0.9424E+02  0.6964E+02
     -2.054  0.1684E+02  0.7005E+02
     -2.030  0.2900E+02  0.7077E+02
     -2.005  0.8936E+02  0.7296E+02
     -1.981  0.9080E+02  0.7519E+02
     -1.956  0.3036E+02  0.7594E+02
     -1.932  0.1515E+02  0.7631E+02
     -1.907  0.8100E+02  0.7830E+02
     -1.882  0.2006E+03  0.8323E+02
     -1.858  0.1935E+03  0.8798E+02
     -1.833  0.7274E+02  0.8977E+02
     -1.809  0.2377E+02  0.9035E+02
     -1.784  0.9409E+02  0.9266E+02
     -1.760  0.2363E+03  0.9847E+02
     -1.735  0.2501E+03  0.1046E+03
     -1.710  0.1150E+03  0.1074E+03
     -1.686  0.2471E+02  0.1080E+03
     -1.661  0.3692E+02  0.1090E+03
     -1.637  0.1346E+03  0.1123E+03
     -1.612  0.1909E+03  0.1170E+03
     -1.588  0.1035E+03  0.1195E+03
     -1.563  0.3591E+02  0.1204E+03
     -1.538  0.9958E+02  0.1228E+03
     -1.514  0.2366E+03  0.1286E+03
     -1.489  0.2467E+03  0.1347E+03
     -1.465  0.1131E+03  0.1375E+03
     -1.440  0.2863E+02  0.1382E+03
     -1.416  0.7308E+02  0.1400E+03
     -1.391  0.2227E+03  0.1455E+03
     -1.366  0.2680E+03  0.1520E+03
     -1.342  0.1325E+03  0.1553E+03
     -1.317  0.3263E+02  0.1561E+03
     -1.293  0.4949E+02  0.1573E+03
     -1.268  0.1477E+03  0.1609E+03
     -1.244  0.1823E+03  0.1654E+03
     -1.219  0.9010E+02  0.1676E+03
     -1.195  0.3545E+02  0.1685E+03
     -1.170  0.8023E+02  0.1705E+03
     -1.145  0.1334E+03  0.1737E+03
     -1.121  0.1371E+03  0.1771E+03
     -1.096  0.9110E+02  0.1794E+03
     -1.072  0.4742E+02  0.1805E+03
     -1.047  0.1259E+03  0.1836E+03
     -1.023  0.3017E+03  0.1910E+03
     -0.998  0.3818E+03  0.2004E+03
     -0.973  0.2723E+03  0.2071E+03
     -0.949  0.1111E+03  0.2098E+03
     -0.924  0.9195E+02  0.2121E+03
     -0.900  0.2116E+03  0.2173E+03
     -0.875  0.2478E+03  0.2234E+03
     -0.851  0.1478E+03  0.2270E+03
     -0.826  0.6227E+02  0.2285E+03
     -0.801  0.5202E+02  0.2298E+03
     -0.777  0.9781E+02  0.2322E+03
     -0.752  0.1870E+03  0.2368E+03
     -0.728  0.1716E+03  0.2410E+03
     -0.703  0.1367E+03  0.2444E+03
     -0.679  0.2122E+03  0.2496E+03
     -0.654  0.2503E+03  0.2557E+03
     -0.629  0.2330E+03  0.2615E+03
     -0.605  0.1429E+03  0.2650E+03
     -0.580  0.3977E+02  0.2659E+03
     -0.556  0.2141E+02  0.2665E+03
     -0.531  0.6688E+02  0.2681E+03
     -0.507  0.9502E+02  0.2705E+03
     -0.482  0.5671E+02  0.2718E+03
     -0.457  0.5774E+02  0.2733E+03
     -0.433  0.1781E+03  0.2776E+03
     -0.408  0.3040E+03  0.2851E+03
     -0.384  0.3427E+03  0.2935E+03
     -0.359  0.3207E+03  0.3014E+03
     -0.335  0.2110E+03  0.3066E+03
     -0.310  0.1360E+03  0.3099E+03
     -0.286  0.2045E+03  0.3150E+03
     -0.261  0.2923E+03  0.3221E+03
     -0.236  0.2968E+03  0.3294E+03
     -0.212  0.2156E+03  0.3347E+03
     -0.187  0.1061E+03  0.3373E+03
     -0.163  0.5054E+02  0.3386E+03
     -0.138  0.9823E+02  0.3410E+03
     -0.114  0.1703E+03  0.3452E+03
     -0.089  0.2081E+03  0.3503E+03
     -0.064  0.1728E+03  0.3545E+03
     -0.040  0.1125E+03  0.3573E+03
     -0.015  0.1484E+03  0.3609E+03
      0.009  0.1918E+03  0.3656E+03
      0.034  0.1860E+03  0.3702E+03
      0.058  0.1913E+03  0.3749E+03
      0.083  0.2373E+03  0.3807E+03
      0.108  0.2902E+03  0.3879E+03
      0.132  0.2711E+03  0.3945E+03
      0.157  0.2146E+03  0.3998E+03
      0.181  0.2323E+03  0.4055E+03
      0.206  0.2374E+03  0.4113E+03
      0.230  0.1441E+03  0.4149E+03
      0.255  0.5217E+02  0.4162E+03
      0.280  0.7818E+02  0.4181E+03
      0.304  0.1953E+03  0.4229E+03
      0.329  0.2734E+03  0.4296E+03
      0.353  0.2827E+03  0.4366E+03
      0.378  0.2541E+03  0.4428E+03
      0.402  0.1842E+03  0.4473E+03
      0.427  0.1634E+03  0.4513E+03
      0.452  0.2041E+03  0.4563E+03
      0.476  0.2151E+03  0.4616E+03
      0.501  0.2345E+03  0.4674E+03
      0.525  0.2376E+03  0.4732E+03
      0.550  0.1881E+03  0.4779E+03
      0.574  0.1840E+03  0.4824E+03
      0.599  0.2479E+03  0.4885E+03
      0.623  0.2746E+03  0.4952E+03
      0.648  0.2452E+03  0.5012E+03
      0.673  0.2086E+03  0.5064E+03
      0.697  0.2077E+03  0.5115E+03
      0.722  0.2223E+03  0.5169E+03
      0.746  0.2204E+03  0.5223E+03
      0.771  0.2257E+03  0.5279E+03
      0.795  0.2714E+03  0.5345E+03
      0.820  0.3165E+03  0.5423E+03
      0.845  0.3368E+03  0.5506E+03
      0.869  0.3535E+03  0.5593E+03
      0.894  0.3401E+03  0.5676E+03
      0.918  0.3052E+03  0.5751E+03
      0.943  0.2905E+03  0.5823E+03
      0.967  0.2893E+03  0.5894E+03
      0.992  0.2937E+03  0.5966E+03
      1.017  0.2909E+03  0.6037E+03
      1.041  0.2545E+03  0.6100E+03
      1.066  0.1682E+03  0.6141E+03
      1.090  0.6567E+02  0.6157E+03
      1.115  0.2252E+02  0.6163E+03
      1.139  0.5762E+02  0.6177E+03
      1.164  0.1073E+03  0.6203E+03
      1.189  0.1219E+03  0.6233E+03
      1.213  0.1630E+03  0.6273E+03
      1.238  0.2050E+03  0.6324E+03
      1.262  0.2185E+03  0.6377E+03
      1.287  0.2259E+03  0.6433E+03
      1.311  0.2359E+03  0.6491E+03
      1.336  0.2368E+03  0.6549E+03
      1.361  0.2325E+03  0.6606E+03
      1.385  0.2506E+03  0.6668E+03
      1.410  0.2688E+03  0.6734E+03
      1.434  0.2744E+03  0.6801E+03
      1.459  0.2780E+03  0.6870E+03
      1.483  0.2785E+03  0.6938E+03
      1.508  0.2549E+03  0.7001E+03
      1.533  0.2237E+03  0.7056E+03
      1.557  0.2088E+03  0.7107E+03
      1.582  0.1952E+03  0.7155E+03
      1.606  0.1705E+03  0.7197E+03
      1.631  0.1825E+03  0.7242E+03
      1.655  0.1984E+03  0.7290E+03
      1.680  0.1947E+03  0.7338E+03
      1.704  0.1993E+03  0.7387E+03
      1.729  0.2101E+03  0.7439E+03
      1.754  0.2207E+03  0.7493E+03
      1.778  0.2022E+03  0.7543E+03
      1.803  0.1723E+03  0.7585E+03
      1.827  0.1717E+03  0.7627E+03
      1.852  0.1801E+03  0.7671E+03
      1.876  0.1470E+03  0.7707E+03
      1.901  0.1137E+03  0.7735E+03
      1.926  0.1524E+03  0.7773E+03
      1.950  0.1829E+03  0.7818E+03
      1.975  0.1640E+03  0.7858E+03
      1.999  0.1165E+03  0.7887E+03
      2.024  0.7022E+02  0.7904E+03
      2.048  0.8520E+02  0.7925E+03
      2.073  0.1362E+03  0.7958E+03
      2.098  0.1678E+03  0.8000E+03
      2.122  0.1898E+03  0.8046E+03
      2.147  0.2121E+03  0.8098E+03
      2.171  0.2296E+03  0.8155E+03
      2.196  0.2413E+03  0.8214E+03
      2.220  0.2567E+03  0.8277E+03
      2.245  0.2638E+03  0.8342E+03
      2.270  0.2537E+03  0.8404E+03
      2.294  0.2377E+03  0.8463E+03
      2.319  0.2252E+03  0.8518E+03
      2.343  0.2172E+03  0.8571E+03
      2.368  0.1971E+03  0.8620E+03
      2.392  0.1566E+03  0.8658E+03
      2.417  0.1383E+03  0.8692E+03
      2.442  0.1559E+03  0.8731E+03
      2.466  0.1517E+03  0.8768E+03
      2.491  0.1018E+03  0.8793E+03
      2.515  0.7653E+02  0.8812E+03
      2.540  0.1095E+03  0.8839E+03
      2.564  0.1506E+03  0.8875E+03
      2.589  0.1641E+03  0.8916E+03
      2.613  0.1577E+03  0.8955E+03
      2.638  0.1349E+03  0.8988E+03
      2.663  0.1290E+03  0.9019E+03
      2.687  0.1438E+03  0.9055E+03
      2.712  0.1464E+03  0.9091E+03
      2.736  0.1500E+03  0.9128E+03
      2.761  0.1491E+03  0.9164E+03
      2.785  0.1346E+03  0.9197E+03
      2.810  0.1156E+03  0.9226E+03
      2.835  0.1141E+03  0.9254E+03
      2.859  0.1380E+03  0.9288E+03
      2.884  0.1420E+03  0.9322E+03
      2.908  0.1262E+03  0.9353E+03
      2.933  0.1255E+03  0.9384E+03
      2.957  0.1323E+03  0.9417E+03
      2.982  0.1067E+03  0.9443E+03
      3.007  0.6277E+02  0.9458E+03
      3.031  0.5573E+02  0.9472E+03
      3.056  0.8847E+02  0.9494E+03
      3.080  0.1080E+03  0.9520E+03
      3.105  0.1265E+03  0.9551E+03
      3.129  0.1518E+03  0.9589E+03
      3.154  0.1519E+03  0.9626E+03
      3.179  0.1483E+03  0.9663E+03
      3.203  0.1656E+03  0.9703E+03
      3.228  0.1790E+03  0.9747E+03
      3.252  0.1729E+03  0.9790E+03
      3.277  0.1504E+03  0.9827E+03
      3.301  0.1123E+03  0.9854E+03
      3.326  0.7146E+02  0.9872E+03
      3.351  0.2849E+02  0.9879E+03
      3.375  0.4755E+01  0.9880E+03
      3.400  0.2668E+00  0.9880E+03
      3.424  0.4541E-02  0.9880E+03
      3.449  0.4596E-04  0.9880E+03
      3.473  0.3806E-02  0.9880E+03
      3.498  0.1801E+00  0.9880E+03
      3.522  0.2845E+01  0.9881E+03
      3.547  0.1826E+02  0.9885E+03
      3.572  0.5610E+02  0.9899E+03
      3.596  0.9350E+02  0.9922E+03
      3.621  0.1106E+03  0.9949E+03
      3.645  0.1097E+03  0.9976E+03
      3.670  0.8231E+02  0.9996E+03
      3.694  0.5316E+02  0.1001E+04
      3.719  0.3190E+02  0.1002E+04
      3.744  0.1014E+02  0.1002E+04
      3.768  0.1162E+01  0.1002E+04
      3.793  0.4167E-01  0.1002E+04
      3.817  0.4371E-03  0.1002E+04
      3.842  0.1288E-05  0.1002E+04
      3.866  0.1042E-08  0.1002E+04
      3.891  0.2260E-12  0.1002E+04
      3.916  0.0000E+00  0.1002E+04
      3.940  0.0000E+00  0.1002E+04
      3.965  0.0000E+00  0.1002E+04
      3.989  0.0000E+00  0.1002E+04
      4.014  0.0000E+00  0.1002E+04
      4.038  0.0000E+00  0.1002E+04
