 running on   64 total cores
 distrk:  each k-point on   32 cores,    2 groups
 distr:  one band on   32 cores,    1 groups
 vasp.6.2.1 16May21 (build Nov 23 2021 15:40:41) complex                        
  
 POSCAR found type information on POSCAR Li
 POSCAR found :  1 types and     500 ions
 scaLAPACK will be used
 -----------------------------------------------------------------------------
|                                                                             |
|           W    W    AA    RRRRR   N    N  II  N    N   GGGG   !!!           |
|           W    W   A  A   R    R  NN   N  II  NN   N  G    G  !!!           |
|           W    W  A    A  R    R  N N  N  II  N N  N  G       !!!           |
|           W WW W  AAAAAA  RRRRR   N  N N  II  N  N N  G  GGG   !            |
|           WW  WW  A    A  R   R   N   NN  II  N   NN  G    G                |
|           W    W  A    A  R    R  N    N  II  N    N   GGGG   !!!           |
|                                                                             |
|     For optimal performance we recommend to set                             |
|       NCORE = 2 up to number-of-cores-per-socket                            |
|     NCORE specifies how many cores store one orbital (NPAR=cpu/NCORE).      |
|     This setting can greatly improve the performance of VASP for DFT.       |
|     The default, NCORE=1 might be grossly inefficient on modern             |
|     multi-core architectures or massively parallel machines. Do your        |
|     own testing! More info at https://www.vasp.at/wiki/index.php/NCORE      |
|     Unfortunately you need to use the default for GW and RPA                |
|     calculations (for HF NCORE is supported but not extensively tested      |
|     yet).                                                                   |
|                                                                             |
 -----------------------------------------------------------------------------

 -----------------------------------------------------------------------------
|                                                                             |
|               ----> ADVICE to this user running VASP <----                  |
|                                                                             |
|     You have a (more or less) 'large supercell' and for larger cells it     |
|     might be more efficient to use real-space projection operators.         |
|     Therefore, try LREAL= Auto in the INCAR file.                           |
|     Mind: If you want to do very accurate calculations, keep the            |
|     reciprocal projection scheme (i.e. LREAL=.FALSE.).                      |
|                                                                             |
 -----------------------------------------------------------------------------

 LDA part: xc-table for Pade appr. of Perdew
 POSCAR found type information on POSCAR Li
 POSCAR found :  1 types and     500 ions
 POSCAR, INCAR and KPOINTS ok, starting setup
 FFT: planning ...
 WAVECAR not read
 entering main loop
       N       E                     dE             d eps       ncg     rms          rms(c)
DAV:   1    -0.270041978606E+03   -0.27004E+03   -0.12450E+05  4008   0.665E+02
DAV:   2    -0.888884571336E+03   -0.61884E+03   -0.56764E+03  4596   0.698E+01
DAV:   3    -0.931436793528E+03   -0.42552E+02   -0.38569E+02  5128   0.144E+01
DAV:   4    -0.932815522719E+03   -0.13787E+01   -0.13574E+01  4616   0.283E+00
DAV:   5    -0.932845653951E+03   -0.30131E-01   -0.30092E-01  4696   0.449E-01    0.710E+00
DAV:   6    -0.935907466753E+03   -0.30618E+01   -0.64402E+00  4608   0.408E+00    0.772E+00
DAV:   7    -0.926802764958E+03    0.91047E+01   -0.62468E+00  4664   0.377E+00    0.351E+00
DAV:   8    -0.925847298326E+03    0.95547E+00   -0.28733E+00  4520   0.149E+00    0.206E+00
DAV:   9    -0.925601299978E+03    0.24600E+00   -0.11070E+00  4448   0.950E-01    0.130E+00
DAV:  10    -0.925607065202E+03   -0.57652E-02   -0.33099E-01  4648   0.673E-01    0.114E+00
DAV:  11    -0.925471375221E+03    0.13569E+00   -0.14862E-01  4576   0.443E-01    0.527E-01
DAV:  12    -0.925464460451E+03    0.69148E-02   -0.49043E-02  4424   0.198E-01    0.277E-01
DAV:  13    -0.925462225889E+03    0.22346E-02   -0.16659E-02  4584   0.152E-01    0.206E-01
DAV:  14    -0.925458956141E+03    0.32697E-02   -0.42977E-03  4504   0.798E-02    0.840E-02
DAV:  15    -0.925458659813E+03    0.29633E-03   -0.14810E-03  4488   0.420E-02    0.508E-02
DAV:  16    -0.925458733769E+03   -0.73956E-04   -0.65012E-04  4648   0.319E-02    0.473E-02
DAV:  17    -0.925458405004E+03    0.32876E-03   -0.35557E-04  4568   0.219E-02    0.143E-02
DAV:  18    -0.925458377767E+03    0.27237E-04   -0.12288E-04  4272   0.861E-03    0.738E-03
DAV:  19    -0.925458373330E+03    0.44369E-05   -0.13498E-05  2784   0.455E-03
   1 F= -.92545837E+03 E0= -.92540619E+03  d E =-.104373E+00
