Li                                      
           1
    21.000500    0.000000    0.000000
     0.000000   21.000500    0.000000
     0.000000    0.000000   21.000500
   Li
   500
Direct configuration=     1
   0.98889241  0.99356924  0.99740029
   0.01252719  0.09971671  0.10996970
   0.00134110  0.19056822  0.19995432
   0.99469617  0.30580246  0.29979176
   0.99632470  0.39965090  0.40967980
   0.01944710  0.50697574  0.50142435
   0.01085385  0.59959593  0.58360518
   0.00680559  0.69126915  0.69576587
   0.99366782  0.81219025  0.79279366
   0.00541253  0.92821128  0.88193465
   0.10109086  0.00458700  0.09988881
   0.10750415  0.08805745  0.19598442
   0.09869990  0.20218756  0.30630898
   0.11154732  0.30228890  0.38077781
   0.11380179  0.40570810  0.48813862
   0.09539031  0.47816172  0.59392268
   0.10310979  0.59026148  0.69118510
   0.09138313  0.69796152  0.78985241
   0.09823336  0.80665234  0.88752659
   0.09406356  0.90301933  0.00002473
   0.20549084  0.98108370  0.19978094
   0.19704103  0.09242862  0.29252000
   0.20171572  0.20139386  0.40219019
   0.21802506  0.30150234  0.50005537
   0.20910540  0.40073854  0.59934810
   0.21296373  0.49538165  0.70864145
   0.18926278  0.59430125  0.80591704
   0.17938114  0.70477039  0.88540255
   0.18731774  0.80357883  0.99572844
   0.21095940  0.90414350  0.09977022
   0.29654545  0.01414736  0.30371579
   0.29743011  0.10428565  0.39963447
   0.30132605  0.19627386  0.49608537
   0.30363006  0.30420921  0.61045989
   0.30491520  0.40367157  0.69576347
   0.29784797  0.49281111  0.81185516
   0.29632070  0.59713564  0.89334237
   0.29645807  0.69796768  0.99371532
   0.29513262  0.79611238  0.08474610
   0.30628374  0.88329973  0.19914314
   0.39746111  0.01359753  0.40498283
   0.38775248  0.10612623  0.51309840
   0.40580479  0.19735157  0.60201357
   0.41088742  0.30331898  0.70290780
   0.39770958  0.39095078  0.80522643
   0.41480541  0.48885573  0.89897436
   0.39200666  0.61148559  0.00941221
   0.40889821  0.70354148  0.09172809
   0.40942783  0.78465738  0.19153538
   0.39412875  0.91234338  0.30860499
   0.48493878  0.99980840  0.50398737
   0.48144241  0.09292098  0.60759301
   0.49607146  0.19102377  0.70930701
   0.51088454  0.30478998  0.80853911
   0.51007254  0.39193816  0.90537520
   0.49419464  0.50119635  0.00755797
   0.50457759  0.59029470  0.10534828
   0.51699677  0.69132207  0.19551882
   0.49239319  0.78897092  0.30339123
   0.50735311  0.90471596  0.40232243
   0.59817655  0.99458935  0.59843686
   0.59975012  0.09262287  0.69590457
   0.59379713  0.18450430  0.80922644
   0.60243946  0.29581247  0.91076568
   0.61823302  0.40949395  0.98904958
   0.60991781  0.49186795  0.09680480
   0.61246691  0.58799732  0.20741440
   0.61086503  0.70176945  0.30536796
   0.59372218  0.80895391  0.41965273
   0.60110103  0.90978790  0.49221109
   0.69617012  0.99795506  0.71275073
   0.70174828  0.08882580  0.79081327
   0.70547448  0.17991534  0.90990556
   0.71314449  0.28865848  0.00426617
   0.70871012  0.41014709  0.08964136
   0.70243761  0.49449835  0.19881196
   0.72287978  0.59831099  0.30462729
   0.70781419  0.70578212  0.40586821
   0.69766410  0.80829496  0.51523550
   0.69457866  0.90159460  0.60266867
   0.81277311  0.01667856  0.78728351
   0.80133621  0.09513128  0.90080065
   0.80599624  0.19091234  0.99718877
   0.80520389  0.29454029  0.10182003
   0.81147475  0.39596146  0.20196859
   0.79880760  0.50018120  0.28865757
   0.79942910  0.60334311  0.40457220
   0.80313218  0.69871863  0.51256814
   0.80869314  0.80405874  0.60265805
   0.81691401  0.90770600  0.70293030
   0.90377695  0.98946636  0.89766169
   0.90416621  0.09423647  0.00835451
   0.89026514  0.19451579  0.11160962
   0.89687983  0.28622791  0.21169291
   0.90678272  0.38961394  0.31200584
   0.89453386  0.50475545  0.40836717
   0.89304204  0.59707538  0.50933420
   0.90520570  0.69597602  0.60254727
   0.90872340  0.79119710  0.70276481
   0.89445761  0.91205917  0.80369085
   0.11228446  0.09654077  0.00498969
   0.11215053  0.19631283  0.07949146
   0.09951402  0.28732617  0.21783085
   0.08989190  0.39780691  0.29896040
   0.09981698  0.49027697  0.38558701
   0.09236549  0.58770622  0.48558982
   0.09562609  0.69844105  0.59424478
   0.08892181  0.79968952  0.70473554
   0.10325578  0.91758703  0.79550879
   0.09754702  0.00930712  0.90458071
   0.20214999  0.08849721  0.10525132
   0.19284022  0.19305470  0.19415448
   0.21026381  0.30622236  0.28924452
   0.21324953  0.39485908  0.38466916
   0.20554516  0.49617487  0.48988859
   0.17940260  0.59591411  0.59128995
   0.18989295  0.70144047  0.69585905
   0.19890985  0.80382341  0.79202061
   0.19196050  0.91372090  0.89387322
   0.19757353  0.98988681  0.01089554
   0.31273707  0.10798060  0.20841515
   0.29454604  0.20657143  0.30303892
   0.31498066  0.30799652  0.40856822
   0.31131096  0.39701569  0.50105676
   0.30035332  0.50299283  0.59975316
   0.29589544  0.60591652  0.69950161
   0.28818849  0.68472104  0.80826154
   0.27712596  0.78354147  0.89565497
   0.30243383  0.89436663  0.00609311
   0.30662191  0.00616472  0.11449573
   0.40952867  0.10353477  0.29440211
   0.40137981  0.19021368  0.40292476
   0.40586078  0.28806939  0.50882033
   0.40950534  0.40391925  0.58818092
   0.39184634  0.49906052  0.69881420
   0.39915525  0.59396643  0.79772173
   0.38449658  0.70201562  0.89755538
   0.39638882  0.79907637  0.98916964
   0.40833052  0.90512450  0.09085678
   0.41455639  0.01002316  0.20644527
   0.49068492  0.09040970  0.40603650
   0.51022321  0.19662486  0.51258427
   0.51359386  0.30724370  0.62147376
   0.50612547  0.40566954  0.71477223
   0.49548427  0.50322737  0.79540525
   0.48054653  0.59967656  0.89692175
   0.51000858  0.69989128  0.99159781
   0.50631370  0.80074776  0.07581946
   0.49595371  0.89118616  0.19428075
   0.49796134  0.99876627  0.29042945
   0.59194990  0.09137830  0.49120884
   0.58791054  0.18996886  0.60380298
   0.59115928  0.28859900  0.70894925
   0.59656840  0.40578414  0.79459988
   0.59840199  0.51281532  0.91266868
   0.59835789  0.58656474  0.00202504
   0.61295755  0.70094413  0.09621962
   0.59269724  0.79703023  0.18920944
   0.60073934  0.89005893  0.30581350
   0.60056581  0.99813153  0.38507847
   0.69263066  0.09070474  0.58868982
   0.69395994  0.19527761  0.69910231
   0.69098630  0.29061554  0.80188841
   0.70296925  0.38866143  0.90078378
   0.72076200  0.51038518  0.99649232
   0.70956647  0.60362934  0.09244482
   0.70593072  0.70936721  0.19324443
   0.70836735  0.80466226  0.30127296
   0.69838590  0.88895684  0.40833809
   0.70657423  0.00678738  0.49046151
   0.80196537  0.10567453  0.68710607
   0.79817706  0.19554177  0.79435999
   0.79765649  0.29132503  0.90291269
   0.80182739  0.39705451  0.00240203
   0.81605245  0.50147094  0.09985881
   0.79883695  0.58273739  0.18438590
   0.80252863  0.69726509  0.30499078
   0.79964491  0.79661061  0.40549546
   0.80592416  0.89199079  0.49716777
   0.79863351  0.00355093  0.60737717
   0.89811216  0.10530755  0.80130242
   0.89691073  0.19447946  0.89586978
   0.90546748  0.29432251  0.00428370
   0.89836366  0.39292804  0.10127292
   0.91119780  0.49327322  0.19657391
   0.89630768  0.61301780  0.30096165
   0.89660733  0.69549719  0.39448548
   0.91262375  0.80421374  0.49233301
   0.88967085  0.90776091  0.60797922
   0.90052842  0.00685977  0.69289814
   0.00084668  0.09734774  0.88855308
   0.99922132  0.18256399  0.00384567
   0.98569742  0.28160879  0.10940002
   0.99851345  0.38855701  0.19702117
   0.98573269  0.50095210  0.29136562
   0.98792822  0.59798264  0.40134565
   0.99273179  0.69308561  0.47973469
   0.99574297  0.78781474  0.58826558
   0.99685756  0.90905295  0.69836307
   0.99561916  0.01859141  0.79383457
   0.20455326  0.20056115  0.99407599
   0.19469384  0.30290052  0.11718685
   0.19683723  0.40629536  0.20037749
   0.19504697  0.48311764  0.30046145
   0.19264466  0.59998673  0.38970426
   0.19268202  0.69487233  0.49624994
   0.19366574  0.79426474  0.59354814
   0.19251310  0.90930402  0.68896623
   0.19371738  0.00675332  0.78202112
   0.18997358  0.09421589  0.89577893
   0.28993859  0.20424222  0.10954937
   0.30426929  0.29954249  0.19596832
   0.30424857  0.40232334  0.29780178
   0.28721936  0.49620520  0.38611285
   0.29040343  0.60485977  0.49457295
   0.30152537  0.70582060  0.59709030
   0.28277110  0.79052975  0.70704780
   0.30297818  0.89295608  0.79407505
   0.29994277  0.00793159  0.89479138
   0.29892876  0.10623263  0.99945820
   0.40309764  0.21018410  0.20334208
   0.39718058  0.30243157  0.30465287
   0.39881681  0.40785552  0.40008233
   0.40242433  0.51477411  0.50011901
   0.38870995  0.59399149  0.59100407
   0.39937668  0.69848381  0.69639493
   0.38814442  0.79784495  0.80716612
   0.38974277  0.90120649  0.88775510
   0.39275460  0.99621433  0.99723434
   0.39590249  0.11669779  0.10573867
   0.49929812  0.19935897  0.31860098
   0.49176256  0.29625253  0.41369962
   0.50995330  0.40349607  0.51300239
   0.51229303  0.50874011  0.62122482
   0.50025375  0.60677627  0.70099541
   0.49053556  0.71394826  0.79599001
   0.50249557  0.79198048  0.89525654
   0.51401452  0.91116740  0.98979628
   0.49221019  0.01819113  0.09112276
   0.51298539  0.12209565  0.18959683
   0.60975725  0.20696190  0.40397181
   0.59790448  0.30140872  0.50562018
   0.61516353  0.39968941  0.61791501
   0.61213026  0.50791711  0.70595058
   0.59585470  0.60084234  0.80626793
   0.60671287  0.68914949  0.90163137
   0.60079310  0.79280297  0.99082850
   0.60209314  0.90484257  0.09451618
   0.57802796  0.98553104  0.20538535
   0.58739324  0.10495612  0.30830738
   0.69237056  0.19611650  0.51373947
   0.70733727  0.29288304  0.59297907
   0.70230522  0.40105789  0.70366135
   0.69827992  0.49781742  0.81033721
   0.71527356  0.59939320  0.89949278
   0.70783569  0.69396649  0.98884614
   0.70729712  0.81209345  0.08080611
   0.69111930  0.90377976  0.19807503
   0.69038374  0.98848857  0.29829757
   0.69493208  0.09626428  0.40392537
   0.79882358  0.18724081  0.59719177
   0.79187315  0.30433293  0.68826651
   0.80561325  0.40718128  0.79984866
   0.80714813  0.49374422  0.89240831
   0.83487101  0.60446332  0.99240349
   0.80272688  0.70934378  0.09382365
   0.78649669  0.79381844  0.20469917
   0.80037675  0.91031332  0.29182881
   0.78966725  0.00069475  0.38828158
   0.80183733  0.10328522  0.48704764
   0.89293628  0.19358721  0.69424009
   0.89173192  0.29082781  0.78919047
   0.89856753  0.37651328  0.89160618
   0.91281591  0.49881566  0.00979750
   0.91350039  0.61191260  0.09143001
   0.88596550  0.70139511  0.19611902
   0.89713444  0.80873983  0.30576258
   0.88602694  0.90395800  0.40050867
   0.89776461  0.00128228  0.49710751
   0.90929862  0.11020984  0.58373115
   0.99831333  0.20727085  0.80427111
   0.98846361  0.28875161  0.89576754
   0.99426567  0.38536082  0.00816091
   0.99957177  0.49528904  0.10257613
   0.01057098  0.60288182  0.20206519
   0.99675315  0.71291779  0.30516880
   0.00215850  0.81309104  0.40045212
   0.00299495  0.89883583  0.49460452
   0.99910304  0.00651389  0.59155442
   0.00162735  0.11177116  0.69359685
   0.09787640  0.18390666  0.89552858
   0.09493601  0.29078192  0.00117341
   0.09250245  0.38993085  0.09944690
   0.08441801  0.49557563  0.19532791
   0.08298516  0.59986670  0.29964494
   0.10576784  0.70394556  0.40104538
   0.10119791  0.80851711  0.49455339
   0.09027643  0.88862464  0.60976389
   0.09751720  0.99940596  0.68449247
   0.10902545  0.09994252  0.78615876
   0.29419721  0.29439779  0.99273070
   0.28681766  0.39869240  0.08464120
   0.28527216  0.49867629  0.18294717
   0.29769394  0.59556125  0.30025626
   0.28240644  0.70293858  0.40643152
   0.30517343  0.79062183  0.50042345
   0.27808446  0.89655164  0.59740997
   0.29702837  0.99694591  0.70048562
   0.30782829  0.10224241  0.79126911
   0.29477645  0.19572016  0.90165932
   0.37881470  0.30869654  0.09113913
   0.38011165  0.39012431  0.19161536
   0.40297352  0.50305330  0.29234335
   0.39353504  0.59430459  0.41412511
   0.39786613  0.69263616  0.50312797
   0.39616101  0.80641437  0.58943042
   0.38570953  0.89747968  0.69616701
   0.39780696  0.00467189  0.80447743
   0.39978696  0.10384535  0.91663002
   0.40033125  0.20480355  0.01117728
   0.50252539  0.29789240  0.20850108
   0.49157538  0.40831749  0.31360555
   0.50167439  0.50869083  0.40916955
   0.51633598  0.59067491  0.50520862
   0.49092544  0.70860476  0.59355753
   0.49384309  0.80977854  0.69954299
   0.48370701  0.90155460  0.80856698
   0.48642836  0.00417056  0.91645700
   0.49949420  0.11010325  0.01547315
   0.49720764  0.20898890  0.10952262
   0.58949491  0.30654806  0.30759390
   0.60081771  0.38969042  0.38560605
   0.61419581  0.50011304  0.50686536
   0.61795047  0.60201550  0.59998293
   0.59340840  0.71500259  0.69691372
   0.62379057  0.80218882  0.78953976
   0.60415505  0.90131648  0.89960781
   0.59616286  0.00522959  0.99765437
   0.60534867  0.10650010  0.11755653
   0.60074939  0.21228680  0.20507976
   0.70857602  0.30657363  0.41790657
   0.71465256  0.40580540  0.49396098
   0.70332559  0.49238831  0.59974182
   0.70095264  0.59903869  0.70307697
   0.70870174  0.69088472  0.80026860
   0.70328382  0.80213036  0.89498149
   0.70435566  0.91229466  0.99385224
   0.69687059  0.99217980  0.10738643
   0.68584270  0.09561035  0.20468240
   0.68664727  0.20029471  0.30218950
   0.80890764  0.29361888  0.50127115
   0.79639119  0.39793037  0.60081872
   0.80435949  0.49163824  0.70261282
   0.81795178  0.58598507  0.79580115
   0.81025666  0.71801043  0.88690681
   0.80353395  0.81194056  0.99250135
   0.79830104  0.89430376  0.10421615
   0.79614251  0.00022074  0.19307231
   0.79454963  0.08628096  0.30573110
   0.78752946  0.20943115  0.40101272
   0.89951827  0.30469294  0.59081761
   0.89823483  0.40340777  0.70215413
   0.90511876  0.49719955  0.79982146
   0.91570549  0.59919690  0.89912424
   0.90341251  0.73027806  0.99694367
   0.89875080  0.80333505  0.11843119
   0.90248039  0.90427995  0.20988081
   0.90103358  0.99922179  0.29276953
   0.89862102  0.10896550  0.39542658
   0.90871435  0.21463553  0.49088986
   0.99478503  0.29955780  0.70752221
   0.99138337  0.39696063  0.79689132
   0.98515800  0.49744027  0.90923298
   0.99745497  0.61462911  0.99412537
   0.99266790  0.69998622  0.09877222
   0.99874821  0.80230999  0.19511299
   0.99558358  0.89564577  0.30896794
   0.99561639  0.00185688  0.40892463
   0.00177896  0.10623376  0.48872855
   0.99154882  0.19384193  0.59615221
   0.09891146  0.28998686  0.79733027
   0.07758327  0.38227647  0.90769459
   0.08980675  0.50340456  0.01004033
   0.09486756  0.61455555  0.09826341
   0.10085877  0.71166665  0.19728533
   0.10193746  0.80339947  0.29704856
   0.10538257  0.89012876  0.39498112
   0.10384799  0.00279359  0.49245531
   0.10978064  0.11018340  0.58592410
   0.10730798  0.19853441  0.69090549
   0.18925836  0.30612707  0.90592272
   0.18779178  0.38855453  0.00197614
   0.20040766  0.51137243  0.09174122
   0.18578511  0.60154649  0.20283400
   0.19851461  0.70286151  0.30260517
   0.20173161  0.79261863  0.41380697
   0.19883904  0.90068477  0.49925215
   0.20454461  0.01000325  0.59062293
   0.20699386  0.11493398  0.69509624
   0.19960976  0.20229726  0.80181991
   0.39529763  0.40052082  0.99850032
   0.38893914  0.49757613  0.09304188
   0.40766103  0.60954923  0.20036200
   0.38781583  0.68773380  0.30386927
   0.39756766  0.80214316  0.40997809
   0.39373424  0.90739635  0.49511202
   0.38567531  0.97840246  0.60331357
   0.41635546  0.10095738  0.69652202
   0.40295014  0.19757408  0.82184663
   0.39423568  0.30471927  0.90093558
   0.50038939  0.39424295  0.09975225
   0.49610073  0.49931322  0.18021927
   0.50293664  0.59354616  0.30015342
   0.49314705  0.68856208  0.40967496
   0.49386566  0.80824884  0.49708833
   0.50395947  0.90034257  0.60018565
   0.50593591  0.99741303  0.69061006
   0.50357117  0.08803100  0.81196397
   0.49824593  0.19114995  0.90352294
   0.49183766  0.30228548  0.01636737
   0.58902705  0.39842892  0.19831291
   0.59596241  0.50921668  0.29385102
   0.60810689  0.60040296  0.39523761
   0.59825413  0.70646820  0.50911886
   0.58266257  0.81330115  0.59098906
   0.60886834  0.89948129  0.70331771
   0.59411071  0.98837452  0.80025284
   0.60048592  0.09494758  0.90770678
   0.60457541  0.19022072  0.99989059
   0.60648554  0.30487878  0.09988738
   0.68790408  0.40372360  0.29847747
   0.70620084  0.50731594  0.39836861
   0.69495009  0.62028773  0.50373260
   0.69725561  0.71736499  0.60670613
   0.70774940  0.79471379  0.70101183
   0.71450813  0.89642854  0.80374627
   0.71052827  0.01315804  0.89889783
   0.71622491  0.08892652  0.01800016
   0.69758202  0.19105639  0.10286484
   0.69357644  0.30543368  0.19617645
   0.81483416  0.41456876  0.39896747
   0.81060874  0.51628932  0.51174738
   0.78503702  0.59238686  0.60784305
   0.81292358  0.69446974  0.70615314
   0.80655878  0.81131764  0.80284931
   0.81157830  0.91348028  0.89861880
   0.80760556  0.99736851  0.01380064
   0.80326633  0.10070128  0.10381501
   0.77927913  0.20081599  0.19839009
   0.78923990  0.29813566  0.30738026
   0.88825863  0.40286876  0.51179075
   0.91462842  0.49685348  0.59998921
   0.90140449  0.60541237  0.69523852
   0.91908215  0.70048909  0.81916431
   0.91705858  0.81948629  0.89889232
   0.90608125  0.89587563  0.00220697
   0.90512132  0.99958723  0.11430619
   0.90076646  0.10137099  0.19769851
   0.89094118  0.19998543  0.30418815
   0.89356612  0.30555542  0.41495812
   0.01553833  0.38127836  0.59537665
   0.99933062  0.49988253  0.69396612
   0.99997353  0.58913627  0.80144149
   0.01505529  0.71613763  0.90968654
   0.00290676  0.80986156  0.98738214
   0.00290549  0.90559561  0.10262611
   0.00647535  0.00185190  0.20477167
   0.99562809  0.08759246  0.30825681
   0.99555869  0.21269056  0.40133579
   0.00920698  0.31293461  0.49495324
   0.09951044  0.39618400  0.70220583
   0.10052815  0.48281876  0.80138677
   0.09187654  0.58515537  0.89579905
   0.10895117  0.70956088  0.99557419
   0.09608983  0.79897328  0.10527768
   0.09510687  0.89782988  0.21402838
   0.09501351  0.00487129  0.30498448
   0.10710542  0.09818765  0.40004665
   0.10896241  0.20417851  0.49589405
   0.10984047  0.30729208  0.58766663
   0.20411343  0.37877011  0.79600963
   0.18909280  0.48382117  0.90639896
   0.20636064  0.60726980  0.99712079
   0.19601523  0.69982747  0.09072648
   0.19861579  0.80147349  0.19082749
   0.20739424  0.90411579  0.32526369
   0.19863309  0.99720600  0.40084688
   0.20716070  0.10981107  0.50478351
   0.22131815  0.20503218  0.58891504
   0.19238772  0.29128982  0.69298001
   0.29786455  0.39759748  0.90798751
   0.28688388  0.50608251  0.98953535
   0.29940633  0.61544518  0.10824990
   0.29775895  0.70606766  0.18944510
   0.30437729  0.79295171  0.29822049
   0.29215057  0.90472416  0.41093304
   0.29985242  0.00678799  0.49536034
   0.30953955  0.08746942  0.60919188
   0.30719686  0.20508931  0.71204385
   0.29778127  0.29699262  0.81651543
