 500 500   0   0
  0.1910214E+02  0.2121700E-08  0.2121700E-08  0.2121700E-08  0.5000000E-15
  1.000000000000000E-004
  CAR 
 Li                                      
      3.85806637     -3.37258047  301      0.55926699      1.00000000
     -3.373  0.0000E+00  0.0000E+00
     -3.348  0.0000E+00  0.0000E+00
     -3.324  0.0000E+00  0.0000E+00
     -3.300  0.0000E+00  0.0000E+00
     -3.276  0.0000E+00  0.0000E+00
     -3.252  0.0000E+00  0.0000E+00
     -3.228  0.0000E+00  0.0000E+00
     -3.204  0.1929E-11  0.4649E-13
     -3.180  0.6228E-08  0.1502E-09
     -3.156  0.5684E-05  0.1371E-06
     -3.132  0.1481E-02  0.3583E-04
     -3.107  0.1118E+00  0.2730E-02
     -3.083  0.2493E+01  0.6282E-01
     -3.059  0.1685E+02  0.4689E+00
     -3.035  0.3530E+02  0.1320E+01
     -3.011  0.2319E+02  0.1879E+01
     -2.987  0.5211E+01  0.2004E+01
     -2.963  0.8513E+01  0.2209E+01
     -2.939  0.4809E+02  0.3368E+01
     -2.915  0.9845E+02  0.5741E+01
     -2.891  0.7268E+02  0.7493E+01
     -2.866  0.1961E+02  0.7966E+01
     -2.842  0.8804E+01  0.8178E+01
     -2.818  0.4413E+02  0.9241E+01
     -2.794  0.9674E+02  0.1157E+02
     -2.770  0.7670E+02  0.1342E+02
     -2.746  0.2222E+02  0.1396E+02
     -2.722  0.1029E+02  0.1421E+02
     -2.698  0.5288E+02  0.1548E+02
     -2.674  0.1232E+03  0.1845E+02
     -2.650  0.1077E+03  0.2104E+02
     -2.625  0.3609E+02  0.2191E+02
     -2.601  0.1690E+02  0.2232E+02
     -2.577  0.7470E+02  0.2412E+02
     -2.553  0.1695E+03  0.2821E+02
     -2.529  0.1621E+03  0.3211E+02
     -2.505  0.6679E+02  0.3372E+02
     -2.481  0.1553E+02  0.3410E+02
     -2.457  0.3369E+02  0.3491E+02
     -2.433  0.8816E+02  0.3703E+02
     -2.408  0.8747E+02  0.3914E+02
     -2.384  0.3195E+02  0.3991E+02
     -2.360  0.1218E+02  0.4021E+02
     -2.336  0.5680E+02  0.4157E+02
     -2.312  0.1534E+03  0.4527E+02
     -2.288  0.1768E+03  0.4953E+02
     -2.264  0.8613E+02  0.5161E+02
     -2.240  0.2940E+02  0.5232E+02
     -2.216  0.8453E+02  0.5436E+02
     -2.192  0.2109E+03  0.5944E+02
     -2.167  0.2500E+03  0.6546E+02
     -2.143  0.1457E+03  0.6897E+02
     -2.119  0.4028E+02  0.6994E+02
     -2.095  0.2346E+02  0.7051E+02
     -2.071  0.7105E+02  0.7222E+02
     -2.047  0.9671E+02  0.7455E+02
     -2.023  0.5028E+02  0.7577E+02
     -1.999  0.1600E+02  0.7615E+02
     -1.975  0.5105E+02  0.7738E+02
     -1.951  0.1555E+03  0.8113E+02
     -1.926  0.2104E+03  0.8620E+02
     -1.902  0.1253E+03  0.8922E+02
     -1.878  0.3729E+02  0.9012E+02
     -1.854  0.5958E+02  0.9155E+02
     -1.830  0.1795E+03  0.9588E+02
     -1.806  0.2584E+03  0.1021E+03
     -1.782  0.1800E+03  0.1064E+03
     -1.758  0.5818E+02  0.1079E+03
     -1.734  0.2510E+02  0.1085E+03
     -1.710  0.8785E+02  0.1106E+03
     -1.685  0.1730E+03  0.1147E+03
     -1.661  0.1522E+03  0.1184E+03
     -1.637  0.6436E+02  0.1200E+03
     -1.613  0.6221E+02  0.1215E+03
     -1.589  0.1714E+03  0.1256E+03
     -1.565  0.2552E+03  0.1317E+03
     -1.541  0.1886E+03  0.1363E+03
     -1.517  0.6591E+02  0.1379E+03
     -1.493  0.4298E+02  0.1389E+03
     -1.469  0.1427E+03  0.1424E+03
     -1.444  0.2488E+03  0.1483E+03
     -1.420  0.2095E+03  0.1534E+03
     -1.396  0.9072E+02  0.1556E+03
     -1.372  0.3829E+02  0.1565E+03
     -1.348  0.9363E+02  0.1588E+03
     -1.324  0.1724E+03  0.1629E+03
     -1.300  0.1479E+03  0.1665E+03
     -1.276  0.6122E+02  0.1680E+03
     -1.252  0.4910E+02  0.1691E+03
     -1.227  0.1066E+03  0.1717E+03
     -1.203  0.1384E+03  0.1750E+03
     -1.179  0.1243E+03  0.1780E+03
     -1.155  0.7242E+02  0.1798E+03
     -1.131  0.6879E+02  0.1814E+03
     -1.107  0.1890E+03  0.1860E+03
     -1.083  0.3383E+03  0.1942E+03
     -1.059  0.3542E+03  0.2027E+03
     -1.035  0.2225E+03  0.2081E+03
     -1.011  0.9989E+02  0.2105E+03
     -0.986  0.1312E+03  0.2136E+03
     -0.962  0.2267E+03  0.2191E+03
     -0.938  0.2212E+03  0.2244E+03
     -0.914  0.1243E+03  0.2274E+03
     -0.890  0.5861E+02  0.2288E+03
     -0.866  0.6230E+02  0.2303E+03
     -0.842  0.1232E+03  0.2333E+03
     -0.818  0.1899E+03  0.2379E+03
     -0.794  0.1593E+03  0.2417E+03
     -0.770  0.1550E+03  0.2455E+03
     -0.745  0.2262E+03  0.2509E+03
     -0.721  0.2522E+03  0.2570E+03
     -0.697  0.2177E+03  0.2622E+03
     -0.673  0.1212E+03  0.2652E+03
     -0.649  0.3562E+02  0.2660E+03
     -0.625  0.3004E+02  0.2667E+03
     -0.601  0.7484E+02  0.2685E+03
     -0.577  0.8998E+02  0.2707E+03
     -0.553  0.5411E+02  0.2720E+03
     -0.529  0.7659E+02  0.2739E+03
     -0.504  0.2022E+03  0.2787E+03
     -0.480  0.3033E+03  0.2860E+03
     -0.456  0.3336E+03  0.2941E+03
     -0.432  0.3174E+03  0.3017E+03
     -0.408  0.2202E+03  0.3070E+03
     -0.384  0.1577E+03  0.3108E+03
     -0.360  0.2151E+03  0.3160E+03
     -0.336  0.2847E+03  0.3229E+03
     -0.312  0.2785E+03  0.3296E+03
     -0.288  0.2037E+03  0.3345E+03
     -0.263  0.1110E+03  0.3372E+03
     -0.239  0.6480E+02  0.3387E+03
     -0.215  0.1110E+03  0.3414E+03
     -0.191  0.1672E+03  0.3454E+03
     -0.167  0.1967E+03  0.3502E+03
     -0.143  0.1750E+03  0.3544E+03
     -0.119  0.1360E+03  0.3577E+03
     -0.095  0.1564E+03  0.3615E+03
     -0.071  0.1739E+03  0.3656E+03
     -0.046  0.1720E+03  0.3698E+03
     -0.022  0.2034E+03  0.3747E+03
      0.002  0.2581E+03  0.3809E+03
      0.026  0.3003E+03  0.3882E+03
      0.050  0.2686E+03  0.3946E+03
      0.074  0.2059E+03  0.3996E+03
      0.098  0.2198E+03  0.4049E+03
      0.122  0.2365E+03  0.4106E+03
      0.146  0.1630E+03  0.4145E+03
      0.170  0.6460E+02  0.4161E+03
      0.195  0.7189E+02  0.4178E+03
      0.219  0.1812E+03  0.4222E+03
      0.243  0.2796E+03  0.4289E+03
      0.267  0.2930E+03  0.4360E+03
      0.291  0.2472E+03  0.4419E+03
      0.315  0.1871E+03  0.4465E+03
      0.339  0.1564E+03  0.4502E+03
      0.363  0.1941E+03  0.4549E+03
      0.387  0.2287E+03  0.4604E+03
      0.411  0.2356E+03  0.4661E+03
      0.436  0.2281E+03  0.4716E+03
      0.460  0.2012E+03  0.4764E+03
      0.484  0.1934E+03  0.4811E+03
      0.508  0.2375E+03  0.4868E+03
      0.532  0.2667E+03  0.4932E+03
      0.556  0.2495E+03  0.4993E+03
      0.580  0.2237E+03  0.5047E+03
      0.604  0.2197E+03  0.5099E+03
      0.628  0.2218E+03  0.5153E+03
      0.652  0.2211E+03  0.5206E+03
      0.677  0.2131E+03  0.5258E+03
      0.701  0.2372E+03  0.5315E+03
      0.725  0.2969E+03  0.5386E+03
      0.749  0.3434E+03  0.5469E+03
      0.773  0.3618E+03  0.5556E+03
      0.797  0.3476E+03  0.5640E+03
      0.821  0.3174E+03  0.5717E+03
      0.845  0.3033E+03  0.5790E+03
      0.869  0.3039E+03  0.5863E+03
      0.894  0.3009E+03  0.5935E+03
      0.918  0.3015E+03  0.6008E+03
      0.942  0.2838E+03  0.6076E+03
      0.966  0.2132E+03  0.6128E+03
      0.990  0.1052E+03  0.6153E+03
      1.014  0.3329E+02  0.6161E+03
      1.038  0.4657E+02  0.6172E+03
      1.062  0.1042E+03  0.6198E+03
      1.086  0.1308E+03  0.6229E+03
      1.110  0.1463E+03  0.6264E+03
      1.135  0.1731E+03  0.6306E+03
      1.159  0.1988E+03  0.6354E+03
      1.183  0.2302E+03  0.6409E+03
      1.207  0.2536E+03  0.6471E+03
      1.231  0.2505E+03  0.6531E+03
      1.255  0.2278E+03  0.6586E+03
      1.279  0.2228E+03  0.6640E+03
      1.303  0.2484E+03  0.6699E+03
      1.327  0.2727E+03  0.6765E+03
      1.351  0.2874E+03  0.6834E+03
      1.376  0.2947E+03  0.6905E+03
      1.400  0.2888E+03  0.6975E+03
      1.424  0.2615E+03  0.7038E+03
      1.448  0.2197E+03  0.7091E+03
      1.472  0.1938E+03  0.7138E+03
      1.496  0.1782E+03  0.7181E+03
      1.520  0.1752E+03  0.7223E+03
      1.544  0.1990E+03  0.7271E+03
      1.568  0.2083E+03  0.7321E+03
      1.592  0.2003E+03  0.7369E+03
      1.617  0.2103E+03  0.7420E+03
      1.641  0.2254E+03  0.7474E+03
      1.665  0.2119E+03  0.7526E+03
      1.689  0.1974E+03  0.7573E+03
      1.713  0.1886E+03  0.7619E+03
      1.737  0.1756E+03  0.7661E+03
      1.761  0.1513E+03  0.7697E+03
      1.785  0.1285E+03  0.7728E+03
      1.809  0.1446E+03  0.7763E+03
      1.833  0.1764E+03  0.7806E+03
      1.858  0.1819E+03  0.7850E+03
      1.882  0.1372E+03  0.7883E+03
      1.906  0.7890E+02  0.7902E+03
      1.930  0.7957E+02  0.7921E+03
      1.954  0.1168E+03  0.7949E+03
      1.978  0.1446E+03  0.7984E+03
      2.002  0.1776E+03  0.8027E+03
      2.026  0.2102E+03  0.8077E+03
      2.050  0.2385E+03  0.8135E+03
      2.075  0.2638E+03  0.8198E+03
      2.099  0.2682E+03  0.8263E+03
      2.123  0.2699E+03  0.8328E+03
      2.147  0.2633E+03  0.8391E+03
      2.171  0.2406E+03  0.8449E+03
      2.195  0.2243E+03  0.8504E+03
      2.219  0.2206E+03  0.8557E+03
      2.243  0.2048E+03  0.8606E+03
      2.267  0.1757E+03  0.8648E+03
      2.291  0.1543E+03  0.8686E+03
      2.316  0.1489E+03  0.8721E+03
      2.340  0.1383E+03  0.8755E+03
      2.364  0.1185E+03  0.8783E+03
      2.388  0.9284E+02  0.8806E+03
      2.412  0.9860E+02  0.8830E+03
      2.436  0.1342E+03  0.8862E+03
      2.460  0.1633E+03  0.8901E+03
      2.484  0.1589E+03  0.8940E+03
      2.508  0.1449E+03  0.8974E+03
      2.532  0.1440E+03  0.9009E+03
      2.557  0.1423E+03  0.9043E+03
      2.581  0.1329E+03  0.9075E+03
      2.605  0.1297E+03  0.9107E+03
      2.629  0.1375E+03  0.9140E+03
      2.653  0.1459E+03  0.9175E+03
      2.677  0.1425E+03  0.9209E+03
      2.701  0.1317E+03  0.9241E+03
      2.725  0.1353E+03  0.9274E+03
      2.749  0.1391E+03  0.9307E+03
      2.773  0.1403E+03  0.9341E+03
      2.798  0.1405E+03  0.9375E+03
      2.822  0.1360E+03  0.9408E+03
      2.846  0.1145E+03  0.9435E+03
      2.870  0.7562E+02  0.9454E+03
      2.894  0.5453E+02  0.9467E+03
      2.918  0.8181E+02  0.9486E+03
      2.942  0.1141E+03  0.9514E+03
      2.966  0.1241E+03  0.9544E+03
      2.990  0.1447E+03  0.9579E+03
      3.014  0.1639E+03  0.9618E+03
      3.039  0.1548E+03  0.9656E+03
      3.063  0.1523E+03  0.9692E+03
      3.087  0.1651E+03  0.9732E+03
      3.111  0.1723E+03  0.9774E+03
      3.135  0.1684E+03  0.9814E+03
      3.159  0.1425E+03  0.9848E+03
      3.183  0.8729E+02  0.9870E+03
      3.207  0.3525E+02  0.9878E+03
      3.231  0.7553E+01  0.9880E+03
      3.256  0.6454E+00  0.9880E+03
      3.280  0.1864E-01  0.9880E+03
      3.304  0.9336E-02  0.9880E+03
      3.328  0.3015E+00  0.9880E+03
      3.352  0.3298E+01  0.9881E+03
      3.376  0.1519E+02  0.9885E+03
      3.400  0.4124E+02  0.9894E+03
      3.424  0.7630E+02  0.9913E+03
      3.448  0.9989E+02  0.9937E+03
      3.472  0.1095E+03  0.9963E+03
      3.497  0.1023E+03  0.9988E+03
      3.521  0.7579E+02  0.1001E+04
      3.545  0.4274E+02  0.1002E+04
      3.569  0.1278E+02  0.1002E+04
      3.593  0.1464E+01  0.1002E+04
      3.617  0.5538E-01  0.1002E+04
      3.641  0.6462E-03  0.1002E+04
      3.665  0.2241E-05  0.1002E+04
      3.689  0.2261E-08  0.1002E+04
      3.713  0.6541E-12  0.1002E+04
      3.738  0.0000E+00  0.1002E+04
      3.762  0.0000E+00  0.1002E+04
      3.786  0.0000E+00  0.1002E+04
      3.810  0.0000E+00  0.1002E+04
      3.834  0.0000E+00  0.1002E+04
      3.858  0.0000E+00  0.1002E+04
