       N       E                     dE             d eps       ncg     rms          rms(c)
DAV:   1    -0.284453524787E+03   -0.28445E+03   -0.12341E+05  4008   0.662E+02
DAV:   2    -0.892139671246E+03   -0.60769E+03   -0.55695E+03  4596   0.687E+01
DAV:   3    -0.934112687327E+03   -0.41973E+02   -0.38170E+02  5128   0.142E+01
DAV:   4    -0.935485751864E+03   -0.13731E+01   -0.13513E+01  4616   0.282E+00
DAV:   5    -0.935516332249E+03   -0.30580E-01   -0.30531E-01  4720   0.448E-01    0.721E+00
DAV:   6    -0.934517771837E+03    0.99856E+00   -0.65173E+00  4552   0.366E+00    0.639E+00
DAV:   7    -0.930021000289E+03    0.44968E+01   -0.60427E+00  4664   0.344E+00    0.404E+00
DAV:   8    -0.928282542851E+03    0.17385E+01   -0.26499E+00  4560   0.182E+00    0.226E+00
DAV:   9    -0.927885825960E+03    0.39672E+00   -0.14382E+00  4336   0.976E-01    0.118E+00
DAV:  10    -0.927945813823E+03   -0.59988E-01   -0.34068E-01  4712   0.620E-01    0.109E+00
DAV:  11    -0.927818470163E+03    0.12734E+00   -0.16991E-01  4560   0.471E-01    0.536E-01
DAV:  12    -0.927805642529E+03    0.12828E-01   -0.45245E-02  4296   0.180E-01    0.225E-01
DAV:  13    -0.927807855610E+03   -0.22131E-02   -0.10380E-02  4576   0.120E-01    0.186E-01
DAV:  14    -0.927804660451E+03    0.31952E-02   -0.48008E-03  4584   0.906E-02    0.997E-02
DAV:  15    -0.927803824997E+03    0.83545E-03   -0.14261E-03  4512   0.444E-02    0.471E-02
DAV:  16    -0.927803714570E+03    0.11043E-03   -0.76044E-04  4320   0.238E-02    0.234E-02
DAV:  17    -0.927803680546E+03    0.34024E-04   -0.16387E-04  4784   0.145E-02    0.170E-02
DAV:  18    -0.927803633478E+03    0.47067E-04   -0.47442E-05  4496   0.737E-03    0.706E-03
DAV:  19    -0.927803623344E+03    0.10135E-04   -0.15409E-05  2600   0.399E-03    0.434E-03
DAV:  20    -0.927803619062E+03    0.42819E-05   -0.61091E-06  2176   0.307E-03
   1 F= -.92780362E+03 E0= -.92775198E+03  d E =-.103276E+00
