Li                                      
           1
    21.217000    0.000000    0.000000
     0.000000   21.217000    0.000000
    -0.000000   -0.000000   21.217000
   Li
   500
Direct configuration=     1
   0.99184922  0.99498845  0.98766742
   0.99142080  0.09785471  0.10416698
   0.99785639  0.19321214  0.19654296
   0.00831393  0.31021819  0.28933785
   0.99218231  0.40490448  0.40398991
   0.99301475  0.51232589  0.50240415
   0.99857589  0.59574916  0.59389537
   0.99613329  0.69049528  0.70272161
   0.00037754  0.79615929  0.79944349
   0.98868437  0.89622844  0.91017911
   0.08175552  0.99032895  0.09086006
   0.08313197  0.06910358  0.19272772
   0.10559380  0.18532318  0.28419627
   0.10985826  0.30761275  0.38553962
   0.09322976  0.40322072  0.49461342
   0.08857750  0.50301037  0.59993264
   0.09656319  0.59964709  0.70232785
   0.10552881  0.71008206  0.79194179
   0.09531269  0.80646519  0.89660706
   0.09753266  0.89376097  0.97640413
   0.19089916  0.97336291  0.19900920
   0.19706088  0.09136637  0.28971707
   0.21161974  0.20049903  0.37382346
   0.19909247  0.29224651  0.48276591
   0.19920908  0.38506369  0.59588198
   0.20807487  0.49787576  0.69566198
   0.20778476  0.59640095  0.80354464
   0.20711991  0.70455906  0.88334417
   0.20902719  0.79214305  0.98701872
   0.17887700  0.90095342  0.09788655
   0.28004446  0.98951217  0.29774730
   0.30136930  0.09993329  0.37669381
   0.29954565  0.20127240  0.48874583
   0.30347594  0.29328902  0.59694837
   0.30137819  0.39167224  0.70107613
   0.31280342  0.50241191  0.79323820
   0.29844363  0.59899044  0.89078911
   0.30147987  0.68435656  0.99850482
   0.28310121  0.79951198  0.10568084
   0.28761512  0.89993649  0.20626212
   0.38600582  0.99704177  0.38549392
   0.39418653  0.10722671  0.48574874
   0.40018597  0.19158527  0.61098645
   0.40016707  0.29159083  0.70309942
   0.38560540  0.39194752  0.80638284
   0.40774056  0.49574403  0.90564421
   0.40797788  0.59058641  0.00690653
   0.38690837  0.70056611  0.10089400
   0.39632405  0.80162660  0.19633027
   0.38315954  0.89350177  0.29494206
   0.48199974  0.00961810  0.50107390
   0.48942943  0.08853711  0.60697809
   0.50755880  0.20058528  0.71482596
   0.50185784  0.29646923  0.81292097
   0.49543996  0.39046171  0.90045002
   0.51314673  0.49557613  0.99071664
   0.50382986  0.59418981  0.09772471
   0.50236627  0.70350939  0.20741741
   0.49924200  0.81181257  0.29193077
   0.48806169  0.90868455  0.40014538
   0.59005464  0.99452377  0.59502134
   0.59211862  0.09533852  0.70218993
   0.61476496  0.20790927  0.82154380
   0.60362682  0.30906537  0.90477498
   0.58840151  0.39221836  0.99541570
   0.61082428  0.50173777  0.09033268
   0.59572543  0.58503552  0.19746014
   0.59563191  0.68703589  0.31137975
   0.58870684  0.80100401  0.40383938
   0.59249275  0.91043994  0.50281030
   0.70702381  0.00005138  0.69463503
   0.68466230  0.10583291  0.79491914
   0.70415574  0.20237530  0.90191015
   0.70491468  0.31176275  0.00718264
   0.70287983  0.39297100  0.11239186
   0.69233852  0.49499141  0.20019128
   0.69494299  0.58957784  0.30377832
   0.68270444  0.70463867  0.39138576
   0.69436793  0.80898007  0.50240460
   0.70717601  0.90361779  0.59323732
   0.79791108  0.99794021  0.79015500
   0.81140160  0.09492179  0.90595771
   0.80256584  0.20503617  0.00102167
   0.80359912  0.29745574  0.10125750
   0.80101896  0.40303439  0.19309811
   0.80139786  0.50389046  0.30216931
   0.77272475  0.60765358  0.40766238
   0.77267211  0.71291709  0.49749810
   0.79539490  0.80784672  0.59943228
   0.80107496  0.90072294  0.70065987
   0.91206725  0.00214568  0.89280672
   0.89608687  0.08324771  0.99676137
   0.91100309  0.19697609  0.09073152
   0.89965784  0.30133466  0.20113717
   0.89654128  0.41141098  0.30243551
   0.89168400  0.51211471  0.40339555
   0.89409462  0.61338940  0.48082203
   0.89581717  0.70078756  0.59430566
   0.89853080  0.80134256  0.69301666
   0.89897048  0.90918134  0.79251775
   0.09567585  0.09066452  0.99484287
   0.10682548  0.19233706  0.09995506
   0.10339404  0.30157634  0.19819314
   0.10493485  0.41615908  0.30834010
   0.10777439  0.49798934  0.38653796
   0.11076160  0.59330831  0.49762896
   0.08832688  0.68904243  0.58401568
   0.09709633  0.79778620  0.69063385
   0.09279572  0.89448292  0.80291775
   0.09660020  0.99969548  0.89062874
   0.18294127  0.08482889  0.09962726
   0.18905535  0.19614417  0.19814637
   0.20934059  0.29952752  0.29324792
   0.21375922  0.39899581  0.40305834
   0.20252782  0.49759751  0.51043281
   0.21405159  0.60840645  0.60276979
   0.19637564  0.69240261  0.70249132
   0.19707832  0.80859424  0.80026198
   0.19800485  0.89364426  0.89186307
   0.19192987  0.99627219  0.00403724
   0.29573611  0.09132599  0.19628981
   0.29570196  0.20347670  0.27963625
   0.29613278  0.30052942  0.38942979
   0.31058741  0.39158625  0.49837296
   0.30757846  0.49038466  0.60073356
   0.31315626  0.60084356  0.68745890
   0.30913463  0.69370375  0.79398589
   0.30869185  0.79090229  0.89213066
   0.29816180  0.89198729  0.99309777
   0.29633286  0.99456165  0.11003063
   0.40127598  0.09488252  0.30646854
   0.38340309  0.19796735  0.37341086
   0.38639014  0.29940416  0.48672760
   0.40205577  0.38074714  0.61780280
   0.38678578  0.49401018  0.68991910
   0.41729447  0.59648261  0.79341294
   0.40540257  0.69103346  0.89697286
   0.39602948  0.79653539  0.00952526
   0.39170998  0.90474908  0.09949799
   0.39532400  0.99683008  0.21031583
   0.49830914  0.10729155  0.38673650
   0.49011082  0.19712628  0.49616361
   0.49414190  0.28829086  0.60323098
   0.49280706  0.39073148  0.71215766
   0.49388223  0.48662784  0.79380860
   0.52296032  0.59613650  0.89785189
   0.49744311  0.70354483  0.00512388
   0.51114289  0.80239010  0.10384665
   0.49535255  0.89635505  0.20474911
   0.49555807  0.98111228  0.31291108
   0.59778475  0.09416573  0.50422784
   0.58368726  0.19086289  0.60373804
   0.59282398  0.28459294  0.71041306
   0.61033648  0.39576955  0.79624108
   0.60903799  0.48660404  0.88954771
   0.61792981  0.59717591  0.99647011
   0.60362842  0.69399756  0.10825427
   0.60528877  0.80791784  0.19831269
   0.60056899  0.89828681  0.31406457
   0.60201588  0.99530692  0.40188423
   0.68775602  0.10137949  0.59495007
   0.69086704  0.20160345  0.69784118
   0.70769822  0.30319500  0.79574850
   0.70278765  0.40652073  0.91318424
   0.70600077  0.49283641  0.00230696
   0.70699620  0.60622903  0.10230750
   0.69037281  0.70542403  0.22514876
   0.70018891  0.81324078  0.31638339
   0.70396217  0.89723945  0.40402176
   0.70148512  0.01293748  0.49645998
   0.80775455  0.10642868  0.68796059
   0.80024471  0.18427197  0.79957988
   0.80770249  0.30766474  0.91297038
   0.81327545  0.39907617  0.00850835
   0.80701251  0.48720767  0.10567638
   0.80050596  0.59455665  0.19417911
   0.79925838  0.69759563  0.30591331
   0.78430930  0.79909175  0.40303447
   0.81146598  0.90742714  0.50196536
   0.81332103  0.00984664  0.59351798
   0.92352846  0.09373193  0.79301809
   0.89661431  0.19330642  0.89914276
   0.91405092  0.30767984  0.99392217
   0.90562122  0.39641558  0.09497181
   0.89829222  0.51040125  0.20049425
   0.89222394  0.60743748  0.32438723
   0.90610856  0.70945589  0.39906442
   0.90498087  0.79555221  0.50330942
   0.91317933  0.89617984  0.59375445
   0.90621788  0.01008686  0.70200287
   0.00612028  0.11807758  0.90071578
   0.00521809  0.19948967  0.00311309
   0.00707321  0.30498932  0.10901137
   0.00634098  0.40444292  0.18437180
   0.98867325  0.49837597  0.29298409
   0.01250620  0.59879603  0.38992655
   0.01382132  0.69953084  0.48058410
   0.01426358  0.79258206  0.59056044
   0.98787573  0.88987024  0.69327913
   0.01370052  0.00005616  0.79814068
   0.18513788  0.20965194  0.00549099
   0.19591173  0.32434343  0.10199745
   0.20649504  0.41924632  0.21745317
   0.21098062  0.50971680  0.29876143
   0.20739153  0.58788920  0.40992997
   0.18946636  0.70218076  0.51188097
   0.20177725  0.79573661  0.60508439
   0.19382011  0.90692739  0.69747403
   0.18562769  0.99274030  0.80750548
   0.19639399  0.09568940  0.90083918
   0.30066695  0.19884870  0.09648749
   0.30040749  0.29689255  0.19438250
   0.30656976  0.41711385  0.29083190
   0.30845155  0.48961622  0.41284912
   0.31690937  0.58764946  0.50630429
   0.30285728  0.68979200  0.59801124
   0.29943294  0.79546231  0.69388259
   0.29990987  0.89074908  0.77851747
   0.28035521  0.00557252  0.90371041
   0.29503580  0.10310979  0.01301285
   0.40603167  0.18897234  0.20739392
   0.41123781  0.31289497  0.29119845
   0.39944604  0.40862501  0.39869707
   0.40612563  0.49809823  0.51255339
   0.41690341  0.59628522  0.59457362
   0.40317661  0.71076038  0.68973759
   0.40206097  0.79066369  0.81371562
   0.39685145  0.90722440  0.89468952
   0.38895840  0.99022157  0.99391088
   0.38795712  0.09418274  0.10426264
   0.51822173  0.20898586  0.29871099
   0.50033580  0.29594842  0.39664604
   0.49901801  0.38534389  0.50429131
   0.50748108  0.49620825  0.60246717
   0.50375267  0.59591308  0.69507117
   0.49720345  0.69732448  0.79624655
   0.50081347  0.81074609  0.90705475
   0.49689083  0.90207266  0.99035226
   0.49154174  0.99077825  0.10440982
   0.50186471  0.08898172  0.19958918
   0.58349048  0.19867789  0.41181623
   0.58919662  0.30176733  0.51441741
   0.59255579  0.38859689  0.60961464
   0.60023420  0.48825510  0.69783803
   0.60677117  0.60053179  0.79561241
   0.60399676  0.71238523  0.89096803
   0.60508007  0.79412889  0.99657787
   0.60528936  0.90134951  0.09615371
   0.59663164  0.98833936  0.19714602
   0.60145080  0.10009292  0.29622306
   0.70447213  0.20069631  0.50479405
   0.68589960  0.29923189  0.60457163
   0.70216151  0.39431247  0.69615523
   0.70942044  0.49975225  0.78560754
   0.69866359  0.59787972  0.88077457
   0.69877237  0.69798922  0.00226743
   0.70181107  0.79783412  0.10587121
   0.70213276  0.90717807  0.19850628
   0.69431615  0.99960726  0.30571122
   0.69640925  0.10667069  0.39468121
   0.80186458  0.20614916  0.60092616
   0.82649582  0.29681842  0.69627843
   0.79433864  0.39717113  0.80418021
   0.79535769  0.50210449  0.90537899
   0.79892469  0.60664260  0.00247937
   0.78603765  0.71754986  0.10109999
   0.80471993  0.81091055  0.21041575
   0.81011719  0.90977082  0.29953949
   0.79567064  0.99873600  0.40138909
   0.80726554  0.11099167  0.50408015
   0.91756860  0.18921373  0.69039755
   0.90728674  0.29818448  0.81028075
   0.90883417  0.40853489  0.90904682
   0.90039394  0.51534949  0.00261930
   0.88451057  0.61409272  0.10034337
   0.89085073  0.69848193  0.21027697
   0.90132213  0.79936987  0.31759508
   0.90284162  0.90852339  0.41305316
   0.91568197  0.00271462  0.49458846
   0.91564932  0.10177002  0.57953838
   0.00907738  0.20281021  0.80278297
   0.01334760  0.29778887  0.91113545
   0.01612534  0.40721261  0.00275514
   0.99173787  0.50654391  0.09507244
   0.98504829  0.60092742  0.19753071
   0.00123956  0.69831596  0.30001004
   0.02026241  0.80837429  0.40869006
   0.01529359  0.88966384  0.49294464
   0.01318602  0.99475454  0.57966671
   0.01113143  0.09948678  0.68581629
   0.11095561  0.21352924  0.89983763
   0.10640847  0.30929219  0.00120817
   0.10818489  0.41360942  0.10040575
   0.09575302  0.50995552  0.18825623
   0.10229856  0.59682314  0.29386658
   0.11864105  0.70213242  0.39966560
   0.11861610  0.80466311  0.50310849
   0.09619421  0.89337394  0.59892904
   0.08953342  0.99966079  0.68958449
   0.10470496  0.11036637  0.79909769
   0.29175682  0.31431297  0.02850163
   0.30141261  0.41061957  0.08919541
   0.31147019  0.52381585  0.19579114
   0.30854020  0.60186657  0.31663398
   0.28168523  0.71041872  0.40965964
   0.29302094  0.81312431  0.50226837
   0.30923907  0.90105451  0.60788848
   0.29609374  0.01303481  0.71194084
   0.29956080  0.11124726  0.81119276
   0.29299339  0.20557755  0.91679527
   0.42057192  0.30008909  0.10671248
   0.40318811  0.41550503  0.19073133
   0.40193790  0.50488216  0.30680920
   0.40498585  0.60574636  0.40750368
   0.39131568  0.71070921  0.49443546
   0.39523965  0.79272722  0.60206426
   0.39857543  0.90389570  0.69736917
   0.38835927  0.99418065  0.80424598
   0.39623729  0.09015904  0.91339749
   0.40167475  0.19151380  0.02130996
   0.50534416  0.30627549  0.21769686
   0.50086120  0.39437939  0.30522792
   0.51011850  0.50133351  0.40690664
   0.50064765  0.59887027  0.49880224
   0.48872523  0.68078028  0.60456057
   0.50191006  0.79610699  0.71879130
   0.50285557  0.90096307  0.80656943
   0.49062345  0.99228599  0.90977093
   0.49724070  0.08642001  0.99615078
   0.51159903  0.19769192  0.11322618
   0.60659580  0.29011590  0.29885935
   0.59160302  0.39501105  0.39855262
   0.60246633  0.49357187  0.51318690
   0.61055210  0.60442254  0.61225396
   0.60243302  0.69988278  0.69966842
   0.60047424  0.78965247  0.80699099
   0.61465912  0.88692891  0.90380401
   0.60322645  0.00221485  0.99780786
   0.60287991  0.07961958  0.11062505
   0.59884345  0.19738152  0.19961051
   0.69909509  0.28761815  0.41024330
   0.69645453  0.40007078  0.49626686
   0.69468171  0.48426980  0.59544214
   0.71286235  0.59372462  0.70037335
   0.69131489  0.69021602  0.78304700
   0.70658818  0.79125252  0.89807627
   0.71464312  0.89382947  0.00154923
   0.68317244  0.00487396  0.09400048
   0.68821200  0.10316379  0.20059488
   0.68599097  0.19674993  0.31305173
   0.80784259  0.30006212  0.50618977
   0.79363114  0.39514321  0.60064747
   0.80428242  0.48360204  0.68745181
   0.79130209  0.59843603  0.79857463
   0.78814793  0.69811039  0.89113314
   0.79532904  0.77865387  0.99949348
   0.80201912  0.89953380  0.08618184
   0.80789640  0.00497434  0.18133385
   0.79953369  0.10655273  0.29782648
   0.79643023  0.20818447  0.39393287
   0.90837770  0.29650493  0.59567309
   0.90444488  0.39720621  0.69702311
   0.89757373  0.49027507  0.80740618
   0.89613610  0.60210786  0.90184415
   0.89797980  0.70648440  0.99507660
   0.91276435  0.80795462  0.10441334
   0.91382160  0.90489921  0.19098889
   0.88460067  0.00504082  0.31577782
   0.89783531  0.09927651  0.39691008
   0.90020609  0.21754095  0.49160706
   0.00674255  0.28862033  0.70343226
   0.99733535  0.38802332  0.80799655
   0.00772781  0.50180885  0.90374730
   0.99674043  0.61543411  0.00424696
   0.99210512  0.69780751  0.10245879
   0.99568079  0.79370331  0.20324076
   0.99209675  0.89621805  0.30676506
   0.00349653  0.01074115  0.38453202
   0.00466313  0.10823374  0.49727990
   0.01883813  0.20572074  0.58014073
   0.11044254  0.29823518  0.81258227
   0.10720903  0.40203390  0.90817459
   0.09172773  0.51269598  0.01359227
   0.09311103  0.61547861  0.10628736
   0.09291166  0.69964463  0.18939396
   0.10019685  0.79663628  0.28999622
   0.10775309  0.89590682  0.39298711
   0.09202669  0.00251346  0.48634474
   0.12387224  0.09092595  0.59368053
   0.09963340  0.20823051  0.69199514
   0.20433850  0.31296415  0.89844797
   0.19702118  0.41912082  0.99194146
   0.19964620  0.50601278  0.09633582
   0.20588120  0.61100772  0.19819035
   0.18811802  0.70139215  0.29451457
   0.20041716  0.80335124  0.41203536
   0.20350616  0.91291167  0.50479393
   0.20220019  0.00099467  0.60666228
   0.19754294  0.09794497  0.70531034
   0.20384436  0.19647239  0.80346149
   0.40443651  0.40617020  0.00513257
   0.40857305  0.49670556  0.10268931
   0.41649171  0.60650055  0.20282694
   0.39517256  0.70862088  0.31769269
   0.39082088  0.79041869  0.39972660
   0.38668501  0.90954587  0.49718136
   0.37368831  0.00184474  0.60523975
   0.41274342  0.09011707  0.71636828
   0.39506940  0.19908655  0.81506212
   0.38585311  0.29611696  0.92061871
   0.51571547  0.39930556  0.09509575
   0.49797034  0.50958889  0.20853612
   0.50742140  0.60679942  0.31165779
   0.49473955  0.69475225  0.40286304
   0.49154197  0.81744680  0.50937150
   0.47843441  0.91174378  0.60167997
   0.50585413  0.00783214  0.71394402
   0.51603334  0.09407214  0.82268280
   0.48899256  0.18914232  0.91000484
   0.50250587  0.29680431  0.99972551
   0.60048000  0.40305922  0.20974221
   0.59574541  0.49887031  0.30261760
   0.58738785  0.59675384  0.41461874
   0.60190211  0.71044829  0.49864576
   0.58188902  0.81031080  0.60326323
   0.59061402  0.89236379  0.69576791
   0.59251936  0.99339776  0.80616918
   0.59706936  0.10419576  0.91364333
   0.60268232  0.20883825  0.00042382
   0.60691660  0.30059543  0.10994358
   0.68806227  0.39802589  0.30175911
   0.69275991  0.50550496  0.40489799
   0.68661533  0.59390120  0.50394437
   0.68696569  0.71018768  0.60489195
   0.68453916  0.80615414  0.68572092
   0.68655360  0.89101579  0.79523367
   0.70404760  0.01343573  0.90808069
   0.69562090  0.11375919  0.01082742
   0.69603352  0.20838482  0.11705224
   0.70526359  0.29891214  0.20593637
   0.79513504  0.40267770  0.40069754
   0.78556463  0.50363897  0.50866931
   0.80128401  0.60929869  0.60064359
   0.79102284  0.70123532  0.69435198
   0.79525448  0.80061456  0.78860608
   0.80597695  0.91464435  0.90315105
   0.79545336  0.00148853  0.00868616
   0.80576415  0.10555655  0.09981679
   0.79282621  0.21338849  0.20532861
   0.80728888  0.30192483  0.29878944
   0.89872339  0.40561059  0.49904969
   0.89461523  0.50380754  0.58733246
   0.89594580  0.59372081  0.69262047
   0.89198852  0.70007037  0.79511958
   0.89002607  0.80065225  0.89142769
   0.88386482  0.88978560  0.99748251
   0.91338849  0.99372198  0.09587860
   0.90022888  0.09607494  0.19477067
   0.89585446  0.20718928  0.30787234
   0.91350858  0.30247834  0.39870631
   0.99549474  0.40172878  0.60163010
   0.01381445  0.49756562  0.70806607
   0.99555106  0.60108580  0.80527156
   0.00714965  0.69816547  0.89821271
   0.98486907  0.79106292  0.99698788
   0.99650043  0.89449459  0.07622824
   0.00101817  0.99301180  0.20799782
   0.99505940  0.10206887  0.29506274
   0.00765316  0.20183955  0.38674045
   0.01085178  0.30338097  0.48355620
   0.10821977  0.39855915  0.69920959
   0.10329397  0.48623133  0.79494123
   0.10274913  0.61319343  0.89854874
   0.10535797  0.71860079  0.99616828
   0.10058757  0.79872677  0.09045301
   0.09318688  0.89639957  0.18642995
   0.10514269  0.98117699  0.29403458
   0.11096942  0.09743940  0.38934827
   0.12171781  0.20427994  0.48451565
   0.09346826  0.30467865  0.59779623
   0.21390556  0.41024932  0.80670860
   0.20103044  0.52397495  0.91121206
   0.19734563  0.60391284  0.99655021
   0.20292722  0.69786168  0.09289966
   0.18718980  0.80031310  0.19055974
   0.18335203  0.88614718  0.29416033
   0.19611668  0.00163835  0.39051872
   0.22354967  0.09893591  0.49674904
   0.21049518  0.21111181  0.59172766
   0.21133942  0.28578996  0.69958761
   0.29976851  0.41554092  0.90136759
   0.30347478  0.50634875  0.00471298
   0.30477428  0.59395257  0.10275310
   0.30054517  0.69434336  0.20485461
   0.27966894  0.79495734  0.28972758
   0.30041994  0.89117518  0.39824451
   0.28449953  0.01483616  0.50055455
   0.30835763  0.10446696  0.60243328
   0.30591442  0.19614765  0.70682071
   0.29657262  0.29872549  0.80391701
