 500 500   0   0
  0.2029568E+02  0.2165000E-08  0.2165000E-08  0.2165000E-08  0.5000000E-15
  1.000000000000000E-004
  CAR 
 Li                                      
      3.37095922     -3.42533260  301      0.38221951      1.00000000
     -3.425  0.0000E+00  0.0000E+00
     -3.403  0.0000E+00  0.0000E+00
     -3.380  0.0000E+00  0.0000E+00
     -3.357  0.0000E+00  0.0000E+00
     -3.335  0.0000E+00  0.0000E+00
     -3.312  0.0000E+00  0.0000E+00
     -3.289  0.1470E-13  0.3331E-15
     -3.267  0.5877E-10  0.1332E-11
     -3.244  0.7550E-07  0.1712E-08
     -3.221  0.3183E-04  0.7229E-06
     -3.199  0.4445E-02  0.1014E-03
     -3.176  0.2080E+00  0.4814E-02
     -3.153  0.3314E+01  0.7989E-01
     -3.131  0.1830E+02  0.4944E+00
     -3.108  0.3554E+02  0.1299E+01
     -3.086  0.2447E+02  0.1854E+01
     -3.063  0.6282E+01  0.1996E+01
     -3.040  0.6728E+01  0.2148E+01
     -3.018  0.4102E+02  0.3078E+01
     -2.995  0.9843E+02  0.5308E+01
     -2.972  0.8703E+02  0.7279E+01
     -2.950  0.2847E+02  0.7924E+01
     -2.927  0.6866E+01  0.8080E+01
     -2.904  0.2929E+02  0.8743E+01
     -2.882  0.8777E+02  0.1073E+02
     -2.859  0.9754E+02  0.1294E+02
     -2.836  0.4069E+02  0.1386E+02
     -2.814  0.1238E+02  0.1414E+02
     -2.791  0.3669E+02  0.1497E+02
     -2.768  0.9501E+02  0.1713E+02
     -2.746  0.1194E+03  0.1983E+02
     -2.723  0.7323E+02  0.2149E+02
     -2.700  0.2708E+02  0.2210E+02
     -2.678  0.4264E+02  0.2307E+02
     -2.655  0.1130E+03  0.2563E+02
     -2.632  0.1645E+03  0.2936E+02
     -2.610  0.1327E+03  0.3236E+02
     -2.587  0.5878E+02  0.3369E+02
     -2.564  0.2092E+02  0.3417E+02
     -2.542  0.4351E+02  0.3515E+02
     -2.519  0.9045E+02  0.3720E+02
     -2.497  0.8374E+02  0.3910E+02
     -2.474  0.3633E+02  0.3992E+02
     -2.451  0.2719E+02  0.4054E+02
     -2.429  0.7985E+02  0.4235E+02
     -2.406  0.1494E+03  0.4573E+02
     -2.383  0.1562E+03  0.4927E+02
     -2.361  0.9378E+02  0.5140E+02
     -2.338  0.5198E+02  0.5257E+02
     -2.315  0.9129E+02  0.5464E+02
     -2.293  0.1660E+03  0.5840E+02
     -2.270  0.2078E+03  0.6311E+02
     -2.247  0.1766E+03  0.6711E+02
     -2.225  0.9515E+02  0.6927E+02
     -2.202  0.3582E+02  0.7008E+02
     -2.179  0.4855E+02  0.7118E+02
     -2.157  0.1002E+03  0.7345E+02
     -2.134  0.8390E+02  0.7535E+02
     -2.111  0.3117E+02  0.7606E+02
     -2.089  0.4020E+02  0.7697E+02
     -2.066  0.1142E+03  0.7955E+02
     -2.043  0.1788E+03  0.8360E+02
     -2.021  0.1654E+03  0.8735E+02
     -1.998  0.9373E+02  0.8947E+02
     -1.975  0.5929E+02  0.9082E+02
     -1.953  0.1131E+03  0.9338E+02
     -1.930  0.1879E+03  0.9764E+02
     -1.907  0.2064E+03  0.1023E+03
     -1.885  0.1576E+03  0.1059E+03
     -1.862  0.7886E+02  0.1077E+03
     -1.840  0.5135E+02  0.1088E+03
     -1.817  0.1102E+03  0.1113E+03
     -1.794  0.1701E+03  0.1152E+03
     -1.772  0.1436E+03  0.1184E+03
     -1.749  0.8055E+02  0.1203E+03
     -1.726  0.8700E+02  0.1222E+03
     -1.704  0.1554E+03  0.1258E+03
     -1.681  0.2001E+03  0.1303E+03
     -1.658  0.1823E+03  0.1344E+03
     -1.636  0.1175E+03  0.1371E+03
     -1.613  0.7570E+02  0.1388E+03
     -1.590  0.1297E+03  0.1417E+03
     -1.568  0.2170E+03  0.1466E+03
     -1.545  0.2161E+03  0.1515E+03
     -1.522  0.1358E+03  0.1546E+03
     -1.500  0.6574E+02  0.1561E+03
     -1.477  0.7280E+02  0.1578E+03
     -1.454  0.1324E+03  0.1608E+03
     -1.432  0.1569E+03  0.1643E+03
     -1.409  0.1153E+03  0.1669E+03
     -1.386  0.6777E+02  0.1685E+03
     -1.364  0.8329E+02  0.1703E+03
     -1.341  0.1254E+03  0.1732E+03
     -1.318  0.1394E+03  0.1763E+03
     -1.296  0.1151E+03  0.1789E+03
     -1.273  0.9912E+02  0.1812E+03
     -1.251  0.1612E+03  0.1848E+03
     -1.228  0.2496E+03  0.1905E+03
     -1.205  0.2904E+03  0.1971E+03
     -1.183  0.2627E+03  0.2030E+03
     -1.160  0.1896E+03  0.2073E+03
     -1.137  0.1361E+03  0.2104E+03
     -1.115  0.1572E+03  0.2140E+03
     -1.092  0.2116E+03  0.2188E+03
     -1.069  0.2058E+03  0.2234E+03
     -1.047  0.1396E+03  0.2266E+03
     -1.024  0.8294E+02  0.2285E+03
     -1.001  0.8930E+02  0.2305E+03
     -0.979  0.1486E+03  0.2339E+03
     -0.956  0.1856E+03  0.2381E+03
     -0.933  0.1495E+03  0.2414E+03
     -0.911  0.1387E+03  0.2446E+03
     -0.888  0.1985E+03  0.2491E+03
     -0.865  0.2304E+03  0.2543E+03
     -0.843  0.2126E+03  0.2591E+03
     -0.820  0.1726E+03  0.2630E+03
     -0.797  0.1061E+03  0.2654E+03
     -0.775  0.6632E+02  0.2669E+03
     -0.752  0.8267E+02  0.2688E+03
     -0.729  0.8574E+02  0.2708E+03
     -0.707  0.7689E+02  0.2725E+03
     -0.684  0.1196E+03  0.2752E+03
     -0.662  0.2000E+03  0.2797E+03
     -0.639  0.2535E+03  0.2855E+03
     -0.616  0.2640E+03  0.2915E+03
     -0.594  0.2525E+03  0.2972E+03
     -0.571  0.2361E+03  0.3025E+03
     -0.548  0.2236E+03  0.3076E+03
     -0.526  0.2274E+03  0.3127E+03
     -0.503  0.2543E+03  0.3185E+03
     -0.480  0.2668E+03  0.3245E+03
     -0.458  0.2269E+03  0.3297E+03
     -0.435  0.1741E+03  0.3336E+03
     -0.412  0.1391E+03  0.3368E+03
     -0.390  0.1292E+03  0.3397E+03
     -0.367  0.1363E+03  0.3428E+03
     -0.344  0.1501E+03  0.3462E+03
     -0.322  0.1866E+03  0.3504E+03
     -0.299  0.2092E+03  0.3552E+03
     -0.276  0.1985E+03  0.3597E+03
     -0.254  0.1797E+03  0.3637E+03
     -0.231  0.1620E+03  0.3674E+03
     -0.208  0.1726E+03  0.3713E+03
     -0.186  0.2094E+03  0.3761E+03
     -0.163  0.2376E+03  0.3814E+03
     -0.140  0.2503E+03  0.3871E+03
     -0.118  0.2403E+03  0.3926E+03
     -0.095  0.2174E+03  0.3975E+03
     -0.072  0.2081E+03  0.4022E+03
     -0.050  0.2076E+03  0.4069E+03
     -0.027  0.1994E+03  0.4114E+03
     -0.005  0.1697E+03  0.4153E+03
      0.018  0.1583E+03  0.4188E+03
      0.041  0.1970E+03  0.4233E+03
      0.063  0.2278E+03  0.4285E+03
      0.086  0.2289E+03  0.4337E+03
      0.109  0.2233E+03  0.4387E+03
      0.131  0.2150E+03  0.4436E+03
      0.154  0.2073E+03  0.4483E+03
      0.177  0.2066E+03  0.4530E+03
      0.199  0.2044E+03  0.4576E+03
      0.222  0.2003E+03  0.4621E+03
      0.245  0.2021E+03  0.4667E+03
      0.267  0.2088E+03  0.4714E+03
      0.290  0.2248E+03  0.4765E+03
      0.313  0.2478E+03  0.4821E+03
      0.335  0.2583E+03  0.4880E+03
      0.358  0.2608E+03  0.4939E+03
      0.381  0.2519E+03  0.4996E+03
      0.403  0.2270E+03  0.5048E+03
      0.426  0.2205E+03  0.5097E+03
      0.449  0.2274E+03  0.5149E+03
      0.471  0.2335E+03  0.5202E+03
      0.494  0.2459E+03  0.5258E+03
      0.517  0.2638E+03  0.5317E+03
      0.539  0.2782E+03  0.5380E+03
      0.562  0.2834E+03  0.5445E+03
      0.584  0.2799E+03  0.5508E+03
      0.607  0.2801E+03  0.5571E+03
      0.630  0.2887E+03  0.5637E+03
      0.652  0.2856E+03  0.5702E+03
      0.675  0.2627E+03  0.5761E+03
      0.698  0.2422E+03  0.5816E+03
      0.720  0.2359E+03  0.5869E+03
      0.743  0.2280E+03  0.5921E+03
      0.766  0.2173E+03  0.5970E+03
      0.788  0.2136E+03  0.6019E+03
      0.811  0.2128E+03  0.6067E+03
      0.834  0.2039E+03  0.6113E+03
      0.856  0.1966E+03  0.6158E+03
      0.879  0.1962E+03  0.6202E+03
      0.902  0.1989E+03  0.6247E+03
      0.924  0.1974E+03  0.6292E+03
      0.947  0.1881E+03  0.6334E+03
      0.970  0.1764E+03  0.6374E+03
      0.992  0.1846E+03  0.6416E+03
      1.015  0.2088E+03  0.6464E+03
      1.038  0.2225E+03  0.6514E+03
      1.060  0.2200E+03  0.6564E+03
      1.083  0.2214E+03  0.6614E+03
      1.106  0.2375E+03  0.6668E+03
      1.128  0.2456E+03  0.6723E+03
      1.151  0.2404E+03  0.6778E+03
      1.173  0.2330E+03  0.6831E+03
      1.196  0.2338E+03  0.6884E+03
      1.219  0.2331E+03  0.6936E+03
      1.241  0.2236E+03  0.6987E+03
      1.264  0.2239E+03  0.7038E+03
      1.287  0.2168E+03  0.7087E+03
      1.309  0.2047E+03  0.7133E+03
      1.332  0.2078E+03  0.7180E+03
      1.355  0.2190E+03  0.7230E+03
      1.377  0.2218E+03  0.7280E+03
      1.400  0.2170E+03  0.7329E+03
      1.423  0.2092E+03  0.7377E+03
      1.445  0.2063E+03  0.7423E+03
      1.468  0.2058E+03  0.7470E+03
      1.491  0.1942E+03  0.7514E+03
      1.513  0.1825E+03  0.7555E+03
      1.536  0.1829E+03  0.7597E+03
      1.559  0.1874E+03  0.7639E+03
      1.581  0.1848E+03  0.7681E+03
      1.604  0.1722E+03  0.7720E+03
      1.627  0.1669E+03  0.7758E+03
      1.649  0.1695E+03  0.7796E+03
      1.672  0.1628E+03  0.7833E+03
      1.695  0.1607E+03  0.7870E+03
      1.717  0.1617E+03  0.7906E+03
      1.740  0.1669E+03  0.7944E+03
      1.763  0.1789E+03  0.7985E+03
      1.785  0.1838E+03  0.8026E+03
      1.808  0.1786E+03  0.8067E+03
      1.830  0.1852E+03  0.8109E+03
      1.853  0.1965E+03  0.8153E+03
      1.876  0.2052E+03  0.8200E+03
      1.898  0.2021E+03  0.8246E+03
      1.921  0.1907E+03  0.8289E+03
      1.944  0.1876E+03  0.8331E+03
      1.966  0.1915E+03  0.8375E+03
      1.989  0.1908E+03  0.8418E+03
      2.012  0.1861E+03  0.8460E+03
      2.034  0.1828E+03  0.8501E+03
      2.057  0.1702E+03  0.8540E+03
      2.080  0.1502E+03  0.8574E+03
      2.102  0.1462E+03  0.8607E+03
      2.125  0.1438E+03  0.8640E+03
      2.148  0.1348E+03  0.8670E+03
      2.170  0.1301E+03  0.8700E+03
      2.193  0.1280E+03  0.8729E+03
      2.216  0.1345E+03  0.8759E+03
      2.238  0.1504E+03  0.8793E+03
      2.261  0.1624E+03  0.8830E+03
      2.284  0.1662E+03  0.8868E+03
      2.306  0.1588E+03  0.8904E+03
      2.329  0.1555E+03  0.8939E+03
      2.352  0.1662E+03  0.8976E+03
      2.374  0.1603E+03  0.9013E+03
      2.397  0.1481E+03  0.9046E+03
      2.419  0.1459E+03  0.9079E+03
      2.442  0.1486E+03  0.9113E+03
      2.465  0.1489E+03  0.9147E+03
      2.487  0.1512E+03  0.9181E+03
      2.510  0.1582E+03  0.9217E+03
      2.533  0.1654E+03  0.9254E+03
      2.555  0.1609E+03  0.9291E+03
      2.578  0.1562E+03  0.9326E+03
      2.601  0.1602E+03  0.9362E+03
      2.623  0.1567E+03  0.9398E+03
      2.646  0.1452E+03  0.9431E+03
      2.669  0.1467E+03  0.9464E+03
      2.691  0.1529E+03  0.9499E+03
      2.714  0.1493E+03  0.9533E+03
      2.737  0.1533E+03  0.9567E+03
      2.759  0.1525E+03  0.9602E+03
      2.782  0.1455E+03  0.9635E+03
      2.805  0.1516E+03  0.9669E+03
      2.827  0.1635E+03  0.9706E+03
      2.850  0.1669E+03  0.9744E+03
      2.873  0.1549E+03  0.9779E+03
      2.895  0.1424E+03  0.9811E+03
      2.918  0.1397E+03  0.9843E+03
      2.941  0.1351E+03  0.9874E+03
      2.963  0.1182E+03  0.9900E+03
      2.986  0.1054E+03  0.9924E+03
      3.008  0.1236E+03  0.9952E+03
      3.031  0.1361E+03  0.9983E+03
      3.054  0.1011E+03  0.1001E+04
      3.076  0.4721E+02  0.1002E+04
      3.099  0.1277E+02  0.1002E+04
      3.122  0.1648E+01  0.1002E+04
      3.144  0.8553E-01  0.1002E+04
      3.167  0.1624E-02  0.1002E+04
      3.190  0.1073E-04  0.1002E+04
      3.212  0.2403E-07  0.1002E+04
      3.235  0.1792E-10  0.1002E+04
      3.258  0.4901E-14  0.1002E+04
      3.280  0.0000E+00  0.1002E+04
      3.303  0.0000E+00  0.1002E+04
      3.326  0.0000E+00  0.1002E+04
      3.348  0.0000E+00  0.1002E+04
      3.371  0.0000E+00  0.1002E+04
