 running on   64 total cores
 distrk:  each k-point on   32 cores,    2 groups
 distr:  one band on   32 cores,    1 groups
 vasp.6.2.1 16May21 (build Nov 23 2021 15:40:41) complex                        
  
 POSCAR found type information on POSCAR Li
 POSCAR found :  1 types and     500 ions
 scaLAPACK will be used
 -----------------------------------------------------------------------------
|                                                                             |
|           W    W    AA    RRRRR   N    N  II  N    N   GGGG   !!!           |
|           W    W   A  A   R    R  NN   N  II  NN   N  G    G  !!!           |
|           W    W  A    A  R    R  N N  N  II  N N  N  G       !!!           |
|           W WW W  AAAAAA  RRRRR   N  N N  II  N  N N  G  GGG   !            |
|           WW  WW  A    A  R   R   N   NN  II  N   NN  G    G                |
|           W    W  A    A  R    R  N    N  II  N    N   GGGG   !!!           |
|                                                                             |
|     For optimal performance we recommend to set                             |
|       NCORE = 2 up to number-of-cores-per-socket                            |
|     NCORE specifies how many cores store one orbital (NPAR=cpu/NCORE).      |
|     This setting can greatly improve the performance of VASP for DFT.       |
|     The default, NCORE=1 might be grossly inefficient on modern             |
|     multi-core architectures or massively parallel machines. Do your        |
|     own testing! More info at https://www.vasp.at/wiki/index.php/NCORE      |
|     Unfortunately you need to use the default for GW and RPA                |
|     calculations (for HF NCORE is supported but not extensively tested      |
|     yet).                                                                   |
|                                                                             |
 -----------------------------------------------------------------------------

 -----------------------------------------------------------------------------
|                                                                             |
|               ----> ADVICE to this user running VASP <----                  |
|                                                                             |
|     You have a (more or less) 'large supercell' and for larger cells it     |
|     might be more efficient to use real-space projection operators.         |
|     Therefore, try LREAL= Auto in the INCAR file.                           |
|     Mind: If you want to do very accurate calculations, keep the            |
|     reciprocal projection scheme (i.e. LREAL=.FALSE.).                      |
|                                                                             |
 -----------------------------------------------------------------------------

 LDA part: xc-table for Pade appr. of Perdew
 POSCAR found type information on POSCAR Li
 POSCAR found :  1 types and     500 ions
 POSCAR, INCAR and KPOINTS ok, starting setup
 FFT: planning ...
 WAVECAR not read
 entering main loop
       N       E                     dE             d eps       ncg     rms          rms(c)
DAV:   1    -0.256551359969E+03   -0.25655E+03   -0.12136E+05  4008   0.656E+02
DAV:   2    -0.859787753943E+03   -0.60324E+03   -0.55173E+03  4612   0.675E+01
DAV:   3    -0.903712770232E+03   -0.43925E+02   -0.40149E+02  5224   0.143E+01
DAV:   4    -0.905231365919E+03   -0.15186E+01   -0.14960E+01  4768   0.290E+00
DAV:   5    -0.905268951533E+03   -0.37586E-01   -0.37514E-01  4904   0.474E-01    0.107E+01
DAV:   6    -0.904235451864E+03    0.10335E+01   -0.13780E+01  4912   0.558E+00    0.963E+00
DAV:   7    -0.890731294198E+03    0.13504E+02   -0.13821E+01  5152   0.520E+00    0.501E+00
DAV:   8    -0.888165802221E+03    0.25655E+01   -0.76516E+00  4704   0.232E+00    0.232E+00
DAV:   9    -0.888090438764E+03    0.75363E-01   -0.27999E+00  4608   0.140E+00    0.159E+00
DAV:  10    -0.888069991865E+03    0.20447E-01   -0.75748E-01  4784   0.929E-01    0.132E+00
DAV:  11    -0.887896295230E+03    0.17370E+00   -0.26365E-01  4736   0.568E-01    0.687E-01
DAV:  12    -0.887876644143E+03    0.19651E-01   -0.97665E-02  4416   0.251E-01    0.317E-01
DAV:  13    -0.887885692722E+03   -0.90486E-02   -0.23617E-02  5064   0.179E-01    0.301E-01
DAV:  14    -0.887874421123E+03    0.11272E-01   -0.13000E-02  5080   0.137E-01    0.114E-01
DAV:  15    -0.887874189722E+03    0.23140E-03   -0.35319E-03  4664   0.581E-02    0.693E-02
DAV:  16    -0.887874062281E+03    0.12744E-03   -0.13919E-03  4632   0.372E-02    0.427E-02
DAV:  17    -0.887873904387E+03    0.15789E-03   -0.40740E-04  4744   0.230E-02    0.258E-02
DAV:  18    -0.887873842133E+03    0.62254E-04   -0.13513E-04  4448   0.108E-02    0.104E-02
DAV:  19    -0.887873834584E+03    0.75483E-05   -0.41199E-05  4296   0.555E-03
   1 F= -.88787383E+03 E0= -.88782043E+03  d E =-.106813E+00
