Li                                      
           1
    21.650000    0.000000    0.000000
     0.000000   21.650000    0.000000
    -0.000000   -0.000000   21.650000
   Li
   500
Direct configuration=     1
   0.00374126  0.99791396  0.02589665
   0.97999295  0.09658924  0.09236086
   0.96948838  0.21363786  0.19571219
   0.02573962  0.29473310  0.30677207
   0.98648800  0.40295809  0.42121991
   0.99496283  0.51641826  0.51863474
   0.00198777  0.62786197  0.56264267
   0.00371244  0.68581118  0.70595206
   0.01174492  0.79005342  0.81928171
   0.01467711  0.90831344  0.89628084
   0.11858268  0.99353733  0.12040326
   0.09280030  0.14565698  0.16525496
   0.05682704  0.19504877  0.26270368
   0.08688629  0.30320406  0.38518271
   0.09875625  0.38094039  0.50304042
   0.11334760  0.49646324  0.59052141
   0.10604398  0.59942030  0.68542939
   0.11484458  0.67017460  0.79124348
   0.09930359  0.78421972  0.91110143
   0.12950240  0.90222485  0.00546463
   0.20155546  0.97481361  0.18171553
   0.19566237  0.12065904  0.28271535
   0.18576841  0.19727670  0.38301943
   0.18766717  0.28753453  0.48371521
   0.20005804  0.37967483  0.60241423
   0.21271981  0.49371829  0.69363457
   0.21051128  0.63751909  0.78663858
   0.18343568  0.67362951  0.90598883
   0.20266996  0.77906616  0.00052713
   0.21634249  0.86423554  0.10738557
   0.29403380  0.02047740  0.29748460
   0.28256413  0.10475866  0.40838258
   0.29929640  0.19941726  0.50131864
   0.30328138  0.31279351  0.58390451
   0.31921987  0.38788680  0.70722704
   0.30725810  0.52163207  0.78054809
   0.31109560  0.60680885  0.89085449
   0.29044945  0.70310369  0.02581823
   0.31115281  0.79823526  0.12349531
   0.32882315  0.90818650  0.22722080
   0.40847061  0.01835121  0.40060125
   0.41457447  0.08382041  0.52089707
   0.38358378  0.19681435  0.59518079
   0.38216827  0.27331967  0.70891351
   0.39906433  0.41183869  0.79710072
   0.40344382  0.51193582  0.89445104
   0.39240481  0.60600068  0.00738958
   0.41307820  0.71192479  0.12750695
   0.41892739  0.83309068  0.20987371
   0.41705474  0.92468807  0.32574616
   0.49772057  0.98036537  0.48511581
   0.49524818  0.08174813  0.59795025
   0.48917220  0.21205782  0.67934902
   0.49988105  0.29369644  0.78549928
   0.49528077  0.39338180  0.90660394
   0.49552092  0.47536478  0.99311862
   0.48390410  0.56345150  0.10333335
   0.50382587  0.70394371  0.19639832
   0.52004822  0.81122788  0.31234100
   0.51169035  0.92470472  0.40091409
   0.60358592  0.02706502  0.59740382
   0.62385203  0.09331335  0.69096821
   0.59554511  0.20355682  0.78538714
   0.62279096  0.32020626  0.89701379
   0.61391246  0.39995292  0.00446242
   0.58300909  0.50415016  0.09708734
   0.59696854  0.58820048  0.20736618
   0.59568878  0.70716238  0.31122385
   0.61248869  0.83320909  0.41016229
   0.60834713  0.92396358  0.51335709
   0.72419053  0.00240276  0.70992152
   0.71296751  0.08724666  0.81370969
   0.71301517  0.21535667  0.88641493
   0.69004780  0.29084529  0.02901520
   0.68740019  0.40725566  0.09603289
   0.68787703  0.51130190  0.20779249
   0.70099673  0.61580414  0.31449312
   0.68389309  0.72399714  0.40108827
   0.68204800  0.80231542  0.48930193
   0.72352891  0.92443170  0.60673508
   0.81544253  0.00904124  0.81290170
   0.80906275  0.10683723  0.91157822
   0.78242218  0.19910826  0.98396080
   0.81756664  0.31297881  0.12344203
   0.79148478  0.39950386  0.20492285
   0.80574854  0.49293306  0.30521550
   0.77113620  0.63683609  0.40286644
   0.77982665  0.71468260  0.51397983
   0.79410167  0.81488402  0.62967395
   0.82589640  0.91014377  0.70176302
   0.94052113  0.01776002  0.91026010
   0.91013689  0.09910782  0.99615655
   0.89725281  0.21803640  0.10225408
   0.89123473  0.33860244  0.21068784
   0.89918243  0.40913362  0.28844271
   0.88174354  0.50366106  0.42425949
   0.89852009  0.60667586  0.46907711
   0.87721784  0.68073772  0.60214319
   0.91032674  0.80257895  0.71438369
   0.90160268  0.92675388  0.81016236
   0.09155546  0.08890727  0.01253563
   0.06973221  0.22784782  0.07716251
   0.09578681  0.30848975  0.17381613
   0.08907960  0.43166578  0.30388256
   0.09187443  0.49979231  0.41996201
   0.10302105  0.59386545  0.49868962
   0.10455024  0.71237958  0.58429150
   0.09208656  0.78028903  0.68125952
   0.10238126  0.88411005  0.81381687
   0.10821289  0.01427084  0.91808455
   0.20282191  0.12400227  0.08171554
   0.18917276  0.23033286  0.18281123
   0.16785875  0.28323695  0.28949353
   0.16873961  0.38788638  0.39780339
   0.17643350  0.48244514  0.50607393
   0.21382158  0.58729693  0.58702092
   0.21728836  0.73167175  0.68027677
   0.17920401  0.80128253  0.81125739
   0.19929895  0.91299744  0.90467842
   0.18503390  0.01195970  0.02096061
   0.29152179  0.08637441  0.17390813
   0.29376766  0.19779359  0.28134559
   0.27532911  0.28803900  0.38375913
   0.27175828  0.39314621  0.48397778
   0.30667838  0.45228196  0.60828713
   0.32073835  0.59680499  0.66076958
   0.29699766  0.68954651  0.78557084
   0.27448503  0.76034733  0.89178638
   0.29732157  0.89434865  0.97350847
   0.29131726  0.97198000  0.08404288
   0.40250052  0.12362848  0.31291666
   0.39905481  0.16530582  0.41398093
   0.38874890  0.29237323  0.47979657
   0.42076995  0.38411153  0.61808505
   0.41360309  0.51488665  0.68946086
   0.42344421  0.61208117  0.77205791
   0.39903503  0.68904332  0.92882678
   0.40375880  0.79274537  0.99694003
   0.40791461  0.88890708  0.09257719
   0.38986010  0.99107447  0.20392738
   0.52835047  0.09514650  0.43036238
   0.49378959  0.20709515  0.50534415
   0.49048540  0.29453633  0.61428155
   0.50601264  0.38574998  0.70470050
   0.49228910  0.53875272  0.80943199
   0.48101865  0.62385301  0.90423745
   0.49873790  0.70798265  0.01341083
   0.51058056  0.80031099  0.09244833
   0.51927123  0.91626030  0.18916700
   0.51297963  0.02424638  0.33071136
   0.60081241  0.09548291  0.51515116
   0.59156206  0.17488485  0.60676329
   0.61808200  0.28441174  0.69090588
   0.55836556  0.41300053  0.80328896
   0.59274106  0.52119153  0.88913826
   0.59084433  0.60336289  0.99287081
   0.59527829  0.68395967  0.09887961
   0.63110371  0.80824494  0.18874081
   0.63799905  0.91905098  0.26521432
   0.63008417  0.99673633  0.40959902
   0.73330679  0.09764086  0.61299854
   0.71697829  0.18888404  0.69971043
   0.67710824  0.33083352  0.80352711
   0.70464400  0.42017272  0.92349011
   0.70168697  0.52653857  0.98704801
   0.70458410  0.60332023  0.10717415
   0.70546677  0.66702901  0.18891808
   0.68546393  0.80302546  0.26924859
   0.70802236  0.92104977  0.39140136
   0.71898108  0.00222206  0.50972420
   0.81673076  0.08326781  0.69494977
   0.78030836  0.20746422  0.80422742
   0.77425434  0.30742554  0.88866777
   0.78720151  0.40215295  0.02552727
   0.76130460  0.51289645  0.09784023
   0.81397693  0.59798191  0.21126021
   0.80447593  0.70712236  0.31427002
   0.75660659  0.80523390  0.39142877
   0.81374318  0.90794790  0.49160747
   0.83823289  0.00531973  0.60659393
   0.91660284  0.07837423  0.78874140
   0.88686771  0.21124008  0.91515423
   0.87916391  0.32132025  0.00366555
   0.91988603  0.45215443  0.11830464
   0.89084571  0.48986930  0.19483607
   0.90340127  0.60770899  0.30313030
   0.88478704  0.71481475  0.41454421
   0.90016185  0.79895603  0.50577336
   0.92888305  0.89645214  0.59435497
   0.94615695  0.98360004  0.68903270
   0.00920687  0.12720184  0.89836662
   0.98205144  0.21678364  0.00590262
   0.98583478  0.31977359  0.10103746
   0.02497202  0.44820605  0.21759433
   0.96805940  0.50730341  0.33755358
   0.99469422  0.62111388  0.40887032
   0.00822958  0.71446308  0.49431504
   0.00894423  0.79430495  0.60480966
   0.00142785  0.87882078  0.71892277
   0.01842992  0.01088037  0.78937409
   0.19875148  0.18430539  0.99346315
   0.19721036  0.30647754  0.07884950
   0.17073962  0.38549092  0.21454785
   0.19320996  0.50330030  0.30327138
   0.21295769  0.61426473  0.39554360
   0.21039062  0.69857573  0.49812099
   0.19210267  0.79892546  0.59048434
   0.16806801  0.88869859  0.72541522
   0.18723630  0.99444656  0.80722653
   0.19076576  0.09907174  0.89565517
   0.30381207  0.21589366  0.07375483
   0.30013289  0.31120154  0.18715512
   0.29027889  0.37417879  0.29408070
   0.28491130  0.48415136  0.39924475
   0.28412964  0.59423200  0.49322707
   0.31240517  0.72849681  0.57514632
   0.30528632  0.83319742  0.68434736
   0.28590449  0.89724169  0.80787512
   0.28273585  0.02902352  0.89491685
   0.28731621  0.07720649  0.00456258
   0.39936399  0.19374576  0.16759581
   0.41085048  0.26567021  0.29217555
   0.39332942  0.37785427  0.38815249
   0.39032661  0.46798556  0.49277862
   0.36763403  0.57715528  0.58766996
   0.38467146  0.71695727  0.69216984
   0.38565172  0.79143059  0.81085690
   0.38050014  0.89300252  0.91242694
   0.40637889  0.99838008  0.96346237
   0.38869837  0.09131337  0.07702983
   0.51173068  0.16354763  0.31638605
   0.51927013  0.29115045  0.38401064
   0.49534015  0.37258211  0.48748304
   0.49866024  0.49262461  0.59758603
   0.50035325  0.61518342  0.68629117
   0.47275745  0.69444674  0.79541268
   0.48718303  0.81406469  0.90355740
   0.50909109  0.87418316  0.00118449
   0.49762758  0.00353172  0.07382743
   0.48785233  0.08130582  0.20127047
   0.60758239  0.18387062  0.41773215
   0.61718965  0.29151261  0.49151605
   0.59894908  0.37848947  0.58434367
   0.57536520  0.50271986  0.68503589
   0.59038948  0.59868609  0.76952979
   0.58011534  0.69637472  0.89666646
   0.60381303  0.78236814  0.97376634
   0.62167072  0.88848405  0.08594444
   0.62409249  0.00675211  0.17702995
   0.61481744  0.09657713  0.30083966
   0.69405895  0.19311457  0.51396112
   0.71612770  0.29347482  0.61471960
   0.68683064  0.38661701  0.69019021
   0.68623856  0.49351653  0.76038265
   0.71389284  0.60352504  0.86667410
   0.70915104  0.68114547  0.99582879
   0.69354428  0.76428430  0.11117398
   0.70887830  0.93502427  0.15640825
   0.72087465  0.98368645  0.28024242
   0.71248239  0.11657711  0.41020077
   0.82061175  0.19662319  0.60895787
   0.80478565  0.31693615  0.73361713
   0.80073939  0.38789293  0.81258516
   0.78979708  0.49017697  0.86989081
   0.82571082  0.59544239  0.97394195
   0.81543106  0.67262760  0.07868717
   0.80291325  0.79437430  0.20345778
   0.80628553  0.87769195  0.29204877
   0.79945084  0.02226355  0.39302844
   0.81752847  0.13263948  0.51823513
   0.90693335  0.20623007  0.71180761
   0.90497903  0.30293542  0.81169952
   0.87710891  0.41113333  0.90118619
   0.87484630  0.50468654  0.99376609
   0.87895457  0.58614738  0.09697459
   0.89953019  0.70135437  0.21331719
   0.90399472  0.79557336  0.30920936
   0.88531901  0.89100334  0.39646077
   0.88058732  0.01808490  0.48666632
   0.92572536  0.10261827  0.61092848
   0.01310553  0.21173514  0.80388628
   0.96125107  0.28569695  0.92241071
   0.99902350  0.41689226  0.00062203
   0.99526622  0.49684150  0.10527761
   0.00029015  0.60265892  0.22374930
   0.98524906  0.70697809  0.29145726
   0.00169931  0.78224076  0.38982117
   0.99254547  0.90118685  0.50244782
   0.99885714  0.97900664  0.58858409
   0.02510998  0.14111418  0.69935282
   0.10127071  0.19633042  0.92377343
   0.10422278  0.31361659  0.00611328
   0.10594996  0.42176906  0.10133124
   0.09610258  0.49397054  0.20096596
   0.09235537  0.60312544  0.31377325
   0.09068422  0.71070902  0.39546320
   0.10068988  0.78446031  0.49456238
   0.08342110  0.89197565  0.60365241
   0.07468171  0.01099368  0.68350015
   0.09519936  0.09254636  0.80690370
   0.28007099  0.31845117  0.96832320
   0.31564673  0.41662565  0.12433215
   0.32103801  0.47918604  0.21168974
   0.29994768  0.60306641  0.31973590
   0.30547473  0.69399580  0.41324072
   0.28577593  0.81864452  0.48983029
   0.26020344  0.91276173  0.59516025
   0.30535086  0.98518130  0.68327423
   0.25543806  0.10156886  0.79428963
   0.30861572  0.19038313  0.91270344
   0.41735046  0.29237043  0.08775134
   0.40716725  0.36847580  0.23090493
   0.39564266  0.47955792  0.29783542
   0.41266922  0.57695099  0.40136621
   0.40064942  0.70668470  0.49030246
   0.37077908  0.82892485  0.57729110
   0.38464981  0.89325922  0.72470223
   0.38260621  0.02390135  0.82661880
   0.40656496  0.09784799  0.88248422
   0.41288576  0.18655916  0.99277875
   0.50114691  0.26992095  0.23131786
   0.49875469  0.39315704  0.31174334
   0.50173448  0.48004277  0.40805806
   0.50021698  0.58517250  0.51429463
   0.45989190  0.69453272  0.59036878
   0.49484794  0.80478698  0.68682834
   0.49874953  0.89566655  0.79358668
   0.52089698  0.95954233  0.90909914
   0.53491623  0.09670966  0.97940240
   0.50734076  0.18507230  0.10039499
   0.64277258  0.29961927  0.31440386
   0.61150648  0.40521360  0.40788978
   0.59331116  0.48224216  0.52049524
   0.60345604  0.62504272  0.60215138
   0.59537029  0.70514389  0.71064429
   0.59115153  0.78398202  0.81981208
   0.60380709  0.87371462  0.90448771
   0.61705432  0.98480507  0.01176398
   0.57903610  0.10003788  0.11839695
   0.60616719  0.19468445  0.22398909
   0.72693988  0.29233005  0.41481163
   0.72287234  0.43588402  0.51933270
   0.66605314  0.48103686  0.60331434
   0.71461783  0.59433568  0.70291480
   0.70257787  0.70258933  0.79789596
   0.71421616  0.76442285  0.89641417
   0.67981714  0.85623399  0.02421244
   0.70390202  0.01074463  0.07235067
   0.70547617  0.09664792  0.19249259
   0.73081410  0.19797963  0.31253709
   0.80808014  0.30704303  0.49660619
   0.79474086  0.40879039  0.60825530
   0.78754008  0.49199843  0.70634576
   0.80505032  0.59484418  0.79198201
   0.83362139  0.68685912  0.89217619
   0.81787861  0.79830643  0.00622129
   0.79592685  0.90489661  0.08234963
   0.79665185  0.00468013  0.21147921
   0.80443466  0.11629151  0.29490656
   0.81607149  0.19345859  0.41700855
   0.88951992  0.31920584  0.61642868
   0.90094621  0.40764612  0.71780361
   0.88715615  0.50191999  0.79731844
   0.92388896  0.57561615  0.87047294
   0.91540995  0.69762262  0.98183659
   0.89175739  0.80415528  0.09952696
   0.92080525  0.89837649  0.19796096
   0.89393758  0.00147543  0.30306692
   0.89062256  0.08873187  0.38752723
   0.91691977  0.22591786  0.52990198
   0.00090100  0.30019431  0.70046652
   0.00284077  0.41991784  0.79773397
   0.99441305  0.48673608  0.88329146
   0.99688895  0.59575695  0.00600522
   0.98351342  0.68823898  0.10336729
   0.99393745  0.77522044  0.20383439
   0.99890442  0.89916848  0.29034539
   0.00743880  0.97738847  0.39120742
   0.00733233  0.10252605  0.50110929
   0.99223252  0.22608853  0.57978395
   0.09784847  0.30503908  0.80446520
   0.10322840  0.39747237  0.89860385
   0.09070727  0.49974671  0.02318405
   0.09739566  0.58868923  0.10900697
   0.10456371  0.71141634  0.20725268
   0.09058831  0.79798668  0.30397761
   0.06284819  0.89225386  0.37372692
   0.10210912  0.98334213  0.50418702
   0.08256665  0.10822945  0.57790588
   0.12590747  0.21383581  0.69602464
   0.20267339  0.30108800  0.89687679
   0.20840620  0.41735752  0.99213823
   0.21116164  0.49429881  0.10876136
   0.22565600  0.60383084  0.20979961
   0.19954331  0.71812163  0.29202125
   0.19278561  0.80241094  0.40225259
   0.18759827  0.89911390  0.47599476
   0.18519192  0.99587100  0.58660488
   0.15067006  0.10472783  0.68651284
   0.20303861  0.20041790  0.82165674
   0.39527247  0.41156514  0.00410647
   0.39827662  0.49414951  0.12762539
   0.40995746  0.58317661  0.20395034
   0.43420805  0.68699897  0.30533343
   0.41838078  0.80556785  0.41176525
   0.37628537  0.91771958  0.49471653
   0.38379503  0.00967306  0.59495484
   0.39481870  0.08970457  0.73290267
   0.38243763  0.19683546  0.81433168
   0.39950879  0.31357465  0.89147180
   0.49330266  0.38312859  0.12535062
   0.50886037  0.47413051  0.21020624
   0.50085629  0.57163106  0.32248052
   0.50990921  0.69130073  0.41844709
   0.50604512  0.83310368  0.49613519
   0.49968277  0.90711585  0.61257092
   0.49381091  0.99245495  0.69640737
   0.51612282  0.09717724  0.80047986
   0.50620831  0.20682017  0.88266573
   0.49733470  0.30397750  0.00977171
   0.60042305  0.36292476  0.18444221
   0.62305455  0.50194813  0.30106790
   0.58869096  0.60065030  0.40762392
   0.58696126  0.69789871  0.51316114
   0.62898289  0.80448097  0.59505567
   0.63087445  0.93553921  0.69918353
   0.61934622  0.99965050  0.79327945
   0.62803233  0.10288234  0.87478266
   0.62018395  0.19269675  0.99512243
   0.59267520  0.30272762  0.10680509
   0.69712398  0.38921333  0.30877449
   0.71543778  0.50757069  0.39548588
   0.67266470  0.60655500  0.50459576
   0.69850784  0.70628168  0.59508320
   0.71295599  0.81752180  0.70594418
   0.71651447  0.86496708  0.80008268
   0.71739788  0.97871050  0.88996173
   0.69043220  0.09730844  0.99262854
   0.67661460  0.19607659  0.11264427
   0.71231812  0.29675053  0.18341879
   0.79434360  0.38950753  0.41212027
   0.79256102  0.49753445  0.50333081
   0.77421643  0.59676890  0.59572260
   0.79312778  0.69705399  0.67959003
   0.81736129  0.77334092  0.81447861
   0.80704479  0.87095893  0.89494105
   0.79694797  0.98898343  0.97234263
   0.80001151  0.08935637  0.08678068
   0.82916039  0.20771440  0.17712885
   0.80160695  0.27919450  0.28963995
   0.89235255  0.39306538  0.50465137
   0.90409948  0.52617598  0.60747021
   0.90921020  0.59967439  0.71739354
   0.92012752  0.70338850  0.81351449
   0.90316792  0.80049409  0.89564938
   0.90475006  0.90747527  0.98627800
   0.87570592  0.99097387  0.09777638
   0.88291745  0.10431887  0.18917021
   0.89640323  0.23329747  0.31730443
   0.90926139  0.30877643  0.40692725
   0.97498679  0.39956019  0.59235641
   0.99265872  0.51372192  0.66776237
   0.98824459  0.58006838  0.80264858
   0.01383024  0.66355355  0.89430242
   0.99993274  0.79409913  0.99090966
   0.99338551  0.88798939  0.07980113
   0.98452889  0.01052788  0.18503148
   0.98611093  0.09218507  0.31174483
   0.98051114  0.18523208  0.39008907
   0.01571835  0.32312836  0.50597064
   0.08914473  0.39937510  0.68897040
   0.13068807  0.49732464  0.78429652
   0.09200155  0.57586952  0.89218163
   0.09814220  0.66751074  0.99796550
   0.08880305  0.78999102  0.09875189
   0.09827205  0.89676704  0.20676328
   0.10014958  0.01717937  0.28730796
   0.09640693  0.09637754  0.38870692
   0.10093605  0.20747968  0.48183502
   0.07984611  0.29037775  0.60067619
   0.21043407  0.42016811  0.80448570
   0.19150719  0.51011042  0.90816589
   0.22093734  0.59455348  0.02297212
   0.20353482  0.69783634  0.12216796
   0.20238862  0.80133689  0.20842549
   0.20038838  0.88581381  0.29077292
   0.17843841  0.01129294  0.39388395
   0.19219424  0.10135231  0.51259338
   0.18506032  0.21049168  0.60160314
   0.20102130  0.30670753  0.71965637
   0.30393010  0.43318652  0.88750108
   0.31335653  0.50798922  0.01679942
   0.31797421  0.62288496  0.14612923
   0.32665560  0.71611589  0.22984349
   0.32840045  0.79538961  0.31621866
   0.30077225  0.90353603  0.38263993
   0.27587773  0.98377382  0.49655502
   0.28980691  0.10677035  0.60399579
   0.28206517  0.19230495  0.69307681
   0.30136234  0.30350947  0.82147937
