 500 500   0   0
  0.1910214E+02  0.2121700E-08  0.2121700E-08  0.2121700E-08  0.5000000E-15
  1.000000000000000E-004
  CAR 
 Li                                      
      3.85662608     -3.37328423  301      0.55414238      1.00000000
     -3.373  0.0000E+00  0.0000E+00
     -3.349  0.0000E+00  0.0000E+00
     -3.325  0.0000E+00  0.0000E+00
     -3.301  0.0000E+00  0.0000E+00
     -3.277  0.0000E+00  0.0000E+00
     -3.253  0.0000E+00  0.0000E+00
     -3.229  0.0000E+00  0.0000E+00
     -3.205  0.1937E-11  0.4668E-13
     -3.180  0.6248E-08  0.1506E-09
     -3.156  0.5695E-05  0.1374E-06
     -3.132  0.1483E-02  0.3587E-04
     -3.108  0.1118E+00  0.2731E-02
     -3.084  0.2493E+01  0.6282E-01
     -3.060  0.1685E+02  0.4688E+00
     -3.036  0.3530E+02  0.1319E+01
     -3.012  0.2320E+02  0.1879E+01
     -2.988  0.5253E+01  0.2005E+01
     -2.964  0.8628E+01  0.2213E+01
     -2.939  0.4722E+02  0.3351E+01
     -2.915  0.9723E+02  0.5694E+01
     -2.891  0.7378E+02  0.7472E+01
     -2.867  0.2040E+02  0.7964E+01
     -2.843  0.8925E+01  0.8179E+01
     -2.819  0.4336E+02  0.9224E+01
     -2.795  0.9552E+02  0.1153E+02
     -2.771  0.7763E+02  0.1340E+02
     -2.747  0.2324E+02  0.1396E+02
     -2.723  0.1125E+02  0.1423E+02
     -2.698  0.5302E+02  0.1551E+02
     -2.674  0.1195E+03  0.1839E+02
     -2.650  0.1075E+03  0.2098E+02
     -2.626  0.3834E+02  0.2190E+02
     -2.602  0.1761E+02  0.2233E+02
     -2.578  0.7325E+02  0.2409E+02
     -2.554  0.1665E+03  0.2810E+02
     -2.530  0.1632E+03  0.3204E+02
     -2.506  0.6910E+02  0.3370E+02
     -2.482  0.1473E+02  0.3406E+02
     -2.457  0.2950E+02  0.3477E+02
     -2.433  0.8991E+02  0.3693E+02
     -2.409  0.9245E+02  0.3916E+02
     -2.385  0.3173E+02  0.3993E+02
     -2.361  0.1219E+02  0.4022E+02
     -2.337  0.5773E+02  0.4161E+02
     -2.313  0.1518E+03  0.4527E+02
     -2.289  0.1739E+03  0.4946E+02
     -2.265  0.8745E+02  0.5157E+02
     -2.241  0.3094E+02  0.5231E+02
     -2.216  0.8344E+02  0.5433E+02
     -2.192  0.2072E+03  0.5932E+02
     -2.168  0.2473E+03  0.6528E+02
     -2.144  0.1487E+03  0.6886E+02
     -2.120  0.4409E+02  0.6993E+02
     -2.096  0.2388E+02  0.7050E+02
     -2.072  0.6812E+02  0.7214E+02
     -2.048  0.9598E+02  0.7446E+02
     -2.024  0.5310E+02  0.7574E+02
     -2.000  0.1698E+02  0.7615E+02
     -1.976  0.5043E+02  0.7736E+02
     -1.951  0.1529E+03  0.8104E+02
     -1.927  0.2075E+03  0.8604E+02
     -1.903  0.1279E+03  0.8913E+02
     -1.879  0.3943E+02  0.9008E+02
     -1.855  0.5714E+02  0.9145E+02
     -1.831  0.1785E+03  0.9576E+02
     -1.807  0.2606E+03  0.1020E+03
     -1.783  0.1823E+03  0.1064E+03
     -1.759  0.5863E+02  0.1078E+03
     -1.735  0.2266E+02  0.1084E+03
     -1.710  0.8503E+02  0.1104E+03
     -1.686  0.1786E+03  0.1147E+03
     -1.662  0.1552E+03  0.1185E+03
     -1.638  0.6170E+02  0.1200E+03
     -1.614  0.5975E+02  0.1214E+03
     -1.590  0.1676E+03  0.1255E+03
     -1.566  0.2486E+03  0.1314E+03
     -1.542  0.1903E+03  0.1360E+03
     -1.518  0.7419E+02  0.1378E+03
     -1.494  0.4653E+02  0.1389E+03
     -1.469  0.1387E+03  0.1423E+03
     -1.445  0.2422E+03  0.1481E+03
     -1.421  0.2109E+03  0.1532E+03
     -1.397  0.9556E+02  0.1555E+03
     -1.373  0.3879E+02  0.1564E+03
     -1.349  0.9115E+02  0.1586E+03
     -1.325  0.1736E+03  0.1628E+03
     -1.301  0.1495E+03  0.1664E+03
     -1.277  0.6199E+02  0.1679E+03
     -1.253  0.4833E+02  0.1691E+03
     -1.228  0.1088E+03  0.1717E+03
     -1.204  0.1404E+03  0.1751E+03
     -1.180  0.1265E+03  0.1781E+03
     -1.156  0.7127E+02  0.1799E+03
     -1.132  0.6508E+02  0.1814E+03
     -1.108  0.1839E+03  0.1859E+03
     -1.084  0.3356E+03  0.1939E+03
     -1.060  0.3539E+03  0.2025E+03
     -1.036  0.2271E+03  0.2079E+03
     -1.012  0.1014E+03  0.2104E+03
     -0.987  0.1274E+03  0.2135E+03
     -0.963  0.2273E+03  0.2189E+03
     -0.939  0.2215E+03  0.2243E+03
     -0.915  0.1259E+03  0.2273E+03
     -0.891  0.6057E+02  0.2288E+03
     -0.867  0.6346E+02  0.2303E+03
     -0.843  0.1238E+03  0.2333E+03
     -0.819  0.1897E+03  0.2379E+03
     -0.795  0.1582E+03  0.2417E+03
     -0.771  0.1522E+03  0.2453E+03
     -0.746  0.2148E+03  0.2505E+03
     -0.722  0.2441E+03  0.2564E+03
     -0.698  0.2323E+03  0.2620E+03
     -0.674  0.1320E+03  0.2652E+03
     -0.650  0.3421E+02  0.2660E+03
     -0.626  0.2595E+02  0.2666E+03
     -0.602  0.7779E+02  0.2685E+03
     -0.578  0.9613E+02  0.2708E+03
     -0.554  0.5286E+02  0.2721E+03
     -0.530  0.7570E+02  0.2739E+03
     -0.505  0.1974E+03  0.2787E+03
     -0.481  0.3000E+03  0.2859E+03
     -0.457  0.3400E+03  0.2941E+03
     -0.433  0.3194E+03  0.3018E+03
     -0.409  0.2188E+03  0.3071E+03
     -0.385  0.1503E+03  0.3107E+03
     -0.361  0.2048E+03  0.3156E+03
     -0.337  0.2916E+03  0.3226E+03
     -0.313  0.2895E+03  0.3296E+03
     -0.289  0.1962E+03  0.3344E+03
     -0.264  0.1093E+03  0.3370E+03
     -0.240  0.6962E+02  0.3387E+03
     -0.216  0.1082E+03  0.3413E+03
     -0.192  0.1557E+03  0.3450E+03
     -0.168  0.1876E+03  0.3495E+03
     -0.144  0.1818E+03  0.3539E+03
     -0.120  0.1453E+03  0.3574E+03
     -0.096  0.1673E+03  0.3615E+03
     -0.072  0.1764E+03  0.3657E+03
     -0.048  0.1555E+03  0.3695E+03
     -0.023  0.1897E+03  0.3740E+03
      0.001  0.2660E+03  0.3804E+03
      0.025  0.3183E+03  0.3881E+03
      0.049  0.2724E+03  0.3947E+03
      0.073  0.1889E+03  0.3992E+03
      0.097  0.2058E+03  0.4042E+03
      0.121  0.2464E+03  0.4101E+03
      0.145  0.1755E+03  0.4144E+03
      0.169  0.6748E+02  0.4160E+03
      0.193  0.6258E+02  0.4175E+03
      0.218  0.1650E+03  0.4215E+03
      0.242  0.2648E+03  0.4278E+03
      0.266  0.2974E+03  0.4350E+03
      0.290  0.2797E+03  0.4418E+03
      0.314  0.2067E+03  0.4467E+03
      0.338  0.1614E+03  0.4506E+03
      0.362  0.1977E+03  0.4554E+03
      0.386  0.2213E+03  0.4607E+03
      0.410  0.2192E+03  0.4660E+03
      0.434  0.2176E+03  0.4713E+03
      0.459  0.2003E+03  0.4761E+03
      0.483  0.1904E+03  0.4807E+03
      0.507  0.2537E+03  0.4868E+03
      0.531  0.2967E+03  0.4939E+03
      0.555  0.2596E+03  0.5002E+03
      0.579  0.2162E+03  0.5054E+03
      0.603  0.2152E+03  0.5106E+03
      0.627  0.2188E+03  0.5159E+03
      0.651  0.2048E+03  0.5208E+03
      0.675  0.2138E+03  0.5259E+03
      0.700  0.2550E+03  0.5321E+03
      0.724  0.3074E+03  0.5395E+03
      0.748  0.3511E+03  0.5480E+03
      0.772  0.3616E+03  0.5567E+03
      0.796  0.3444E+03  0.5650E+03
      0.820  0.3175E+03  0.5726E+03
      0.844  0.2980E+03  0.5798E+03
      0.868  0.3031E+03  0.5871E+03
      0.892  0.3076E+03  0.5945E+03
      0.916  0.2922E+03  0.6016E+03
      0.941  0.2585E+03  0.6078E+03
      0.965  0.1977E+03  0.6126E+03
      0.989  0.1071E+03  0.6151E+03
      1.013  0.4355E+02  0.6162E+03
      1.037  0.6120E+02  0.6177E+03
      1.061  0.1155E+03  0.6205E+03
      1.085  0.1372E+03  0.6238E+03
      1.109  0.1611E+03  0.6276E+03
      1.133  0.1864E+03  0.6321E+03
      1.157  0.1923E+03  0.6368E+03
      1.182  0.2144E+03  0.6419E+03
      1.206  0.2418E+03  0.6478E+03
      1.230  0.2374E+03  0.6535E+03
      1.254  0.2172E+03  0.6587E+03
      1.278  0.2268E+03  0.6642E+03
      1.302  0.2518E+03  0.6702E+03
      1.326  0.2756E+03  0.6769E+03
      1.350  0.2921E+03  0.6839E+03
      1.374  0.2921E+03  0.6910E+03
      1.398  0.2726E+03  0.6975E+03
      1.423  0.2367E+03  0.7032E+03
      1.447  0.2138E+03  0.7084E+03
      1.471  0.2002E+03  0.7132E+03
      1.495  0.1774E+03  0.7175E+03
      1.519  0.1677E+03  0.7215E+03
      1.543  0.1902E+03  0.7261E+03
      1.567  0.2124E+03  0.7312E+03
      1.591  0.2206E+03  0.7366E+03
      1.615  0.2231E+03  0.7419E+03
      1.639  0.2213E+03  0.7473E+03
      1.664  0.2037E+03  0.7522E+03
      1.688  0.1762E+03  0.7564E+03
      1.712  0.1540E+03  0.7601E+03
      1.736  0.1577E+03  0.7639E+03
      1.760  0.1663E+03  0.7679E+03
      1.784  0.1486E+03  0.7715E+03
      1.808  0.1456E+03  0.7750E+03
      1.832  0.1699E+03  0.7791E+03
      1.856  0.1716E+03  0.7833E+03
      1.880  0.1472E+03  0.7868E+03
      1.905  0.1061E+03  0.7894E+03
      1.929  0.8117E+02  0.7913E+03
      1.953  0.1118E+03  0.7940E+03
      1.977  0.1616E+03  0.7979E+03
      2.001  0.1864E+03  0.8024E+03
      2.025  0.1984E+03  0.8072E+03
      2.049  0.2161E+03  0.8124E+03
      2.073  0.2431E+03  0.8182E+03
      2.097  0.2561E+03  0.8244E+03
      2.121  0.2513E+03  0.8305E+03
      2.146  0.2595E+03  0.8367E+03
      2.170  0.2606E+03  0.8430E+03
      2.194  0.2399E+03  0.8488E+03
      2.218  0.2174E+03  0.8540E+03
      2.242  0.1954E+03  0.8587E+03
      2.266  0.1772E+03  0.8630E+03
      2.290  0.1618E+03  0.8669E+03
      2.314  0.1449E+03  0.8704E+03
      2.338  0.1392E+03  0.8738E+03
      2.362  0.1372E+03  0.8771E+03
      2.387  0.1052E+03  0.8796E+03
      2.411  0.8943E+02  0.8818E+03
      2.435  0.1310E+03  0.8849E+03
      2.459  0.1716E+03  0.8890E+03
      2.483  0.1804E+03  0.8934E+03
      2.507  0.1571E+03  0.8972E+03
      2.531  0.1336E+03  0.9004E+03
      2.555  0.1525E+03  0.9041E+03
      2.579  0.1610E+03  0.9080E+03
      2.603  0.1410E+03  0.9114E+03
      2.628  0.1323E+03  0.9145E+03
      2.652  0.1352E+03  0.9178E+03
      2.676  0.1250E+03  0.9208E+03
      2.700  0.1140E+03  0.9236E+03
      2.724  0.1268E+03  0.9266E+03
      2.748  0.1464E+03  0.9301E+03
      2.772  0.1514E+03  0.9338E+03
      2.796  0.1398E+03  0.9372E+03
      2.820  0.1341E+03  0.9404E+03
      2.844  0.1259E+03  0.9434E+03
      2.869  0.8453E+02  0.9455E+03
      2.893  0.5912E+02  0.9469E+03
      2.917  0.8218E+02  0.9489E+03
      2.941  0.1073E+03  0.9515E+03
      2.965  0.1223E+03  0.9544E+03
      2.989  0.1418E+03  0.9578E+03
      3.013  0.1549E+03  0.9616E+03
      3.037  0.1601E+03  0.9654E+03
      3.061  0.1700E+03  0.9695E+03
      3.085  0.1731E+03  0.9737E+03
      3.110  0.1647E+03  0.9777E+03
      3.134  0.1514E+03  0.9813E+03
      3.158  0.1395E+03  0.9847E+03
      3.182  0.9568E+02  0.9870E+03
      3.206  0.3602E+02  0.9878E+03
      3.230  0.6238E+01  0.9880E+03
      3.254  0.4269E+00  0.9880E+03
      3.278  0.1017E-01  0.9880E+03
      3.302  0.3031E-02  0.9880E+03
      3.326  0.1651E+00  0.9880E+03
      3.351  0.3101E+01  0.9881E+03
      3.375  0.2142E+02  0.9886E+03
      3.399  0.6194E+02  0.9901E+03
      3.423  0.9700E+02  0.9924E+03
      3.447  0.1157E+03  0.9952E+03
      3.471  0.1112E+03  0.9979E+03
      3.495  0.8399E+02  0.9999E+03
      3.519  0.5390E+02  0.1001E+04
      3.543  0.2526E+02  0.1002E+04
      3.567  0.6498E+01  0.1002E+04
      3.592  0.7304E+00  0.1002E+04
      3.616  0.2956E-01  0.1002E+04
      3.640  0.3791E-03  0.1002E+04
      3.664  0.1442E-05  0.1002E+04
      3.688  0.1579E-08  0.1002E+04
      3.712  0.4883E-12  0.1002E+04
      3.736  0.0000E+00  0.1002E+04
      3.760  0.0000E+00  0.1002E+04
      3.784  0.0000E+00  0.1002E+04
      3.808  0.0000E+00  0.1002E+04
      3.833  0.0000E+00  0.1002E+04
      3.857  0.0000E+00  0.1002E+04
