       N       E                     dE             d eps       ncg     rms          rms(c)
DAV:   1    -0.283334646520E+03   -0.28333E+03   -0.12342E+05  4008   0.662E+02
DAV:   2    -0.892091929410E+03   -0.60876E+03   -0.55792E+03  4588   0.687E+01
DAV:   3    -0.934332715973E+03   -0.42241E+02   -0.38382E+02  5152   0.143E+01
DAV:   4    -0.935712736392E+03   -0.13800E+01   -0.13586E+01  4624   0.283E+00
DAV:   5    -0.935743440637E+03   -0.30704E-01   -0.30660E-01  4744   0.450E-01    0.760E+00
DAV:   6    -0.937535849478E+03   -0.17924E+01   -0.78540E+00  4632   0.438E+00    0.774E+00
DAV:   7    -0.929163545099E+03    0.83723E+01   -0.69699E+00  4712   0.392E+00    0.405E+00
DAV:   8    -0.927549075771E+03    0.16145E+01   -0.30478E+00  4512   0.186E+00    0.232E+00
DAV:   9    -0.927159312704E+03    0.38976E+00   -0.16366E+00  4376   0.106E+00    0.127E+00
DAV:  10    -0.927239646870E+03   -0.80334E-01   -0.38004E-01  4712   0.701E-01    0.125E+00
DAV:  11    -0.927060412938E+03    0.17923E+00   -0.18910E-01  4592   0.503E-01    0.524E-01
DAV:  12    -0.927053788861E+03    0.66241E-02   -0.64250E-02  4336   0.206E-01    0.259E-01
DAV:  13    -0.927055624842E+03   -0.18360E-02   -0.14705E-02  4728   0.146E-01    0.225E-01
DAV:  14    -0.927050691878E+03    0.49330E-02   -0.49813E-03  4600   0.966E-02    0.105E-01
DAV:  15    -0.927049991569E+03    0.70031E-03   -0.15896E-03  4504   0.460E-02    0.541E-02
DAV:  16    -0.927050227715E+03   -0.23615E-03   -0.77910E-04  4592   0.348E-02    0.552E-02
DAV:  17    -0.927049783576E+03    0.44414E-03   -0.49231E-04  4560   0.259E-02    0.151E-02
DAV:  18    -0.927049766416E+03    0.17160E-04   -0.15504E-04  4328   0.983E-03    0.893E-03
DAV:  19    -0.927049760643E+03    0.57736E-05   -0.21749E-05  3168   0.540E-03
   1 F= -.92704976E+03 E0= -.92699730E+03  d E =-.104915E+00
