Li                                      
           1
    21.217000    0.000000    0.000000
     0.000000   21.217000    0.000000
    -0.000000   -0.000000   21.217000
   Li
   500
Direct configuration=     1
   0.00803435  0.99642047  0.00756110
   0.00367133  0.10975473  0.09624082
   0.99702359  0.19868360  0.20287055
   0.00101083  0.30123077  0.29933229
   0.99533135  0.39896863  0.40393658
   0.99203076  0.50362970  0.49750212
   0.00681989  0.60602647  0.61257578
   0.99847937  0.69407181  0.70655625
   0.99736674  0.81352139  0.81169734
   0.99265712  0.91280701  0.91704969
   0.10512910  0.99117020  0.10507685
   0.11076144  0.10130901  0.19016819
   0.11325933  0.19238961  0.29336888
   0.09036945  0.30659050  0.39362082
   0.10392375  0.39834796  0.49001652
   0.10797340  0.49485098  0.59572066
   0.11370599  0.59967449  0.70590809
   0.10548981  0.69700247  0.79998711
   0.10991542  0.79663161  0.91322500
   0.10135275  0.89311378  0.99282626
   0.19994178  0.00975369  0.19093325
   0.20461562  0.11601279  0.30180257
   0.20684672  0.21127148  0.40228357
   0.20683001  0.29726134  0.50055948
   0.20095381  0.38379166  0.60471456
   0.20849397  0.49485199  0.70326745
   0.20770600  0.59918927  0.79962061
   0.21551174  0.69937126  0.91158698
   0.21751968  0.80076809  0.01449905
   0.19933404  0.89567647  0.10080121
   0.29302017  0.00988574  0.30216367
   0.31481562  0.10319937  0.40140366
   0.32157667  0.21453423  0.48184625
   0.30536272  0.28913705  0.62038858
   0.30884968  0.40266279  0.71280444
   0.27597050  0.48125615  0.80817696
   0.30022146  0.60810787  0.90914579
   0.30709470  0.69016171  0.99943347
   0.29371541  0.79758123  0.09407847
   0.29146075  0.90573674  0.19903596
   0.39908565  0.99848024  0.41441568
   0.39270968  0.10451231  0.50549228
   0.39981599  0.19419704  0.58933857
   0.39485935  0.30323895  0.69428799
   0.39877949  0.40072479  0.81146725
   0.40334727  0.50326383  0.91718549
   0.40822112  0.60043325  0.99092865
   0.40413710  0.69860696  0.10738156
   0.38702314  0.80482568  0.19695895
   0.38906239  0.90948930  0.30595738
   0.50282542  0.00922797  0.50963884
   0.49689194  0.10560695  0.60553859
   0.49428076  0.20392790  0.70319886
   0.50763950  0.30036876  0.78604152
   0.49541714  0.40627150  0.90806895
   0.52110295  0.51310098  0.01172883
   0.49452931  0.61743652  0.10508606
   0.49318790  0.70297085  0.20861934
   0.48015026  0.80531167  0.30516434
   0.48643643  0.90856884  0.40221252
   0.58674148  0.01666462  0.59354796
   0.61513459  0.09912513  0.69912048
   0.60891034  0.21193767  0.79939068
   0.59601603  0.30387752  0.90467797
   0.58727973  0.39303235  0.00242950
   0.60353691  0.50648284  0.10702809
   0.60539640  0.61007740  0.20715264
   0.59420331  0.70693955  0.30179056
   0.59142376  0.81219779  0.39148374
   0.58444331  0.90530539  0.51293711
   0.69932102  0.01078395  0.67880575
   0.70440960  0.09744569  0.79395456
   0.68707644  0.20052748  0.89800217
   0.70724601  0.29539597  0.00265914
   0.68960457  0.42167181  0.10025297
   0.69672446  0.51363331  0.21538165
   0.70155929  0.60728393  0.31495075
   0.69443695  0.70357326  0.42289023
   0.69355639  0.80527220  0.49014533
   0.70147664  0.91443449  0.61281832
   0.80036579  0.01429277  0.79535356
   0.78068061  0.08916749  0.90757281
   0.78377424  0.19308352  0.99516208
   0.78930446  0.30016906  0.08574828
   0.80530500  0.40510287  0.18356935
   0.81883950  0.49116737  0.30467689
   0.81335827  0.59774549  0.39766752
   0.81388943  0.70515583  0.50214465
   0.79430623  0.80839366  0.59381797
   0.81689046  0.90140632  0.69336970
   0.89759822  0.00472226  0.91204641
   0.89701274  0.09338753  0.01488311
   0.89643021  0.21126098  0.09847219
   0.89631456  0.29915362  0.20249121
   0.89137963  0.39715229  0.29714282
   0.90150733  0.51221010  0.39754573
   0.91551227  0.60800428  0.51949201
   0.89939384  0.72078425  0.59905712
   0.90737328  0.81141436  0.70444446
   0.89165896  0.90966282  0.82405254
   0.10213386  0.09979880  0.02143430
   0.10322227  0.23227682  0.09841340
   0.10353041  0.28134096  0.20889320
   0.10304296  0.39765475  0.28744698
   0.10061891  0.50088460  0.39932268
   0.11229434  0.59232335  0.51591532
   0.10268857  0.70019003  0.60190555
   0.09724669  0.80881731  0.71986278
   0.10491151  0.90727547  0.82657829
   0.10066619  0.99395012  0.89505973
   0.19809834  0.11226987  0.09226115
   0.21644254  0.20179385  0.19993374
   0.20645275  0.29679753  0.30609403
   0.21179295  0.40077766  0.40081622
   0.20376749  0.47952088  0.49952897
   0.20415933  0.59313774  0.59619707
   0.21667151  0.70452687  0.68680136
   0.20768450  0.81182660  0.80045679
   0.21465015  0.89475496  0.90814529
   0.19126255  0.99109885  0.00750447
   0.30547584  0.09841767  0.18903800
   0.29946437  0.19757056  0.28682952
   0.30814281  0.29567756  0.38057317
   0.29902727  0.38768111  0.48049867
   0.30320653  0.47983832  0.58842798
   0.29940939  0.58964313  0.68104871
   0.29431007  0.71634281  0.79001888
   0.31520507  0.80028645  0.89914693
   0.30331488  0.90253449  0.99533468
   0.29058251  0.00844004  0.08943346
   0.40122080  0.09891093  0.29072315
   0.40404840  0.20368895  0.37922314
   0.40372211  0.30877977  0.48694071
   0.38979107  0.40009717  0.60290663
   0.39738312  0.48713441  0.70026540
   0.38369984  0.59398130  0.80616680
   0.39960907  0.70131183  0.89680901
   0.39295397  0.80542870  0.01008414
   0.38800766  0.90921588  0.10233649
   0.40138485  0.99212995  0.19360242
   0.48720143  0.10721683  0.39986347
   0.48490983  0.21030070  0.49212797
   0.50824802  0.29945874  0.59910889
   0.49254852  0.38380385  0.70246504
   0.49394015  0.49954857  0.79491103
   0.50036078  0.61386546  0.89387357
   0.49121894  0.70273179  0.98126627
   0.48773981  0.79842516  0.09929419
   0.49386267  0.89952682  0.20425334
   0.49300667  0.00518389  0.30718148
   0.57989061  0.10938850  0.48597087
   0.60293543  0.19237212  0.60971587
   0.61478298  0.30748145  0.70355872
   0.59473949  0.39659923  0.79438609
   0.59640186  0.49629941  0.89197520
   0.60077507  0.61772064  0.98122454
   0.59734657  0.71518092  0.10133036
   0.59578277  0.80310178  0.22036760
   0.60355164  0.90738292  0.30932377
   0.59629276  0.00515913  0.40717076
   0.69186390  0.09881257  0.59326649
   0.70860430  0.20245120  0.69440907
   0.71319493  0.29390864  0.81985003
   0.68791532  0.39617746  0.91294646
   0.67835556  0.49888441  0.99119402
   0.69337383  0.59933138  0.09234677
   0.69483449  0.70541420  0.19929573
   0.70165149  0.79716336  0.31121479
   0.70158865  0.89494449  0.39031945
   0.69708424  0.99981688  0.49482029
   0.78390278  0.11271716  0.69067597
   0.80767267  0.19790953  0.80522497
   0.79837989  0.28305761  0.90655193
   0.80401147  0.40683590  0.00042833
   0.78692934  0.50444623  0.09212662
   0.79921055  0.60221072  0.18351825
   0.81516519  0.68323770  0.29851024
   0.80175489  0.78353534  0.38884533
   0.79966595  0.89438391  0.49008554
   0.80123812  0.00384189  0.59241544
   0.89791336  0.09714247  0.81707540
   0.90221403  0.18089651  0.90947086
   0.89113447  0.28997762  0.99249546
   0.89662664  0.40391221  0.07780701
   0.90128342  0.50080955  0.19005933
   0.90813983  0.59004985  0.28436752
   0.92930645  0.69209329  0.40818277
   0.91112546  0.80670697  0.49639146
   0.90233308  0.90255076  0.60516388
   0.89054135  0.01440883  0.70140122
   0.00541592  0.08807994  0.90434401
   0.99428335  0.19158472  0.99532622
   0.99000421  0.30718181  0.09924422
   0.00020984  0.39704326  0.19534594
   0.98204914  0.49223132  0.29860729
   0.99261227  0.58427939  0.40675803
   0.01779730  0.69882964  0.50741524
   0.00436576  0.80657455  0.59413893
   0.98135066  0.90843146  0.71318550
   0.99378753  0.99305617  0.80174062
   0.19315118  0.20687610  0.00250578
   0.21973165  0.30748068  0.09803334
   0.20919644  0.39731012  0.19047583
   0.21207596  0.48280741  0.28809477
   0.20856284  0.58683369  0.39734174
   0.20216084  0.69455780  0.49345871
   0.20508480  0.78687340  0.59081034
   0.20622304  0.89979136  0.70431926
   0.22142547  0.98696226  0.81428239
   0.20018134  0.10161460  0.90140820
   0.30640492  0.19636379  0.09008978
   0.31378724  0.30238412  0.19504881
   0.30054102  0.39925220  0.29614522
   0.30605791  0.49090295  0.39728672
   0.28863902  0.59666311  0.50542745
   0.30389102  0.68789800  0.58323634
   0.31295413  0.80368437  0.69356113
   0.31954346  0.89882833  0.79770397
   0.31097489  0.01036218  0.91048662
   0.29525145  0.10888001  0.00760570
   0.39293847  0.19540386  0.20215384
   0.39391065  0.30241119  0.27838786
   0.39999662  0.40156517  0.37540387
   0.38088195  0.48059233  0.48652200
   0.39903099  0.58474128  0.57908046
   0.39048236  0.68484991  0.68842625
   0.40436351  0.80087145  0.78277155
   0.40458881  0.90812120  0.91398023
   0.40074545  0.01819592  0.00352417
   0.39966264  0.10624575  0.09402593
   0.49988413  0.19835148  0.29648650
   0.48528574  0.31314385  0.38258940
   0.50722777  0.39903667  0.50119425
   0.49769478  0.49437532  0.58928038
   0.50398855  0.60392272  0.69910873
   0.50186839  0.69619746  0.79555986
   0.50562637  0.80420941  0.88617672
   0.50639750  0.89639932  0.00384199
   0.50468670  0.00796866  0.10380075
   0.49734140  0.10192633  0.19861733
   0.59923635  0.20736705  0.40899456
   0.59719421  0.30962293  0.50816508
   0.59821140  0.40045714  0.61135084
   0.59908613  0.50230962  0.68980271
   0.60975362  0.59784756  0.80996407
   0.60918822  0.70819916  0.90809594
   0.59038126  0.79153944  0.00213672
   0.59017161  0.88271057  0.11255437
   0.60126037  0.01086343  0.21647987
   0.60542669  0.10305288  0.31063311
   0.69012178  0.21032688  0.50315334
   0.70264581  0.29215200  0.60744915
   0.70913173  0.40190765  0.71446486
   0.69782961  0.49763012  0.80599889
   0.70473953  0.60673751  0.90905026
   0.69804888  0.71213033  0.00788221
   0.69500259  0.79943351  0.11637429
   0.70150170  0.90600329  0.22129160
   0.70950132  0.00523273  0.31354126
   0.72410213  0.10133103  0.41380258
   0.79266899  0.19787407  0.59915552
   0.80703573  0.29242122  0.71192790
   0.80131341  0.40622087  0.81994140
   0.80066419  0.51778854  0.90470318
   0.78888221  0.59799596  0.00856416
   0.79628683  0.70367068  0.10618996
   0.79932466  0.80593082  0.20403959
   0.81343128  0.90629716  0.30208050
   0.81079231  0.00661932  0.41155879
   0.80659382  0.10547969  0.50967002
   0.89978567  0.19406450  0.71449128
   0.89497508  0.29297961  0.80564044
   0.89361009  0.39932261  0.89986361
   0.90144626  0.51176283  0.00285472
   0.91460868  0.59984954  0.09743332
   0.89248048  0.70941409  0.19672870
   0.91257189  0.80312306  0.31255722
   0.92031701  0.90643566  0.42397011
   0.91425436  0.99252952  0.51261914
   0.90170560  0.09000346  0.60741196
   0.99244195  0.19382605  0.80866831
   0.99356517  0.29857365  0.89235803
   0.00061531  0.40619895  0.99116723
   0.00713333  0.50199265  0.09345562
   0.00499278  0.59337066  0.19900724
   0.00529046  0.67950596  0.30862975
   0.01250590  0.78610643  0.42201647
   0.01061897  0.89705413  0.51115561
   0.00283371  0.99001711  0.61778197
   0.99583753  0.09081748  0.70240341
   0.08322142  0.19226918  0.90033453
   0.08655663  0.30593961  0.99164873
   0.09396501  0.39787543  0.10338798
   0.09250460  0.49493453  0.20205127
   0.09842740  0.57391169  0.29317691
   0.09615531  0.67099238  0.40631209
   0.10978864  0.80489266  0.51139160
   0.09571782  0.89886916  0.60324791
   0.10562824  0.98357685  0.70873065
   0.11237319  0.09231441  0.80358706
   0.29874632  0.30511361  0.98887424
   0.30508981  0.40193247  0.09306161
   0.31170912  0.50321752  0.19538757
   0.30560293  0.59675059  0.29778519
   0.29756749  0.69517850  0.40760791
   0.28879468  0.80328748  0.50121859
   0.29849995  0.88771777  0.59684521
   0.30923028  0.01030049  0.68925187
   0.29810219  0.10590712  0.79748139
   0.30074650  0.21224168  0.90356518
   0.38967465  0.30694809  0.10326307
   0.39853125  0.40659223  0.20183352
   0.39896525  0.49656428  0.29288940
   0.39882408  0.58486826  0.39864952
   0.40562322  0.70483313  0.48951473
   0.39981964  0.79151234  0.58877235
   0.41682397  0.90585700  0.68501395
   0.40986073  0.01522705  0.79489982
   0.41594169  0.11504787  0.89978173
   0.40394040  0.21326041  0.99448067
   0.50215550  0.29731202  0.18947350
   0.51361302  0.39765393  0.28379385
   0.49843136  0.47701837  0.39470140
   0.49042988  0.58038164  0.48815355
   0.49904509  0.67725973  0.59027915
   0.50335722  0.77580457  0.68178330
   0.50083234  0.89641834  0.79001700
   0.51012156  0.99314279  0.90707127
   0.49870385  0.10752540  0.99412683
   0.49940704  0.20284054  0.09189577
   0.61206713  0.29420729  0.29363635
   0.59917786  0.39378671  0.38718224
   0.60806981  0.48690391  0.49986183
   0.60082537  0.60141465  0.59504239
   0.62505912  0.69664905  0.70319837
   0.59695410  0.80178344  0.79512397
   0.59880172  0.89332584  0.89035960
   0.57894297  0.99668043  0.99514752
   0.59100213  0.10517491  0.09748740
   0.60803775  0.19084352  0.21401157
   0.70187133  0.31967654  0.40400640
   0.70246726  0.39345003  0.49977850
   0.71878660  0.50528819  0.60009645
   0.69554906  0.59284161  0.69901647
   0.69723700  0.69753019  0.80275397
   0.70201321  0.81326435  0.88989742
   0.69121629  0.89593346  0.00888283
   0.68176215  0.99309299  0.10460364
   0.69591261  0.09511115  0.18695037
   0.70767739  0.18614490  0.32512935
   0.80667375  0.29630910  0.49752858
   0.78630282  0.38977423  0.60577057
   0.79992729  0.51082254  0.70102308
   0.79817916  0.60233498  0.79216103
   0.78857879  0.69889485  0.90571812
   0.78896248  0.81064892  0.00665022
   0.79740426  0.90868576  0.10463590
   0.80593787  0.00561719  0.19100940
   0.81026015  0.08745764  0.30484863
   0.81072182  0.19980348  0.42401302
   0.90741640  0.29415502  0.61697714
   0.89959385  0.39405244  0.70522710
   0.89690546  0.49974997  0.79139514
   0.90054990  0.59058706  0.88612280
   0.88257811  0.69880666  0.00180432
   0.90438941  0.79500819  0.08949631
   0.90824696  0.88017894  0.18854104
   0.89999459  0.99223473  0.30374311
   0.90059794  0.09797073  0.40918132
   0.90563403  0.20056326  0.50697158
   0.98843551  0.30839681  0.70718267
   0.99135939  0.40517460  0.79659128
   0.99975125  0.50723110  0.89026855
   0.00734621  0.59676658  0.00241058
   0.01149880  0.69456443  0.09584497
   0.01994471  0.80655616  0.20498433
   0.00388649  0.89139299  0.30255106
   0.01128864  0.00006772  0.40212686
   0.00027045  0.09625028  0.49651224
   0.00551139  0.20131027  0.60726339
   0.08304067  0.28997237  0.80565800
   0.07844251  0.39415884  0.90633277
   0.10129907  0.49794004  0.98745063
   0.11325609  0.59546969  0.09728968
   0.11083945  0.69014650  0.19303308
   0.09954421  0.78979642  0.29841993
   0.09884698  0.90084780  0.40939585
   0.09693532  0.01042535  0.51375416
   0.09949910  0.09129442  0.62580977
   0.10180723  0.19706323  0.70753627
   0.20300680  0.31143641  0.91403271
   0.18205960  0.40311409  0.99430784
   0.19464298  0.50406631  0.09740044
   0.21009881  0.58298493  0.21018099
   0.19071766  0.68530013  0.30266171
   0.19827952  0.78269976  0.39776905
   0.18651723  0.90915205  0.49730826
   0.18573041  0.99696335  0.60635778
   0.21323147  0.09523716  0.70840496
   0.19921186  0.20836214  0.80864107
   0.39523822  0.40437147  0.01063969
   0.40672607  0.51338334  0.09143981
   0.40682215  0.60101424  0.19273672
   0.39621978  0.68982646  0.30276719
   0.39376393  0.79989864  0.39842465
   0.38268082  0.90461350  0.50035041
   0.38568470  0.02090047  0.59052259
   0.40174705  0.11590735  0.69853669
   0.39622040  0.21319101  0.81111345
   0.39815589  0.29574561  0.90170434
   0.50093097  0.40252148  0.10585040
   0.51095492  0.49732607  0.19021040
   0.49142215  0.59066771  0.29573200
   0.51036385  0.69789523  0.39631314
   0.49224405  0.79974470  0.50495733
   0.48791864  0.90326242  0.58454438
   0.48884809  0.00013445  0.68526113
   0.51128051  0.10371616  0.79644345
   0.51016011  0.20407312  0.89631564
   0.49582302  0.29270139  0.00121598
   0.61391617  0.39490168  0.19949168
   0.60037813  0.50195147  0.28809019
   0.59379129  0.59177221  0.39208355
   0.59813519  0.69791841  0.49640682
   0.59828308  0.79438191  0.58910988
   0.58617130  0.89583766  0.67600339
   0.59016498  0.99888762  0.77855914
   0.59595063  0.09038145  0.90780825
   0.59641096  0.19963481  0.99272923
   0.60384424  0.28933103  0.09093665
   0.70865734  0.40889843  0.29053378
   0.69867885  0.48248590  0.39770367
   0.70722825  0.58422871  0.49433073
   0.70381419  0.69063943  0.57815689
   0.70164841  0.80634404  0.68587915
   0.69680962  0.90727863  0.78569856
   0.69046260  0.99358126  0.88790173
   0.68941132  0.08960381  0.99391044
   0.69442069  0.20080502  0.09975937
   0.70124786  0.29043925  0.19355265
   0.80267278  0.40209609  0.40340396
   0.79770846  0.49355482  0.49534366
   0.80556781  0.60934619  0.60479300
   0.81777261  0.70926149  0.69260097
   0.78832649  0.81168890  0.79110408
   0.78526828  0.90193178  0.89911673
   0.79653841  0.99858201  0.00043983
   0.78973547  0.09840112  0.08985626
   0.80695082  0.20521710  0.19431443
   0.78705695  0.30673086  0.29923970
   0.89441761  0.39214550  0.49742945
   0.89024274  0.47307882  0.60356943
   0.90177986  0.60302103  0.70404799
   0.89109374  0.70537735  0.78620347
   0.88591933  0.79067697  0.89443156
   0.89027141  0.90293301  0.00357842
   0.90047952  0.99665273  0.09931633
   0.89691392  0.10960769  0.19342614
   0.88389008  0.19976165  0.30007463
   0.90375142  0.30062197  0.39449772
   0.00024145  0.38712543  0.59548360
   0.99765814  0.50260256  0.69496571
   0.99902912  0.60135727  0.80194963
   0.00378698  0.69534925  0.89790988
   0.00181699  0.80079279  0.00054911
   0.99503723  0.89244952  0.11155244
   0.00233684  0.99048853  0.18877087
   0.99052233  0.09214508  0.28506832
   0.00812756  0.20456798  0.38407902
   0.99545137  0.30319442  0.50497744
   0.09238237  0.40433956  0.69526273
   0.11204719  0.50148450  0.78170445
   0.10088612  0.59719468  0.89658493
   0.10830604  0.69476834  0.99561954
   0.09854654  0.79934697  0.10000663
   0.11713475  0.91242419  0.20156723
   0.11056867  0.00415455  0.28921608
   0.09600095  0.10924109  0.40399886
   0.09194863  0.20138329  0.50597108
   0.09553691  0.29854859  0.60662992
   0.18562648  0.38593342  0.81028797
   0.18795157  0.49376823  0.91369681
   0.19715270  0.59288656  0.00391856
   0.20587855  0.70286321  0.10018741
   0.19829970  0.80108693  0.21816150
   0.20351063  0.90453254  0.29981386
   0.18431263  0.01534634  0.40132274
   0.19221184  0.11530566  0.49281426
   0.19515788  0.21058316  0.60098240
   0.19208015  0.30374458  0.71309594
   0.29322454  0.40968360  0.89620211
   0.29356518  0.50203070  0.99961743
   0.28891818  0.60197624  0.08962831
   0.30102784  0.69384263  0.20261567
   0.29954845  0.80206750  0.30410059
   0.28367427  0.89980210  0.40374641
   0.27916269  0.01271039  0.50446792
   0.28120551  0.11459582  0.59045989
   0.30004951  0.20063414  0.71152368
   0.29764544  0.29974800  0.80713983
