 500 500   0   0
  0.2349479E+02  0.2273250E-08  0.2273250E-08  0.2273250E-08  0.5000000E-15
  1.000000000000000E-004
  CAR 
 Li                                      
      2.82912118     -3.59085413  301      0.03455608      1.00000000
     -3.591  0.0000E+00  0.0000E+00
     -3.569  0.0000E+00  0.0000E+00
     -3.548  0.0000E+00  0.0000E+00
     -3.527  0.0000E+00  0.0000E+00
     -3.505  0.0000E+00  0.0000E+00
     -3.484  0.0000E+00  0.0000E+00
     -3.462  0.2594E-13  0.5551E-15
     -3.441  0.6592E-10  0.1411E-11
     -3.420  0.5818E-07  0.1246E-08
     -3.398  0.1899E-04  0.4077E-06
     -3.377  0.2308E-02  0.4980E-04
     -3.355  0.1054E+00  0.2306E-02
     -3.334  0.1829E+01  0.4146E-01
     -3.313  0.1222E+02  0.3029E+00
     -3.291  0.3178E+02  0.9830E+00
     -3.270  0.3242E+02  0.1677E+01
     -3.248  0.1315E+02  0.1958E+01
     -3.227  0.5526E+01  0.2076E+01
     -3.206  0.2659E+02  0.2645E+01
     -3.184  0.8141E+02  0.4388E+01
     -3.163  0.1029E+03  0.6590E+01
     -3.141  0.5361E+02  0.7737E+01
     -3.120  0.1330E+02  0.8022E+01
     -3.099  0.1922E+02  0.8433E+01
     -3.077  0.6911E+02  0.9912E+01
     -3.056  0.1061E+03  0.1218E+02
     -3.034  0.6646E+02  0.1360E+02
     -3.013  0.1911E+02  0.1401E+02
     -2.992  0.2070E+02  0.1446E+02
     -2.970  0.7081E+02  0.1597E+02
     -2.949  0.1242E+03  0.1863E+02
     -2.927  0.1059E+03  0.2090E+02
     -2.906  0.4490E+02  0.2186E+02
     -2.885  0.2597E+02  0.2241E+02
     -2.863  0.7929E+02  0.2411E+02
     -2.842  0.1640E+03  0.2762E+02
     -2.820  0.1731E+03  0.3132E+02
     -2.799  0.9483E+02  0.3335E+02
     -2.778  0.2983E+02  0.3399E+02
     -2.756  0.2805E+02  0.3459E+02
     -2.735  0.7653E+02  0.3623E+02
     -2.713  0.1021E+03  0.3841E+02
     -2.692  0.5892E+02  0.3967E+02
     -2.671  0.2041E+02  0.4011E+02
     -2.649  0.4194E+02  0.4101E+02
     -2.628  0.1212E+03  0.4360E+02
     -2.606  0.1802E+03  0.4746E+02
     -2.585  0.1423E+03  0.5051E+02
     -2.564  0.6581E+02  0.5191E+02
     -2.542  0.5824E+02  0.5316E+02
     -2.521  0.1414E+03  0.5619E+02
     -2.499  0.2285E+03  0.6108E+02
     -2.478  0.2224E+03  0.6584E+02
     -2.457  0.1362E+03  0.6875E+02
     -2.435  0.5306E+02  0.6989E+02
     -2.414  0.3809E+02  0.7070E+02
     -2.392  0.8378E+02  0.7249E+02
     -2.371  0.1003E+03  0.7464E+02
     -2.350  0.5260E+02  0.7577E+02
     -2.328  0.2439E+02  0.7629E+02
     -2.307  0.6634E+02  0.7771E+02
     -2.285  0.1575E+03  0.8108E+02
     -2.264  0.2048E+03  0.8546E+02
     -2.243  0.1482E+03  0.8863E+02
     -2.221  0.6691E+02  0.9006E+02
     -2.200  0.7101E+02  0.9158E+02
     -2.178  0.1563E+03  0.9493E+02
     -2.157  0.2300E+03  0.9985E+02
     -2.136  0.2143E+03  0.1044E+03
     -2.114  0.1233E+03  0.1071E+03
     -2.093  0.5290E+02  0.1082E+03
     -2.071  0.7414E+02  0.1098E+03
     -2.050  0.1535E+03  0.1131E+03
     -2.029  0.1770E+03  0.1169E+03
     -2.007  0.1141E+03  0.1193E+03
     -1.986  0.7272E+02  0.1209E+03
     -1.964  0.1214E+03  0.1235E+03
     -1.943  0.1955E+03  0.1276E+03
     -1.922  0.2177E+03  0.1323E+03
     -1.900  0.1687E+03  0.1359E+03
     -1.879  0.8945E+02  0.1378E+03
     -1.857  0.8138E+02  0.1396E+03
     -1.836  0.1727E+03  0.1433E+03
     -1.815  0.2520E+03  0.1487E+03
     -1.793  0.2116E+03  0.1532E+03
     -1.772  0.1050E+03  0.1554E+03
     -1.750  0.5504E+02  0.1566E+03
     -1.729  0.9858E+02  0.1587E+03
     -1.708  0.1652E+03  0.1623E+03
     -1.686  0.1595E+03  0.1657E+03
     -1.665  0.9288E+02  0.1677E+03
     -1.643  0.6340E+02  0.1690E+03
     -1.622  0.1005E+03  0.1712E+03
     -1.601  0.1446E+03  0.1743E+03
     -1.579  0.1420E+03  0.1773E+03
     -1.558  0.9894E+02  0.1794E+03
     -1.536  0.9005E+02  0.1813E+03
     -1.515  0.1805E+03  0.1852E+03
     -1.494  0.3018E+03  0.1917E+03
     -1.472  0.3451E+03  0.1990E+03
     -1.451  0.2849E+03  0.2051E+03
     -1.429  0.1741E+03  0.2089E+03
     -1.408  0.1225E+03  0.2115E+03
     -1.387  0.1819E+03  0.2154E+03
     -1.365  0.2439E+03  0.2206E+03
     -1.344  0.2049E+03  0.2250E+03
     -1.322  0.1137E+03  0.2274E+03
     -1.301  0.6935E+02  0.2289E+03
     -1.280  0.1020E+03  0.2311E+03
     -1.258  0.1653E+03  0.2346E+03
     -1.237  0.1858E+03  0.2386E+03
     -1.215  0.1480E+03  0.2418E+03
     -1.194  0.1523E+03  0.2450E+03
     -1.173  0.2225E+03  0.2498E+03
     -1.151  0.2689E+03  0.2555E+03
     -1.130  0.2528E+03  0.2610E+03
     -1.108  0.1648E+03  0.2645E+03
     -1.087  0.6440E+02  0.2659E+03
     -1.066  0.3881E+02  0.2667E+03
     -1.044  0.7754E+02  0.2684E+03
     -1.023  0.9855E+02  0.2705E+03
     -1.001  0.7696E+02  0.2721E+03
     -0.980  0.9719E+02  0.2742E+03
     -0.959  0.1890E+03  0.2782E+03
     -0.937  0.2822E+03  0.2843E+03
     -0.916  0.3182E+03  0.2911E+03
     -0.894  0.2974E+03  0.2974E+03
     -0.873  0.2550E+03  0.3029E+03
     -0.852  0.2264E+03  0.3077E+03
     -0.830  0.2415E+03  0.3129E+03
     -0.809  0.2913E+03  0.3192E+03
     -0.787  0.3008E+03  0.3256E+03
     -0.766  0.2376E+03  0.3307E+03
     -0.745  0.1696E+03  0.3343E+03
     -0.723  0.1373E+03  0.3372E+03
     -0.702  0.1295E+03  0.3400E+03
     -0.680  0.1265E+03  0.3427E+03
     -0.659  0.1213E+03  0.3453E+03
     -0.638  0.1599E+03  0.3487E+03
     -0.616  0.2166E+03  0.3534E+03
     -0.595  0.2344E+03  0.3584E+03
     -0.573  0.2130E+03  0.3629E+03
     -0.552  0.1607E+03  0.3664E+03
     -0.531  0.1241E+03  0.3690E+03
     -0.509  0.1825E+03  0.3729E+03
     -0.488  0.2821E+03  0.3790E+03
     -0.466  0.3265E+03  0.3860E+03
     -0.445  0.2992E+03  0.3924E+03
     -0.424  0.2273E+03  0.3972E+03
     -0.402  0.1917E+03  0.4013E+03
     -0.381  0.2127E+03  0.4059E+03
     -0.359  0.2152E+03  0.4105E+03
     -0.338  0.1654E+03  0.4140E+03
     -0.317  0.1117E+03  0.4164E+03
     -0.295  0.1377E+03  0.4194E+03
     -0.274  0.2196E+03  0.4241E+03
     -0.252  0.2796E+03  0.4301E+03
     -0.231  0.3007E+03  0.4365E+03
     -0.210  0.2681E+03  0.4422E+03
     -0.188  0.2168E+03  0.4469E+03
     -0.167  0.2305E+03  0.4518E+03
     -0.145  0.2650E+03  0.4575E+03
     -0.124  0.2284E+03  0.4624E+03
     -0.103  0.1450E+03  0.4655E+03
     -0.081  0.1293E+03  0.4682E+03
     -0.060  0.2157E+03  0.4728E+03
     -0.038  0.2971E+03  0.4792E+03
     -0.017  0.3165E+03  0.4860E+03
      0.004  0.2961E+03  0.4923E+03
      0.026  0.2613E+03  0.4979E+03
      0.047  0.2296E+03  0.5028E+03
      0.069  0.2107E+03  0.5073E+03
      0.090  0.2082E+03  0.5118E+03
      0.111  0.2300E+03  0.5167E+03
      0.133  0.2698E+03  0.5225E+03
      0.154  0.2973E+03  0.5288E+03
      0.176  0.3211E+03  0.5357E+03
      0.197  0.3582E+03  0.5434E+03
      0.218  0.3798E+03  0.5515E+03
      0.240  0.3715E+03  0.5595E+03
      0.261  0.3571E+03  0.5671E+03
      0.283  0.3409E+03  0.5744E+03
      0.304  0.3174E+03  0.5812E+03
      0.325  0.2822E+03  0.5872E+03
      0.347  0.2356E+03  0.5923E+03
      0.368  0.2120E+03  0.5968E+03
      0.390  0.2309E+03  0.6017E+03
      0.411  0.2539E+03  0.6072E+03
      0.432  0.2274E+03  0.6120E+03
      0.454  0.1708E+03  0.6157E+03
      0.475  0.1529E+03  0.6190E+03
      0.497  0.1703E+03  0.6226E+03
      0.518  0.1874E+03  0.6266E+03
      0.539  0.1866E+03  0.6306E+03
      0.561  0.1679E+03  0.6342E+03
      0.582  0.1688E+03  0.6378E+03
      0.604  0.1955E+03  0.6420E+03
      0.625  0.2205E+03  0.6467E+03
      0.646  0.2390E+03  0.6518E+03
      0.668  0.2578E+03  0.6574E+03
      0.689  0.2768E+03  0.6633E+03
      0.711  0.2961E+03  0.6696E+03
      0.732  0.3120E+03  0.6763E+03
      0.753  0.3222E+03  0.6832E+03
      0.775  0.3256E+03  0.6902E+03
      0.796  0.3157E+03  0.6969E+03
      0.818  0.2981E+03  0.7033E+03
      0.839  0.2769E+03  0.7092E+03
      0.860  0.2324E+03  0.7142E+03
      0.882  0.1867E+03  0.7182E+03
      0.903  0.1805E+03  0.7221E+03
      0.925  0.2052E+03  0.7264E+03
      0.946  0.2382E+03  0.7315E+03
      0.967  0.2622E+03  0.7372E+03
      0.989  0.2708E+03  0.7429E+03
      1.010  0.2641E+03  0.7486E+03
      1.032  0.2512E+03  0.7540E+03
      1.053  0.2382E+03  0.7591E+03
      1.074  0.2185E+03  0.7637E+03
      1.096  0.1912E+03  0.7678E+03
      1.117  0.1554E+03  0.7712E+03
      1.139  0.1387E+03  0.7741E+03
      1.160  0.1502E+03  0.7773E+03
      1.181  0.1537E+03  0.7806E+03
      1.203  0.1348E+03  0.7835E+03
      1.224  0.1188E+03  0.7861E+03
      1.246  0.1200E+03  0.7886E+03
      1.267  0.1210E+03  0.7912E+03
      1.288  0.1397E+03  0.7942E+03
      1.310  0.1814E+03  0.7981E+03
      1.331  0.2146E+03  0.8027E+03
      1.353  0.2355E+03  0.8077E+03
      1.374  0.2506E+03  0.8131E+03
      1.395  0.2582E+03  0.8186E+03
      1.417  0.2684E+03  0.8244E+03
      1.438  0.2743E+03  0.8302E+03
      1.460  0.2699E+03  0.8360E+03
      1.481  0.2585E+03  0.8415E+03
      1.502  0.2492E+03  0.8469E+03
      1.524  0.2498E+03  0.8522E+03
      1.545  0.2427E+03  0.8574E+03
      1.567  0.2146E+03  0.8620E+03
      1.588  0.1646E+03  0.8655E+03
      1.609  0.1269E+03  0.8682E+03
      1.631  0.1249E+03  0.8709E+03
      1.652  0.1417E+03  0.8739E+03
      1.674  0.1545E+03  0.8772E+03
      1.695  0.1512E+03  0.8805E+03
      1.716  0.1531E+03  0.8838E+03
      1.738  0.1727E+03  0.8875E+03
      1.759  0.1946E+03  0.8916E+03
      1.781  0.2006E+03  0.8959E+03
      1.802  0.1938E+03  0.9001E+03
      1.823  0.1768E+03  0.9038E+03
      1.845  0.1528E+03  0.9071E+03
      1.866  0.1362E+03  0.9100E+03
      1.888  0.1343E+03  0.9129E+03
      1.909  0.1439E+03  0.9160E+03
      1.930  0.1537E+03  0.9193E+03
      1.952  0.1592E+03  0.9227E+03
      1.973  0.1680E+03  0.9263E+03
      1.995  0.1772E+03  0.9301E+03
      2.016  0.1756E+03  0.9338E+03
      2.037  0.1620E+03  0.9373E+03
      2.059  0.1451E+03  0.9404E+03
      2.080  0.1263E+03  0.9431E+03
      2.102  0.1052E+03  0.9454E+03
      2.123  0.9835E+02  0.9475E+03
      2.144  0.1214E+03  0.9501E+03
      2.166  0.1456E+03  0.9532E+03
      2.187  0.1630E+03  0.9567E+03
      2.209  0.1792E+03  0.9605E+03
      2.230  0.1811E+03  0.9644E+03
      2.251  0.1744E+03  0.9681E+03
      2.273  0.1837E+03  0.9720E+03
      2.294  0.1911E+03  0.9761E+03
      2.316  0.1761E+03  0.9799E+03
      2.337  0.1536E+03  0.9832E+03
      2.358  0.1210E+03  0.9858E+03
      2.380  0.7209E+02  0.9873E+03
      2.401  0.3713E+02  0.9881E+03
      2.423  0.4226E+02  0.9890E+03
      2.444  0.7488E+02  0.9906E+03
      2.465  0.1059E+03  0.9929E+03
      2.487  0.1250E+03  0.9956E+03
      2.508  0.1310E+03  0.9984E+03
      2.530  0.1039E+03  0.1001E+04
      2.551  0.5127E+02  0.1002E+04
      2.572  0.1335E+02  0.1002E+04
      2.594  0.1595E+01  0.1002E+04
      2.615  0.7986E-01  0.1002E+04
      2.637  0.1590E-02  0.1002E+04
      2.658  0.1220E-04  0.1002E+04
      2.679  0.3541E-07  0.1002E+04
      2.701  0.3841E-10  0.1002E+04
      2.722  0.1297E-13  0.1002E+04
      2.744  0.0000E+00  0.1002E+04
      2.765  0.0000E+00  0.1002E+04
      2.786  0.0000E+00  0.1002E+04
      2.808  0.0000E+00  0.1002E+04
      2.829  0.0000E+00  0.1002E+04
