       N       E                     dE             d eps       ncg     rms          rms(c)
DAV:   1    -0.342477258954E+03   -0.34248E+03   -0.11621E+05  4008   0.642E+02
DAV:   2    -0.887316159582E+03   -0.54484E+03   -0.49939E+03  4612   0.628E+01
DAV:   3    -0.926841596850E+03   -0.39525E+02   -0.36162E+02  5192   0.133E+01
DAV:   4    -0.928231635530E+03   -0.13900E+01   -0.13686E+01  4656   0.274E+00
DAV:   5    -0.928263794576E+03   -0.32159E-01   -0.32105E-01  4888   0.442E-01    0.709E+00
DAV:   6    -0.924377433547E+03    0.38864E+01   -0.62574E+00  4608   0.285E+00    0.502E+00
DAV:   7    -0.922927548912E+03    0.14499E+01   -0.51864E+00  4744   0.303E+00    0.404E+00
DAV:   8    -0.920686756327E+03    0.22408E+01   -0.28961E+00  4624   0.177E+00    0.181E+00
DAV:   9    -0.920525838727E+03    0.16092E+00   -0.16799E+00  4392   0.963E-01    0.102E+00
DAV:  10    -0.920545654460E+03   -0.19816E-01   -0.39681E-01  4616   0.556E-01    0.749E-01
DAV:  11    -0.920505593387E+03    0.40061E-01   -0.10697E-01  4584   0.368E-01    0.503E-01
DAV:  12    -0.920490829979E+03    0.14763E-01   -0.25027E-02  4488   0.162E-01    0.219E-01
DAV:  13    -0.920494548066E+03   -0.37181E-02   -0.96380E-03  4728   0.118E-01    0.186E-01
DAV:  14    -0.920490211065E+03    0.43370E-02   -0.61812E-03  4760   0.947E-02    0.816E-02
DAV:  15    -0.920489799693E+03    0.41137E-03   -0.17267E-03  4536   0.431E-02    0.471E-02
DAV:  16    -0.920489736791E+03    0.62902E-04   -0.63374E-04  4552   0.253E-02    0.305E-02
DAV:  17    -0.920489645030E+03    0.91761E-04   -0.21374E-04  4632   0.168E-02    0.182E-02
DAV:  18    -0.920489610263E+03    0.34767E-04   -0.79744E-05  4344   0.805E-03    0.672E-03
DAV:  19    -0.920489609201E+03    0.10612E-05   -0.18917E-05  2936   0.442E-03
   1 F= -.92048961E+03 E0= -.92043754E+03  d E =-.104144E+00
