Li                                      
           1
    22.732500   -0.000000    0.000000
    -0.000000   22.732500    0.000000
     0.000000    0.000000   22.732500
   Li
   500
Direct configuration=     1
   0.98597471  0.99999756  0.99873104
   0.01991901  0.09936049  0.09164418
   0.00507575  0.18865591  0.20314519
   0.99953696  0.28621158  0.29772990
   0.99856055  0.38393325  0.38808883
   0.98310260  0.49535398  0.50231299
   0.97589751  0.58448741  0.60824748
   0.98545084  0.68679754  0.70629012
   0.99222333  0.80385165  0.80374084
   0.99700948  0.91105203  0.89947743
   0.10143498  0.98395548  0.09237606
   0.10734438  0.07718361  0.19631008
   0.11646358  0.17318499  0.27382925
   0.10101369  0.29171621  0.37662855
   0.09395130  0.39305543  0.48502763
   0.10403856  0.51285808  0.60641388
   0.10042519  0.60655524  0.69096776
   0.09389197  0.68929367  0.78469115
   0.10184514  0.79787599  0.88407039
   0.09390009  0.88240886  0.99879908
   0.21546334  0.99211966  0.20134610
   0.21276971  0.09154109  0.29758052
   0.21176781  0.18448370  0.39957029
   0.19327969  0.28880278  0.50942839
   0.19055576  0.41011252  0.60158999
   0.21072639  0.51191205  0.68354422
   0.20103960  0.59943942  0.79465783
   0.20646244  0.70184811  0.89327395
   0.20595888  0.78190846  0.00641813
   0.20521004  0.88953452  0.09297318
   0.31513411  0.00209033  0.32057332
   0.29495092  0.10283629  0.42555589
   0.29765154  0.20613803  0.51725392
   0.29645586  0.29052555  0.59144369
   0.29256538  0.40513199  0.68390267
   0.31768302  0.49119699  0.78563347
   0.31087809  0.60172301  0.89525791
   0.31910194  0.69081853  0.99958147
   0.30492958  0.79346660  0.10441717
   0.30801184  0.91274157  0.20993198
   0.40026024  0.00269745  0.41550412
   0.39465093  0.09712008  0.50899240
   0.39940541  0.19103150  0.61898438
   0.39251633  0.31520993  0.68184805
   0.38464783  0.40126850  0.78825574
   0.40314125  0.49484253  0.89795710
   0.41646194  0.59395948  0.01373579
   0.41282208  0.69739703  0.10545219
   0.40933928  0.82191182  0.20537114
   0.41244415  0.90251098  0.31116298
   0.49752504  0.99047135  0.49499267
   0.51012575  0.08826787  0.58893927
   0.47643639  0.19928606  0.68533923
   0.49618498  0.30167806  0.79561575
   0.48020306  0.39775480  0.89947561
   0.50087138  0.49381425  0.00449722
   0.49780313  0.58680053  0.09589732
   0.51234319  0.70189587  0.20540422
   0.51776646  0.79913683  0.31273151
   0.51322221  0.89390734  0.40197234
   0.59995605  0.00142274  0.59006722
   0.59189989  0.10754370  0.70650062
   0.59750265  0.20705081  0.79828527
   0.59205536  0.28460531  0.90767751
   0.59115264  0.39862987  0.01337720
   0.57269261  0.51112117  0.11206401
   0.60834853  0.61224864  0.18971738
   0.60656282  0.69017200  0.30452070
   0.60548319  0.79180624  0.39715145
   0.61432768  0.90050284  0.49517014
   0.69509266  0.00441915  0.69542160
   0.68065840  0.09546815  0.81776722
   0.68645610  0.20093801  0.90232015
   0.68772332  0.29707930  0.00810067
   0.68829424  0.41482736  0.09967003
   0.71235025  0.50699389  0.18555115
   0.70483423  0.59023998  0.29375804
   0.72556874  0.70581324  0.41180233
   0.70327841  0.80886761  0.51167803
   0.71659376  0.90353411  0.61465574
   0.81169936  0.01037614  0.79806711
   0.80061490  0.09868478  0.90786542
   0.79033997  0.20691210  0.99495780
   0.80673319  0.28604757  0.10096771
   0.80526994  0.41434743  0.19098859
   0.81456082  0.49092011  0.29437542
   0.80370601  0.59919864  0.39980635
   0.79173975  0.71480427  0.48861814
   0.79941926  0.81116910  0.59454152
   0.78803007  0.89324111  0.70880455
   0.89812044  0.00659216  0.90193248
   0.88976270  0.09664676  0.01558760
   0.90172468  0.20365490  0.09327835
   0.89371691  0.28377702  0.19483334
   0.90227294  0.40160098  0.28692181
   0.89330091  0.49188639  0.38683507
   0.87652917  0.60828150  0.49439040
   0.90264280  0.70992820  0.60889841
   0.89377921  0.81247969  0.70648795
   0.89639007  0.91631216  0.81372280
   0.11983756  0.10140515  0.00719458
   0.11139772  0.19207293  0.11352712
   0.11396977  0.29515912  0.19545760
   0.09972349  0.39041747  0.31146433
   0.07946246  0.49272007  0.38836272
   0.09017428  0.60238866  0.47934516
   0.09521556  0.70247971  0.60283986
   0.07241398  0.78709289  0.70598138
   0.09642737  0.89956599  0.80382148
   0.09514536  0.99225963  0.90907030
   0.21497869  0.09086591  0.10324745
   0.22037157  0.18451852  0.20259575
   0.19974510  0.29166307  0.29469619
   0.18993157  0.39243612  0.40762264
   0.18390658  0.51009482  0.48619274
   0.19526419  0.60458731  0.59019851
   0.19150550  0.68826750  0.69452264
   0.18087348  0.79697931  0.78034767
   0.19801572  0.89763503  0.90896021
   0.19714694  0.99014285  0.99351474
   0.31142412  0.08720183  0.19418762
   0.30603655  0.19796795  0.30062549
   0.30162605  0.29350075  0.40261264
   0.30095177  0.40140385  0.49277468
   0.28807480  0.49452727  0.58844018
   0.31050410  0.59477549  0.69214739
   0.30992667  0.70236636  0.79391555
   0.29918749  0.79618760  0.89626735
   0.29763519  0.90039314  0.99463513
   0.30684505  0.99109116  0.10457246
   0.39596090  0.10007377  0.30976217
   0.39492039  0.19795900  0.42168087
   0.40061032  0.30802073  0.50325626
   0.40652030  0.40297323  0.58958698
   0.39549087  0.49944718  0.67916300
   0.41041776  0.60566252  0.79116322
   0.39944680  0.69146222  0.89807407
   0.39647459  0.81279187  0.99930370
   0.40040784  0.90524606  0.09281389
   0.40317474  0.00017647  0.21329119
   0.49614152  0.09862684  0.40496139
   0.50322804  0.19723232  0.50066529
   0.48608845  0.31106587  0.58410725
   0.49394218  0.41356188  0.69453305
   0.48231658  0.50525014  0.79460339
   0.51383641  0.60290984  0.87961730
   0.49616342  0.70412654  0.00872150
   0.50830271  0.79382101  0.09311689
   0.51456867  0.91181014  0.20158321
   0.49344632  0.99970422  0.31571577
   0.60930319  0.10490462  0.49807737
   0.58598555  0.20049677  0.59962487
   0.57980757  0.29722099  0.70494970
   0.59159748  0.39809476  0.79532691
   0.58349338  0.49491287  0.89421807
   0.58176391  0.60615109  0.99516351
   0.59922451  0.69487834  0.09120966
   0.59607985  0.79153081  0.19585715
   0.61639602  0.89481629  0.29870132
   0.60799419  0.00951509  0.40178453
   0.69643967  0.10655960  0.60855028
   0.69161491  0.19218345  0.71128993
   0.69129176  0.29276541  0.79826058
   0.69956681  0.39233751  0.90211637
   0.67968875  0.51088589  0.00117316
   0.68862874  0.59611260  0.08834971
   0.69903371  0.69621836  0.19071326
   0.70210018  0.79637608  0.29114346
   0.70214202  0.90844589  0.39841626
   0.72284568  0.99691943  0.49909878
   0.79525429  0.10040177  0.70744651
   0.80328660  0.18923227  0.80177849
   0.79608103  0.29462987  0.90393017
   0.78947278  0.40216908  0.99415356
   0.81910259  0.50233724  0.10199336
   0.80547786  0.59826713  0.19852585
   0.80605552  0.71080848  0.30506829
   0.80162995  0.82956002  0.39733605
   0.80008983  0.90576961  0.50361230
   0.79361568  0.01751166  0.62077401
   0.90707296  0.10930502  0.80867137
   0.90204019  0.20627782  0.91982762
   0.90783340  0.31587670  0.00015111
   0.91134063  0.40616595  0.09975073
   0.90998059  0.49595606  0.18917122
   0.89697209  0.58861992  0.31014208
   0.89142610  0.72804590  0.39756201
   0.88830224  0.81323311  0.51458050
   0.89486367  0.91893722  0.62062512
   0.92040341  0.99617543  0.70509798
   0.99661635  0.09074064  0.91383431
   0.01434185  0.19820024  0.99734884
   0.00718684  0.28726120  0.11117297
   0.00417035  0.40123117  0.19912995
   0.99282279  0.48944808  0.29350242
   0.99173275  0.61186837  0.39015050
   0.98748789  0.69774906  0.50622719
   0.98606996  0.79818280  0.61866156
   0.98088522  0.89705431  0.71172169
   0.99876220  0.00372322  0.81609408
   0.19759922  0.20331185  0.98974153
   0.19894536  0.28515840  0.09882785
   0.18792674  0.39971346  0.19020302
   0.18220259  0.48453527  0.31184390
   0.19910795  0.58289652  0.40563225
   0.20007421  0.68755657  0.49491122
   0.18672823  0.78500479  0.58855402
   0.17545970  0.89809951  0.69914927
   0.19177187  0.98344265  0.79637981
   0.18293264  0.08535048  0.89319206
   0.30399754  0.19334926  0.09969930
   0.29119805  0.30179975  0.21155427
   0.29540684  0.41078682  0.29886693
   0.29484099  0.51139589  0.39783631
   0.30123088  0.60509277  0.49402127
   0.29987830  0.71068065  0.60366302
   0.29690489  0.80212708  0.70233554
   0.28322896  0.90847298  0.79292515
   0.29645903  0.99495469  0.88000101
   0.29497321  0.08106592  0.99635623
   0.40103644  0.19860949  0.18966947
   0.39450794  0.29709324  0.31936778
   0.40158159  0.40709552  0.38478420
   0.40539257  0.50124680  0.48643710
   0.39718828  0.59867362  0.60030661
   0.40372711  0.71487497  0.68446731
   0.38892211  0.78837489  0.79400841
   0.39230295  0.90417175  0.89869940
   0.38254369  0.99753017  0.99159035
   0.39575342  0.08293953  0.09848872
   0.48231600  0.19612056  0.31580625
   0.50174309  0.32097312  0.40435982
   0.50561999  0.40472206  0.49492402
   0.51646332  0.49604808  0.58813085
   0.50214687  0.60356233  0.68523006
   0.49580069  0.69023182  0.79036406
   0.49150850  0.80786476  0.90763320
   0.50444545  0.90863938  0.99543823
   0.48357926  0.02369557  0.08809097
   0.49496120  0.09750967  0.20931382
   0.59079972  0.21278312  0.39898497
   0.59338129  0.30347146  0.48582375
   0.60585223  0.39457029  0.59698667
   0.60106706  0.48137501  0.70032362
   0.59584109  0.59415671  0.79444003
   0.60241099  0.71243242  0.89001156
   0.61125670  0.80342419  0.98909122
   0.59518167  0.90415176  0.09019075
   0.60553252  0.02002156  0.19464706
   0.59782303  0.09624228  0.31187868
   0.69951700  0.20928347  0.49051188
   0.69240227  0.28327171  0.60055167
   0.69506884  0.38095823  0.69286776
   0.71229134  0.48989852  0.79255046
   0.69104311  0.60721368  0.89991038
   0.71580985  0.69270720  0.00366997
   0.68797715  0.79472505  0.10318157
   0.69272422  0.89965909  0.19668453
   0.71218165  0.99942346  0.30481557
   0.70980590  0.10410909  0.40273871
   0.80540643  0.19740337  0.60312125
   0.79828484  0.28541167  0.69429201
   0.79183386  0.38964129  0.80347170
   0.79249556  0.50617468  0.90501330
   0.81123668  0.59174129  0.99792138
   0.80040564  0.70359044  0.09501152
   0.80225776  0.80372418  0.18788025
   0.79111318  0.89719125  0.29450098
   0.80710391  0.00014893  0.39444279
   0.80504073  0.11028416  0.49616619
   0.91306192  0.19360541  0.70120963
   0.89854737  0.30551254  0.79905595
   0.89165999  0.41857665  0.88484617
   0.91465386  0.50620857  0.99483185
   0.90231730  0.59316067  0.09586417
   0.90132751  0.69177983  0.19809717
   0.90514625  0.80027643  0.27976775
   0.88455579  0.90120819  0.39689254
   0.90238984  0.00872596  0.51304377
   0.90927831  0.09730840  0.59573416
   0.99254600  0.22203719  0.81674117
   0.99837698  0.32993399  0.89468744
   0.01117160  0.40968048  0.98512310
   0.00843681  0.50670752  0.09759377
   0.01250538  0.60677636  0.20368094
   0.00072899  0.70056534  0.30503800
   0.99489640  0.80753974  0.40720088
   0.98892463  0.89758082  0.50323540
   0.00590953  0.01272075  0.59644041
   0.01059578  0.10462521  0.71638930
   0.11381281  0.20260372  0.88311911
   0.09316276  0.28672397  0.00429613
   0.08634021  0.38736648  0.09376438
   0.09208041  0.50717461  0.20542445
   0.10150890  0.60100244  0.30617864
   0.08950505  0.69477833  0.40423220
   0.08623949  0.79439105  0.50717966
   0.08276395  0.88973902  0.61982587
   0.09304535  0.99300165  0.70185842
   0.08263176  0.08731949  0.81263183
   0.30636872  0.30906984  0.00347490
   0.30429576  0.42256481  0.11543637
   0.29100328  0.51077117  0.20572288
   0.30459284  0.61275470  0.31185158
   0.30372025  0.71260288  0.40695891
   0.29747056  0.80578102  0.51214672
   0.27890412  0.88922932  0.60443285
   0.29536694  0.00127116  0.70107832
   0.29854177  0.09411676  0.79455380
   0.29314460  0.19298112  0.89622858
   0.40366077  0.30932307  0.08881022
   0.40688334  0.39703393  0.21134774
   0.40489447  0.50678596  0.30965080
   0.39650492  0.62792052  0.39359099
   0.39227396  0.71288342  0.50401418
   0.39541568  0.81515887  0.59887126
   0.40507634  0.89898296  0.68586086
   0.39807534  0.99733026  0.80237066
   0.39022655  0.11454517  0.90615266
   0.40474218  0.20509417  0.01381623
   0.50428997  0.30158734  0.20838857
   0.52324801  0.41062235  0.30014174
   0.50909144  0.50369470  0.39455806
   0.49935266  0.61571545  0.50259348
   0.51324210  0.71340077  0.59352205
   0.51450183  0.81422157  0.68793000
   0.49610013  0.88509513  0.80156294
   0.50440371  0.99189081  0.88260358
   0.49312822  0.09612027  0.98517564
   0.49147793  0.19178223  0.10989532
   0.60454326  0.30051934  0.30063603
   0.61140621  0.41036764  0.40850960
   0.59626912  0.48238714  0.50954316
   0.59310533  0.58030547  0.59303115
   0.59669516  0.70154638  0.70187544
   0.59689116  0.79754217  0.80113380
   0.58855890  0.90130294  0.89108174
   0.57995554  0.00991214  0.97807801
   0.59896105  0.10531702  0.08323538
   0.60155143  0.19757731  0.20468790
   0.70443711  0.30875488  0.39002425
   0.71270321  0.38344329  0.50924099
   0.70605732  0.48610720  0.61133411
   0.70698216  0.60219792  0.69641029
   0.70167590  0.68728770  0.79406445
   0.70420222  0.80166762  0.90016791
   0.68045512  0.91505480  0.99951997
   0.70025190  0.99839499  0.08863630
   0.70038781  0.09899351  0.19651311
   0.70277226  0.20419724  0.29120118
   0.81485167  0.27605439  0.50077842
   0.81037755  0.36717988  0.60364553
   0.80322927  0.48690680  0.67994843
   0.79708559  0.59247047  0.78699828
   0.79504769  0.67715019  0.88935766
   0.80040204  0.80225432  0.99688826
   0.79315372  0.90184697  0.09202662
   0.79975287  0.98420180  0.19786749
   0.80170662  0.10375856  0.28275862
   0.79774464  0.18476645  0.39951282
   0.92625861  0.29771087  0.59698390
   0.90557390  0.39810749  0.69483958
   0.87519546  0.50664181  0.80518619
   0.90855475  0.59380400  0.90127005
   0.90839290  0.69754439  0.98740112
   0.90460907  0.78552223  0.08999181
   0.90093122  0.89680156  0.18637256
   0.90826598  0.00152065  0.29093725
   0.90629354  0.10681314  0.40440969
   0.91451392  0.19751722  0.48913589
   0.01825262  0.31150624  0.70479036
   0.99597734  0.40764578  0.79315608
   0.01313910  0.49259914  0.90064551
   0.00852278  0.60081015  0.99750857
   0.00726197  0.68128007  0.10588336
   0.99747273  0.78585135  0.19174377
   0.99549282  0.91588482  0.29714190
   0.00082385  0.00027225  0.39359871
   0.01353042  0.09931866  0.49146128
   0.00269004  0.20460256  0.58996654
   0.10830554  0.31324185  0.80350575
   0.12947802  0.40850238  0.88300623
   0.10312371  0.51510176  0.99680611
   0.10500312  0.59941835  0.09813669
   0.10289648  0.69675341  0.20703223
   0.10307384  0.80151253  0.29924886
   0.09552568  0.90046951  0.39234632
   0.08916053  0.99325272  0.52110689
   0.08522693  0.11146597  0.62319699
   0.08789909  0.19779796  0.71104274
   0.20838349  0.29405562  0.90254958
   0.20371739  0.40437804  0.00874096
   0.18580891  0.50699373  0.10782664
   0.18896317  0.59205993  0.21647994
   0.20715745  0.69377356  0.31942275
   0.19791490  0.79781803  0.40339163
   0.18410026  0.89494260  0.50547791
   0.18033861  0.99897828  0.60884429
   0.18105408  0.10557280  0.70583650
   0.19144029  0.20647592  0.78707628
   0.39500713  0.41358897  0.00324144
   0.40623533  0.51392657  0.10923574
   0.40709073  0.61824149  0.21689971
   0.39897944  0.71931859  0.30477530
   0.40607586  0.80850030  0.39392282
   0.40496229  0.89660639  0.51508098
   0.39866148  0.00775860  0.60413759
   0.40048969  0.09776973  0.69572591
   0.38381744  0.21260875  0.78304325
   0.38710240  0.30188319  0.91426799
   0.48982631  0.40576958  0.11515263
   0.50416658  0.52165273  0.22133547
   0.51149956  0.61030939  0.31584600
   0.51980980  0.70730555  0.39538242
   0.51296541  0.80923089  0.50318217
   0.52775660  0.91380258  0.61092112
   0.51996391  0.99589635  0.71231600
   0.50323489  0.12181976  0.80005734
   0.49760837  0.20153791  0.90094472
   0.49612290  0.30096132  0.02065402
   0.59865386  0.41122903  0.20838111
   0.62617016  0.50071924  0.30871888
   0.62419959  0.59737924  0.41944834
   0.62402706  0.72217746  0.51933023
   0.61529275  0.82394284  0.61011603
   0.60614751  0.91292633  0.71717230
   0.59743923  0.01753692  0.81124084
   0.58233303  0.11374300  0.90395385
   0.59909819  0.19459351  0.01242755
   0.58479516  0.29819777  0.11014553
   0.70908388  0.40320912  0.30376560
   0.71164436  0.47476485  0.41000878
   0.71939296  0.59183230  0.51619406
   0.70443986  0.69934608  0.62212524
   0.70082728  0.80102765  0.71922151
   0.70453184  0.90164027  0.80895973
   0.70017685  0.00024269  0.92036530
   0.68759603  0.09111414  0.99538200
   0.69530930  0.19423403  0.09862184
   0.70625322  0.31484086  0.18504038
   0.82266370  0.37922336  0.40967750
   0.80563306  0.50277254  0.49918314
   0.81364237  0.61960176  0.59184988
   0.81219537  0.69643356  0.70298668
   0.78891031  0.79566207  0.80863320
   0.79857682  0.89606554  0.89854333
   0.80850435  0.99369656  0.00862921
   0.78728436  0.09694101  0.10053626
   0.78899401  0.20525453  0.19246246
   0.79957809  0.29029104  0.29569449
   0.89532178  0.38718843  0.51731113
   0.88238763  0.48770028  0.59172465
   0.88581025  0.59361850  0.69396194
   0.90247057  0.69937644  0.80866332
   0.89660471  0.80919148  0.90562004
   0.90563566  0.88371717  0.99739230
   0.90941153  0.00465968  0.09037036
   0.90052781  0.10707405  0.18596693
   0.89613220  0.18576557  0.29298567
   0.90383399  0.27747025  0.39756751
   0.00879824  0.40565074  0.60682806
   0.99655154  0.50199525  0.69544144
   0.99300981  0.58966797  0.79139321
   0.00267702  0.68032508  0.89852282
   0.01262853  0.79303446  0.99732578
   0.01018057  0.89875325  0.09936994
   0.00073906  0.00061263  0.18118663
   0.00945637  0.08896302  0.30344560
   0.00746449  0.19031055  0.37948500
   0.01120340  0.29589067  0.49108566
   0.10407385  0.41394350  0.69469146
   0.11460651  0.51416956  0.79182265
   0.10704881  0.58907194  0.87998752
   0.09351262  0.68614073  0.98470895
   0.10467906  0.77888324  0.10168665
   0.09491962  0.87842657  0.18260517
   0.10094067  0.00368522  0.29092506
   0.11142055  0.08886323  0.39055180
   0.11680005  0.18529054  0.49131578
   0.09424241  0.29817606  0.59861350
   0.20476616  0.40993659  0.79978366
   0.22264956  0.51008517  0.90235065
   0.19970782  0.60966723  0.99438205
   0.19819390  0.69438019  0.11430824
   0.19567476  0.79728102  0.20883378
   0.19295130  0.91735665  0.29379133
   0.19391831  0.99899228  0.39629942
   0.17752531  0.10063857  0.51101367
   0.17625553  0.19547710  0.60857147
   0.19058576  0.31811206  0.69318686
   0.30576724  0.41363304  0.90339333
   0.30961285  0.50922536  0.00801077
   0.29390199  0.61227019  0.10927266
   0.30244184  0.70169302  0.20714285
   0.30214264  0.79884172  0.29471458
   0.29090623  0.89865073  0.40232281
   0.30052038  0.99146808  0.51990137
   0.29797147  0.11340772  0.61517586
   0.29329591  0.19349686  0.70063615
   0.29657526  0.30450967  0.79734402
