 500 500   0   0
  0.2349479E+02  0.2273250E-08  0.2273250E-08  0.2273250E-08  0.5000000E-15
  1.000000000000000E-004
  CAR 
 Li                                      
      2.82252789     -3.59339742  301      0.03649025      1.00000000
     -3.593  0.0000E+00  0.0000E+00
     -3.572  0.0000E+00  0.0000E+00
     -3.551  0.0000E+00  0.0000E+00
     -3.529  0.0000E+00  0.0000E+00
     -3.508  0.0000E+00  0.0000E+00
     -3.486  0.0000E+00  0.0000E+00
     -3.465  0.2596E-13  0.5551E-15
     -3.444  0.6227E-10  0.1332E-11
     -3.422  0.5518E-07  0.1181E-08
     -3.401  0.1810E-04  0.3883E-06
     -3.380  0.2214E-02  0.4774E-04
     -3.358  0.1019E+00  0.2226E-02
     -3.337  0.1783E+01  0.4035E-01
     -3.315  0.1202E+02  0.2974E+00
     -3.294  0.3159E+02  0.9730E+00
     -3.273  0.3260E+02  0.1670E+01
     -3.251  0.1354E+02  0.1960E+01
     -3.230  0.6716E+01  0.2104E+01
     -3.208  0.2794E+02  0.2701E+01
     -3.187  0.7542E+02  0.4314E+01
     -3.166  0.9600E+02  0.6367E+01
     -3.144  0.5814E+02  0.7610E+01
     -3.123  0.1844E+02  0.8005E+01
     -3.102  0.1918E+02  0.8415E+01
     -3.080  0.6007E+02  0.9700E+01
     -3.059  0.9721E+02  0.1178E+02
     -3.037  0.7395E+02  0.1336E+02
     -3.016  0.2782E+02  0.1396E+02
     -2.995  0.2087E+02  0.1440E+02
     -2.973  0.6359E+02  0.1576E+02
     -2.952  0.1160E+03  0.1824E+02
     -2.930  0.1098E+03  0.2059E+02
     -2.909  0.5464E+02  0.2176E+02
     -2.888  0.2873E+02  0.2237E+02
     -2.866  0.7067E+02  0.2389E+02
     -2.845  0.1486E+03  0.2706E+02
     -2.823  0.1722E+03  0.3075E+02
     -2.802  0.1091E+03  0.3308E+02
     -2.781  0.3844E+02  0.3390E+02
     -2.759  0.2431E+02  0.3442E+02
     -2.738  0.6901E+02  0.3590E+02
     -2.717  0.1057E+03  0.3816E+02
     -2.695  0.6735E+02  0.3960E+02
     -2.674  0.2290E+02  0.4009E+02
     -2.652  0.3615E+02  0.4086E+02
     -2.631  0.1052E+03  0.4311E+02
     -2.610  0.1733E+03  0.4682E+02
     -2.588  0.1554E+03  0.5014E+02
     -2.567  0.7736E+02  0.5179E+02
     -2.545  0.5618E+02  0.5300E+02
     -2.524  0.1261E+03  0.5569E+02
     -2.503  0.2133E+03  0.6025E+02
     -2.481  0.2283E+03  0.6514E+02
     -2.460  0.1546E+03  0.6844E+02
     -2.439  0.6395E+02  0.6981E+02
     -2.417  0.3626E+02  0.7059E+02
     -2.396  0.7045E+02  0.7209E+02
     -2.374  0.9533E+02  0.7413E+02
     -2.353  0.6472E+02  0.7552E+02
     -2.332  0.3024E+02  0.7616E+02
     -2.310  0.5660E+02  0.7737E+02
     -2.289  0.1425E+03  0.8042E+02
     -2.267  0.2002E+03  0.8470E+02
     -2.246  0.1597E+03  0.8812E+02
     -2.225  0.7960E+02  0.8982E+02
     -2.203  0.6757E+02  0.9126E+02
     -2.182  0.1456E+03  0.9438E+02
     -2.161  0.2224E+03  0.9913E+02
     -2.139  0.2175E+03  0.1038E+03
     -2.118  0.1389E+03  0.1068E+03
     -2.096  0.6134E+02  0.1081E+03
     -2.075  0.6628E+02  0.1095E+03
     -2.054  0.1397E+03  0.1125E+03
     -2.032  0.1762E+03  0.1162E+03
     -2.011  0.1247E+03  0.1189E+03
     -1.989  0.6638E+02  0.1203E+03
     -1.968  0.9498E+02  0.1224E+03
     -1.947  0.1904E+03  0.1264E+03
     -1.925  0.2447E+03  0.1317E+03
     -1.904  0.1914E+03  0.1358E+03
     -1.882  0.9414E+02  0.1378E+03
     -1.861  0.7389E+02  0.1394E+03
     -1.840  0.1525E+03  0.1426E+03
     -1.818  0.2334E+03  0.1476E+03
     -1.797  0.2201E+03  0.1523E+03
     -1.776  0.1282E+03  0.1551E+03
     -1.754  0.6220E+02  0.1564E+03
     -1.733  0.8642E+02  0.1582E+03
     -1.711  0.1537E+03  0.1615E+03
     -1.690  0.1658E+03  0.1651E+03
     -1.669  0.1040E+03  0.1673E+03
     -1.647  0.5801E+02  0.1685E+03
     -1.626  0.9007E+02  0.1705E+03
     -1.604  0.1498E+03  0.1737E+03
     -1.583  0.1588E+03  0.1771E+03
     -1.562  0.1078E+03  0.1794E+03
     -1.540  0.8113E+02  0.1811E+03
     -1.519  0.1521E+03  0.1843E+03
     -1.498  0.2690E+03  0.1901E+03
     -1.476  0.3402E+03  0.1974E+03
     -1.455  0.3111E+03  0.2040E+03
     -1.433  0.2016E+03  0.2083E+03
     -1.412  0.1239E+03  0.2110E+03
     -1.391  0.1628E+03  0.2145E+03
     -1.369  0.2364E+03  0.2195E+03
     -1.348  0.2240E+03  0.2243E+03
     -1.326  0.1335E+03  0.2272E+03
     -1.305  0.6844E+02  0.2286E+03
     -1.284  0.8587E+02  0.2305E+03
     -1.262  0.1540E+03  0.2338E+03
     -1.241  0.1954E+03  0.2379E+03
     -1.220  0.1572E+03  0.2413E+03
     -1.198  0.1367E+03  0.2442E+03
     -1.177  0.2011E+03  0.2485E+03
     -1.155  0.2684E+03  0.2543E+03
     -1.134  0.2702E+03  0.2600E+03
     -1.113  0.1862E+03  0.2640E+03
     -1.091  0.7760E+02  0.2657E+03
     -1.070  0.3533E+02  0.2664E+03
     -1.048  0.6739E+02  0.2679E+03
     -1.027  0.1004E+03  0.2700E+03
     -1.006  0.7816E+02  0.2717E+03
     -0.984  0.7487E+02  0.2733E+03
     -0.963  0.1592E+03  0.2767E+03
     -0.941  0.2758E+03  0.2826E+03
     -0.920  0.3388E+03  0.2899E+03
     -0.899  0.3202E+03  0.2967E+03
     -0.877  0.2587E+03  0.3022E+03
     -0.856  0.2165E+03  0.3069E+03
     -0.835  0.2232E+03  0.3116E+03
     -0.813  0.2820E+03  0.3177E+03
     -0.792  0.3201E+03  0.3245E+03
     -0.770  0.2654E+03  0.3302E+03
     -0.749  0.1742E+03  0.3339E+03
     -0.728  0.1223E+03  0.3365E+03
     -0.706  0.1129E+03  0.3390E+03
     -0.685  0.1269E+03  0.3417E+03
     -0.663  0.1294E+03  0.3444E+03
     -0.642  0.1551E+03  0.3478E+03
     -0.621  0.2101E+03  0.3522E+03
     -0.599  0.2334E+03  0.3572E+03
     -0.578  0.2157E+03  0.3618E+03
     -0.557  0.1704E+03  0.3655E+03
     -0.535  0.1292E+03  0.3683E+03
     -0.514  0.1645E+03  0.3718E+03
     -0.492  0.2646E+03  0.3774E+03
     -0.471  0.3301E+03  0.3845E+03
     -0.450  0.3178E+03  0.3913E+03
     -0.428  0.2415E+03  0.3965E+03
     -0.407  0.1893E+03  0.4005E+03
     -0.385  0.2090E+03  0.4050E+03
     -0.364  0.2144E+03  0.4096E+03
     -0.343  0.1666E+03  0.4131E+03
     -0.321  0.1144E+03  0.4156E+03
     -0.300  0.1239E+03  0.4182E+03
     -0.279  0.2052E+03  0.4226E+03
     -0.257  0.2745E+03  0.4285E+03
     -0.236  0.2944E+03  0.4348E+03
     -0.214  0.2736E+03  0.4406E+03
     -0.193  0.2334E+03  0.4456E+03
     -0.172  0.2270E+03  0.4505E+03
     -0.150  0.2540E+03  0.4559E+03
     -0.129  0.2389E+03  0.4610E+03
     -0.107  0.1713E+03  0.4647E+03
     -0.086  0.1371E+03  0.4676E+03
     -0.065  0.1917E+03  0.4717E+03
     -0.043  0.2635E+03  0.4773E+03
     -0.022  0.2926E+03  0.4836E+03
     -0.000  0.2955E+03  0.4899E+03
      0.021  0.2823E+03  0.4960E+03
      0.042  0.2552E+03  0.5014E+03
      0.064  0.2289E+03  0.5063E+03
      0.085  0.2185E+03  0.5110E+03
      0.106  0.2293E+03  0.5159E+03
      0.128  0.2558E+03  0.5214E+03
      0.149  0.2744E+03  0.5272E+03
      0.171  0.2966E+03  0.5336E+03
      0.192  0.3359E+03  0.5408E+03
      0.213  0.3686E+03  0.5486E+03
      0.235  0.3770E+03  0.5567E+03
      0.256  0.3712E+03  0.5646E+03
      0.278  0.3532E+03  0.5722E+03
      0.299  0.3306E+03  0.5793E+03
      0.320  0.3085E+03  0.5859E+03
      0.342  0.2647E+03  0.5915E+03
      0.363  0.2216E+03  0.5963E+03
      0.384  0.2196E+03  0.6010E+03
      0.406  0.2378E+03  0.6060E+03
      0.427  0.2241E+03  0.6108E+03
      0.449  0.1721E+03  0.6145E+03
      0.470  0.1369E+03  0.6174E+03
      0.491  0.1516E+03  0.6207E+03
      0.513  0.1746E+03  0.6244E+03
      0.534  0.1880E+03  0.6284E+03
      0.556  0.1799E+03  0.6323E+03
      0.577  0.1623E+03  0.6358E+03
      0.598  0.1806E+03  0.6396E+03
      0.620  0.2224E+03  0.6444E+03
      0.641  0.2590E+03  0.6499E+03
      0.662  0.2744E+03  0.6558E+03
      0.684  0.2725E+03  0.6616E+03
      0.705  0.2814E+03  0.6676E+03
      0.727  0.3086E+03  0.6742E+03
      0.748  0.3256E+03  0.6812E+03
      0.769  0.3288E+03  0.6882E+03
      0.791  0.3322E+03  0.6953E+03
      0.812  0.3261E+03  0.7023E+03
      0.834  0.2967E+03  0.7086E+03
      0.855  0.2394E+03  0.7138E+03
      0.876  0.1771E+03  0.7176E+03
      0.898  0.1553E+03  0.7209E+03
      0.919  0.1838E+03  0.7248E+03
      0.941  0.2229E+03  0.7296E+03
      0.962  0.2550E+03  0.7350E+03
      0.983  0.2772E+03  0.7410E+03
      1.005  0.2874E+03  0.7471E+03
      1.026  0.2739E+03  0.7530E+03
      1.047  0.2532E+03  0.7584E+03
      1.069  0.2320E+03  0.7633E+03
      1.090  0.1971E+03  0.7676E+03
      1.112  0.1584E+03  0.7709E+03
      1.133  0.1438E+03  0.7740E+03
      1.154  0.1606E+03  0.7775E+03
      1.176  0.1609E+03  0.7809E+03
      1.197  0.1244E+03  0.7836E+03
      1.219  0.9607E+02  0.7856E+03
      1.240  0.9921E+02  0.7877E+03
      1.261  0.1111E+03  0.7901E+03
      1.283  0.1361E+03  0.7930E+03
      1.304  0.1785E+03  0.7968E+03
      1.325  0.2100E+03  0.8013E+03
      1.347  0.2327E+03  0.8063E+03
      1.368  0.2602E+03  0.8119E+03
      1.390  0.2799E+03  0.8179E+03
      1.411  0.2822E+03  0.8239E+03
      1.432  0.2879E+03  0.8300E+03
      1.454  0.2938E+03  0.8363E+03
      1.475  0.2797E+03  0.8423E+03
      1.497  0.2572E+03  0.8478E+03
      1.518  0.2397E+03  0.8529E+03
      1.539  0.2353E+03  0.8580E+03
      1.561  0.2255E+03  0.8628E+03
      1.582  0.1912E+03  0.8669E+03
      1.604  0.1555E+03  0.8702E+03
      1.625  0.1494E+03  0.8734E+03
      1.646  0.1479E+03  0.8766E+03
      1.668  0.1201E+03  0.8791E+03
      1.689  0.1039E+03  0.8814E+03
      1.710  0.1299E+03  0.8841E+03
      1.732  0.1628E+03  0.8876E+03
      1.753  0.1777E+03  0.8914E+03
      1.775  0.1874E+03  0.8954E+03
      1.796  0.1919E+03  0.8995E+03
      1.817  0.1800E+03  0.9034E+03
      1.839  0.1639E+03  0.9069E+03
      1.860  0.1538E+03  0.9102E+03
      1.882  0.1474E+03  0.9133E+03
      1.903  0.1517E+03  0.9166E+03
      1.924  0.1527E+03  0.9198E+03
      1.946  0.1411E+03  0.9229E+03
      1.967  0.1407E+03  0.9259E+03
      1.988  0.1544E+03  0.9292E+03
      2.010  0.1680E+03  0.9328E+03
      2.031  0.1668E+03  0.9363E+03
      2.053  0.1493E+03  0.9395E+03
      2.074  0.1318E+03  0.9423E+03
      2.095  0.1135E+03  0.9448E+03
      2.117  0.1013E+03  0.9469E+03
      2.138  0.1111E+03  0.9493E+03
      2.160  0.1318E+03  0.9521E+03
      2.181  0.1486E+03  0.9553E+03
      2.202  0.1633E+03  0.9588E+03
      2.224  0.1774E+03  0.9626E+03
      2.245  0.1825E+03  0.9665E+03
      2.266  0.1803E+03  0.9703E+03
      2.288  0.1815E+03  0.9742E+03
      2.309  0.1848E+03  0.9782E+03
      2.331  0.1755E+03  0.9819E+03
      2.352  0.1450E+03  0.9850E+03
      2.373  0.9393E+02  0.9870E+03
      2.395  0.4138E+02  0.9879E+03
      2.416  0.3123E+02  0.9886E+03
      2.438  0.6620E+02  0.9900E+03
      2.459  0.1033E+03  0.9922E+03
      2.480  0.1211E+03  0.9948E+03
      2.502  0.1339E+03  0.9977E+03
      2.523  0.1203E+03  0.1000E+04
      2.545  0.6379E+02  0.1002E+04
      2.566  0.1633E+02  0.1002E+04
      2.587  0.1824E+01  0.1002E+04
      2.609  0.8399E-01  0.1002E+04
      2.630  0.1537E-02  0.1002E+04
      2.651  0.1092E-04  0.1002E+04
      2.673  0.2960E-07  0.1002E+04
      2.694  0.3028E-10  0.1002E+04
      2.716  0.7787E-14  0.1002E+04
      2.737  0.0000E+00  0.1002E+04
      2.758  0.0000E+00  0.1002E+04
      2.780  0.0000E+00  0.1002E+04
      2.801  0.0000E+00  0.1002E+04
      2.823  0.0000E+00  0.1002E+04
