       N       E                     dE             d eps       ncg     rms          rms(c)
DAV:   1    -0.344483180709E+03   -0.34448E+03   -0.11619E+05  4008   0.642E+02
DAV:   2    -0.888800554079E+03   -0.54432E+03   -0.49880E+03  4612   0.628E+01
DAV:   3    -0.928309185518E+03   -0.39509E+02   -0.36149E+02  5184   0.133E+01
DAV:   4    -0.929697872351E+03   -0.13887E+01   -0.13671E+01  4696   0.274E+00
DAV:   5    -0.929729990243E+03   -0.32118E-01   -0.32065E-01  4888   0.442E-01    0.721E+00
DAV:   6    -0.931862163627E+03   -0.21322E+01   -0.74377E+00  4704   0.419E+00    0.722E+00
DAV:   7    -0.923522042188E+03    0.83401E+01   -0.73457E+00  4888   0.379E+00    0.381E+00
DAV:   8    -0.922034423123E+03    0.14876E+01   -0.35149E+00  4592   0.186E+00    0.218E+00
DAV:   9    -0.921688659285E+03    0.34576E+00   -0.21605E+00  4360   0.109E+00    0.103E+00
DAV:  10    -0.921730153898E+03   -0.41495E-01   -0.40918E-01  4704   0.559E-01    0.823E-01
DAV:  11    -0.921680385577E+03    0.49768E-01   -0.13683E-01  4600   0.406E-01    0.542E-01
DAV:  12    -0.921663173699E+03    0.17212E-01   -0.29252E-02  4520   0.183E-01    0.250E-01
DAV:  13    -0.921662370885E+03    0.80281E-03   -0.14080E-02  4528   0.115E-01    0.144E-01
DAV:  14    -0.921663143600E+03   -0.77272E-03   -0.46225E-03  4672   0.828E-02    0.118E-01
DAV:  15    -0.921661125029E+03    0.20186E-02   -0.21062E-03  4600   0.569E-02    0.469E-02
DAV:  16    -0.921661000007E+03    0.12502E-03   -0.73878E-04  4344   0.226E-02    0.214E-02
DAV:  17    -0.921661029344E+03   -0.29337E-04   -0.11484E-04  4888   0.136E-02    0.211E-02
DAV:  18    -0.921660963378E+03    0.65966E-04   -0.63415E-05  4672   0.102E-02    0.848E-03
DAV:  19    -0.921660957497E+03    0.58819E-05   -0.24993E-05  3416   0.509E-03
   1 F= -.92166096E+03 E0= -.92160514E+03  d E =-.111639E+00
