Li                                      
           1
    22.732500   -0.000000    0.000000
    -0.000000   22.732500    0.000000
     0.000000    0.000000   22.732500
   Li
   500
Direct configuration=     1
   0.00220078  0.02433630  0.00453311
   0.99072285  0.07429004  0.09931899
   0.00122989  0.17955383  0.20303757
   0.00090833  0.29205979  0.28965053
   0.00518711  0.39914551  0.39272915
   0.99007766  0.50661356  0.49136252
   0.98056698  0.60490996  0.60729706
   0.98723507  0.70236709  0.70924804
   0.99762866  0.80224654  0.80452579
   0.01132090  0.90527919  0.89812528
   0.10852991  0.00134365  0.10024937
   0.10199108  0.08853198  0.21041260
   0.10717922  0.19388408  0.30064730
   0.09631071  0.29480712  0.39534676
   0.09003838  0.41196059  0.50546378
   0.09864838  0.50238437  0.60630525
   0.09225715  0.60957347  0.70303877
   0.10008565  0.68700359  0.79524920
   0.10811238  0.80194789  0.88195148
   0.10556811  0.90081259  0.99049455
   0.20384954  0.99225868  0.21571648
   0.20051895  0.09269839  0.30521778
   0.20769941  0.18757684  0.38843677
   0.19361554  0.29972763  0.50217402
   0.20439170  0.40877268  0.58867925
   0.18439572  0.49818550  0.70271173
   0.19703324  0.59408705  0.80849120
   0.20371042  0.69376858  0.88273348
   0.20769557  0.80332999  0.99251282
   0.20995125  0.90609230  0.10209710
   0.30366635  0.00201329  0.30902729
   0.29420510  0.09038417  0.39989266
   0.29103334  0.19608351  0.49181683
   0.30348668  0.30051198  0.60237039
   0.28894932  0.39338578  0.69082010
   0.29772530  0.48672250  0.81142457
   0.29139910  0.59581963  0.88300577
   0.29958723  0.69310176  0.99580553
   0.30517646  0.80026281  0.10710041
   0.30746009  0.90239575  0.19124167
   0.40605502  0.98782897  0.40558666
   0.39292688  0.08706784  0.50650832
   0.38987129  0.19769282  0.58838097
   0.39974221  0.29323802  0.68707381
   0.39307406  0.39131249  0.79750040
   0.39812991  0.50109394  0.88971798
   0.40422540  0.59421632  0.99957311
   0.41251728  0.70441286  0.09808450
   0.42096435  0.79549708  0.21426866
   0.40374153  0.89526523  0.30670906
   0.49826885  0.98903834  0.51437115
   0.50708788  0.10166698  0.58816541
   0.49978623  0.19692984  0.68287542
   0.50437508  0.29857465  0.79307815
   0.49540495  0.40295631  0.88556407
   0.49196309  0.49453735  0.98954022
   0.49864965  0.59727202  0.10084261
   0.51050950  0.69981011  0.20899528
   0.50627434  0.81234194  0.31182246
   0.51425772  0.89518056  0.41194998
   0.60585524  0.99961876  0.59740033
   0.60448773  0.10453993  0.69154252
   0.60472747  0.19549527  0.79928012
   0.58424128  0.29681468  0.90152421
   0.60119045  0.39378391  0.98874252
   0.58029168  0.48106053  0.09861850
   0.60320378  0.57983937  0.19621848
   0.60884081  0.70202584  0.29100535
   0.61000958  0.79251392  0.40785773
   0.60950037  0.88585677  0.51029373
   0.69176352  0.00864150  0.69650616
   0.69191044  0.10570741  0.79399264
   0.68629515  0.20012857  0.89719154
   0.69161937  0.29049932  0.01343015
   0.68155871  0.41434645  0.09744317
   0.68846997  0.49354681  0.19452874
   0.69665844  0.60428446  0.29013198
   0.70585384  0.68797196  0.39203831
   0.70934549  0.79768310  0.50395934
   0.70230405  0.90631775  0.61195334
   0.79155156  0.01479349  0.80291157
   0.78935348  0.09824181  0.91034320
   0.79338983  0.20231118  0.02116963
   0.79608119  0.29010943  0.11964422
   0.80949172  0.39220264  0.18733953
   0.79607675  0.49081736  0.27771328
   0.79976393  0.59938371  0.38197435
   0.79899892  0.69754384  0.50212262
   0.79727181  0.80963136  0.59474371
   0.81143095  0.90210176  0.71144390
   0.89868685  0.99914305  0.89817914
   0.91179947  0.10390265  0.00830480
   0.90855107  0.18396908  0.11440680
   0.90318385  0.31057147  0.19173707
   0.91234986  0.40194722  0.28292304
   0.90247127  0.50534442  0.38621842
   0.89606072  0.59620781  0.49714524
   0.88789768  0.70490098  0.59504925
   0.89907834  0.79888777  0.70715154
   0.88640174  0.89325742  0.80667815
   0.09928947  0.08545124  0.99613301
   0.10050733  0.18066003  0.10785061
   0.09407079  0.28911829  0.19061738
   0.09545046  0.40450916  0.28766748
   0.08287320  0.50245442  0.40305830
   0.09116771  0.61110002  0.51238226
   0.10569071  0.70482238  0.61838474
   0.10253357  0.80119133  0.70345390
   0.09586608  0.91360878  0.78493941
   0.10097982  0.00533152  0.89011785
   0.21638301  0.09224934  0.10914729
   0.19467335  0.17958104  0.19230694
   0.20360703  0.29476477  0.29798026
   0.19103858  0.39914507  0.40070922
   0.19879314  0.48987431  0.49062408
   0.19544634  0.59315081  0.60287643
   0.20083815  0.69251274  0.71302409
   0.20870408  0.80034876  0.80088242
   0.19722617  0.91174222  0.89517466
   0.20084475  0.00809855  0.99181382
   0.32425075  0.08851296  0.19463818
   0.29398383  0.20179777  0.29944828
   0.29116975  0.30301333  0.40014406
   0.30416374  0.40772838  0.49068624
   0.29405936  0.49673084  0.58884342
   0.29715516  0.59145195  0.71288301
   0.31097272  0.71591542  0.79792467
   0.30872746  0.79808766  0.89318491
   0.29843921  0.89992186  0.00720659
   0.30033233  0.00894656  0.09019913
   0.39471898  0.10566753  0.31908106
   0.39707230  0.20687971  0.40951056
   0.40322758  0.31197343  0.50408192
   0.41994622  0.40770479  0.59924874
   0.40306902  0.49482842  0.69099759
   0.40014782  0.59265467  0.79157424
   0.39935966  0.67963512  0.89914512
   0.41476649  0.80118528  0.00987613
   0.40096175  0.90417326  0.10448471
   0.38468465  0.00845336  0.19979991
   0.50798042  0.09119508  0.42371184
   0.50187130  0.20112694  0.50687065
   0.50189035  0.29367638  0.60525760
   0.50139042  0.40902281  0.71536863
   0.49403453  0.50786541  0.79880278
   0.49782901  0.57928945  0.87871060
   0.50835258  0.69706771  0.99268993
   0.51310433  0.80520045  0.12093605
   0.50521401  0.91090021  0.19843088
   0.48964947  0.00859967  0.30769463
   0.60261019  0.08980257  0.49804620
   0.60887166  0.20771009  0.58935108
   0.58643900  0.31090901  0.69456254
   0.60351687  0.40627725  0.80992268
   0.59992570  0.49137692  0.91218090
   0.58769499  0.59539381  0.00226051
   0.59554065  0.69992734  0.11294697
   0.61737974  0.79632012  0.21065956
   0.61652638  0.91306454  0.30090700
   0.59939862  0.98437919  0.40990313
   0.68946955  0.11105100  0.59819034
   0.69800150  0.21498598  0.69262362
   0.68967322  0.29178865  0.80596003
   0.70482439  0.39803830  0.90920522
   0.68816264  0.50028268  0.99429548
   0.68364815  0.58383637  0.09800906
   0.71268285  0.69385181  0.19955819
   0.70675854  0.81029705  0.30551886
   0.69668065  0.89445342  0.40999353
   0.70082858  0.99738124  0.50404708
   0.79451422  0.12010953  0.70392559
   0.79307652  0.19911256  0.80092069
   0.78058143  0.28758927  0.91173203
   0.80045765  0.38567345  0.00487617
   0.78658008  0.49461063  0.09073729
   0.79914350  0.60888772  0.18827883
   0.79498674  0.70717403  0.30429602
   0.79700415  0.80606542  0.39705350
   0.81332330  0.90103140  0.49390368
   0.80875205  0.01199522  0.60050944
   0.88271107  0.11692659  0.80457075
   0.88808801  0.21168377  0.92105833
   0.89519742  0.29203062  0.00073312
   0.90822152  0.39955102  0.09243162
   0.90530630  0.50523150  0.16757343
   0.90494353  0.60170081  0.27922238
   0.90536855  0.70655149  0.39928525
   0.90406740  0.79075390  0.50322598
   0.89212995  0.91149021  0.60729214
   0.89597327  0.01106202  0.70885704
   0.01616274  0.09989913  0.90368410
   0.00785767  0.18821729  0.99607296
   0.99406490  0.29619298  0.08746797
   0.00809216  0.40327439  0.18081603
   0.00158408  0.49204047  0.29088310
   0.98026229  0.61116209  0.40092518
   0.99653821  0.70109107  0.50527964
   0.99452587  0.80147532  0.59945918
   0.00112963  0.89783124  0.69961989
   0.99282354  0.00457965  0.77985504
   0.19461051  0.20475756  0.00533725
   0.18926469  0.28600343  0.10188652
   0.20523600  0.39010108  0.20023820
   0.18555239  0.49155839  0.29950066
   0.19948238  0.59014549  0.40113670
   0.20945299  0.67833338  0.51284888
   0.20607879  0.80314890  0.61242365
   0.18988194  0.91223381  0.69816963
   0.20157775  0.00457988  0.80291040
   0.19092387  0.08979807  0.90092315
   0.30552238  0.20533201  0.10462301
   0.29859793  0.30935967  0.20497358
   0.30257237  0.40699809  0.31499522
   0.30692711  0.50736879  0.38388041
   0.29099230  0.59652360  0.50029956
   0.29985866  0.68172382  0.62754794
   0.30800620  0.82188809  0.70655532
   0.29229384  0.90699464  0.79670948
   0.29615417  0.01809072  0.91578465
   0.30601574  0.11218947  0.00275474
   0.39197669  0.21069593  0.21453545
   0.39857615  0.29318708  0.30705619
   0.40586267  0.41034011  0.38598555
   0.39370841  0.50640556  0.49191353
   0.41010263  0.59220045  0.59219888
   0.40338555  0.70295012  0.69389180
   0.40236459  0.80371820  0.78895542
   0.39216986  0.90055874  0.89775965
   0.40666700  0.00370959  0.00415959
   0.41277656  0.10436338  0.10468800
   0.49688958  0.20225186  0.31558336
   0.49493223  0.30267110  0.39087313
   0.51362757  0.40641178  0.49861087
   0.48600422  0.50427793  0.58741099
   0.50435457  0.59987970  0.68527569
   0.49868738  0.67890289  0.79607060
   0.49057400  0.80862280  0.89757598
   0.50839796  0.90077996  0.01641856
   0.49602098  0.01286114  0.10303781
   0.48703574  0.10814538  0.20426145
   0.60554244  0.19384093  0.40482949
   0.59995373  0.31926679  0.48254810
   0.59245301  0.42578153  0.61225085
   0.60021265  0.50508315  0.70430829
   0.60002593  0.58399774  0.79753038
   0.57966796  0.68912357  0.87870418
   0.60220989  0.79965597  0.99496486
   0.60219253  0.90999665  0.10677177
   0.59549098  0.01148239  0.21093021
   0.58771870  0.10284374  0.30750441
   0.70411311  0.22255546  0.50385575
   0.69127774  0.33150032  0.59314373
   0.69329222  0.39258821  0.70110645
   0.69743023  0.48875018  0.82619057
   0.70149651  0.59473805  0.88354090
   0.68844028  0.70670834  0.98245563
   0.69957796  0.80452157  0.08211913
   0.70121184  0.91875094  0.19618879
   0.70324354  0.00699432  0.30799597
   0.70463569  0.10904676  0.40742247
   0.79193914  0.21912001  0.59613977
   0.79669261  0.30794514  0.69932722
   0.78706958  0.40135673  0.80329557
   0.79478410  0.49615861  0.89280107
   0.79447584  0.60199481  0.00134708
   0.78510782  0.70690367  0.09096670
   0.79928474  0.82113244  0.19276167
   0.81116246  0.91645730  0.29373238
   0.80505609  0.00552721  0.39679378
   0.80765051  0.10032467  0.50159908
   0.89785964  0.22298780  0.70634148
   0.87699650  0.29642707  0.81151284
   0.88190077  0.39813769  0.90169305
   0.90309392  0.50264444  0.01338302
   0.90264926  0.61390450  0.07642787
   0.90992666  0.71344427  0.18461603
   0.91080122  0.80256829  0.29730590
   0.90889731  0.90347568  0.40188683
   0.91083903  0.00629652  0.50898741
   0.89678101  0.11396599  0.61934261
   0.99481343  0.19744152  0.80649008
   0.99043702  0.29800446  0.90652545
   0.00212152  0.40379168  0.99702997
   0.00815794  0.50636957  0.07287311
   0.00097389  0.61176644  0.18222318
   0.00954994  0.70924820  0.29350808
   0.99880117  0.79371625  0.41432355
   0.00632453  0.88614503  0.49235025
   0.99977028  0.00820385  0.61019697
   0.99567235  0.10615556  0.71253152
   0.09951990  0.20574787  0.90962135
   0.08970272  0.31139383  0.01755536
   0.11160524  0.40459490  0.08008306
   0.09339518  0.50409019  0.18469885
   0.08035378  0.59273217  0.30230663
   0.09401680  0.71699306  0.40605484
   0.10650813  0.79105100  0.50679343
   0.10059412  0.89352274  0.60243585
   0.10235480  0.99941020  0.70388611
   0.11603910  0.09752525  0.79108099
   0.31249329  0.28920249  0.00926882
   0.29938858  0.38963196  0.09494424
   0.29558693  0.49213799  0.20761279
   0.29835774  0.59066879  0.29811887
   0.28355819  0.68970439  0.39099473
   0.30541513  0.78995878  0.51580573
   0.31722819  0.90865565  0.60501850
   0.30185692  0.00620710  0.69515607
   0.30917985  0.12011442  0.80061886
   0.29990562  0.20276688  0.89740417
   0.40694994  0.29100648  0.09973803
   0.40167123  0.37473256  0.20756330
   0.39604100  0.49684377  0.29154839
   0.40843483  0.58553061  0.40448247
   0.38585963  0.67778764  0.48319369
   0.40094500  0.81254117  0.59670326
   0.39967888  0.90606844  0.70619557
   0.39131457  0.01060582  0.80159184
   0.38782480  0.10748004  0.91422592
   0.40553918  0.19501643  0.01487165
   0.49718285  0.28971754  0.19426791
   0.50949136  0.39332101  0.31121140
   0.49927095  0.48904984  0.39262982
   0.50592562  0.60044706  0.50949370
   0.50260416  0.70062126  0.59954574
   0.50147063  0.79710306  0.69794908
   0.49661109  0.89380496  0.80443889
   0.48512180  0.00329450  0.89228349
   0.49294088  0.10387339  0.99563942
   0.49703433  0.20892063  0.10304753
   0.61200342  0.29972147  0.28095167
   0.61805328  0.39973626  0.39720144
   0.59851072  0.48913267  0.49789222
   0.60004012  0.60391099  0.60789736
   0.60399660  0.69038656  0.70193911
   0.59940619  0.79879771  0.79083370
   0.58711827  0.90566180  0.90186059
   0.59062411  0.02449651  0.00089959
   0.58371706  0.10316908  0.10957743
   0.59372409  0.20064833  0.19922734
   0.71700726  0.30481334  0.41028653
   0.71801365  0.39698933  0.50456582
   0.71529936  0.48933637  0.58840004
   0.70724688  0.57022627  0.68453756
   0.69817519  0.69725332  0.80174274
   0.69572776  0.78477286  0.89924708
   0.68155214  0.91928307  0.99539858
   0.71624068  0.01305960  0.09700804
   0.70020168  0.10911581  0.19912111
   0.70412993  0.21108343  0.29749767
   0.81978554  0.30576160  0.50300275
   0.81597195  0.39609020  0.59142178
   0.80270733  0.48238500  0.70624060
   0.80654328  0.59010224  0.79809218
   0.79344370  0.68877987  0.88629738
   0.78861756  0.81825170  0.98689133
   0.79447759  0.90651190  0.10095074
   0.79826383  0.98871195  0.20179160
   0.79504030  0.10234485  0.29113989
   0.80597937  0.20119794  0.39653884
   0.92402206  0.30982560  0.60440920
   0.89386272  0.39768764  0.71314084
   0.89484521  0.49488847  0.80855063
   0.89472195  0.60832898  0.89632228
   0.88938434  0.72127006  0.99603707
   0.89714007  0.81094059  0.09084085
   0.90096725  0.90525859  0.19734588
   0.92516802  0.00591073  0.31167902
   0.90711063  0.08966739  0.38995633
   0.91054466  0.19821248  0.49849194
   0.99477829  0.30173450  0.71511281
   0.99548380  0.39399032  0.81630889
   0.98085542  0.50170502  0.91665171
   0.00992802  0.61326640  0.99661521
   0.99922809  0.70743054  0.08611418
   0.01292767  0.81354241  0.18865167
   0.01230027  0.91391495  0.30852318
   0.01223400  0.00695193  0.41710812
   0.99322667  0.10398509  0.50810637
   0.00292010  0.20754143  0.59571237
   0.10740975  0.29963371  0.81108012
   0.09308827  0.41394982  0.91122924
   0.11652593  0.48594885  0.00141243
   0.09514048  0.60770595  0.08038529
   0.10305568  0.69193870  0.19836568
   0.10169378  0.80883681  0.28943837
   0.11145562  0.89076526  0.39503838
   0.09998713  0.98591437  0.51303376
   0.09585291  0.10437563  0.60585744
   0.09550759  0.19917429  0.71104007
   0.18756483  0.31305038  0.92800079
   0.20663019  0.40120865  0.99758271
   0.20857681  0.50102447  0.10437167
   0.20104377  0.59685262  0.20582468
   0.19229375  0.68540588  0.28876317
   0.19888839  0.79253553  0.37763415
   0.20888043  0.87617288  0.49934343
   0.20622917  0.00694451  0.58831037
   0.20090400  0.10298366  0.67875736
   0.19987815  0.20526685  0.80926328
   0.39277824  0.38115134  0.00022945
   0.38817466  0.48488220  0.10373050
   0.40391025  0.60785715  0.20739152
   0.39971384  0.70040328  0.31951664
   0.39129881  0.80174377  0.41310397
   0.41143312  0.91577148  0.49766336
   0.39976750  0.00702429  0.60799886
   0.38489450  0.11160460  0.68560162
   0.39472733  0.21086485  0.78416232
   0.41966094  0.29398290  0.90612668
   0.48860722  0.39006960  0.10513618
   0.49141839  0.48649890  0.19696022
   0.50378984  0.59388345  0.30570628
   0.51125170  0.70760242  0.38863966
   0.49838934  0.78525406  0.50592040
   0.49843463  0.89953655  0.60212592
   0.48758574  0.01391575  0.69816371
   0.48689085  0.10362666  0.79851328
   0.49970920  0.19098180  0.89876761
   0.50721543  0.31226823  0.99566778
   0.59457554  0.39268418  0.19692031
   0.59750063  0.49242691  0.29025215
   0.60407404  0.58954421  0.39285901
   0.61513347  0.69802820  0.50234042
   0.61172779  0.79642961  0.60913521
   0.59792176  0.89146856  0.70471264
   0.58898103  0.00086502  0.80264078
   0.58644634  0.10077851  0.89832693
   0.58235931  0.20098993  0.00069831
   0.58651892  0.31146883  0.10391377
   0.71628925  0.38974775  0.29968465
   0.70257727  0.49128791  0.39394358
   0.70778560  0.59978949  0.51160982
   0.71645355  0.69881238  0.59896232
   0.71055022  0.79553947  0.70162173
   0.70252091  0.89767376  0.80134651
   0.68404146  0.00637401  0.92110015
   0.69807039  0.11998506  0.01178045
   0.68446195  0.20173824  0.11231583
   0.69684407  0.29778970  0.18396945
   0.81226261  0.38942177  0.38923526
   0.79854901  0.49822985  0.48884260
   0.80838387  0.59459859  0.60791654
   0.81095691  0.69456145  0.70997389
   0.80615454  0.79184030  0.80873990
   0.78932296  0.90981615  0.90330747
   0.80114820  0.00532275  0.99455293
   0.79426021  0.08166856  0.10053532
   0.79106445  0.19040045  0.19151615
   0.79685254  0.29692168  0.28152176
   0.91161835  0.39859005  0.49168126
   0.89414048  0.49323375  0.60814117
   0.89737409  0.59153644  0.69947255
   0.91070218  0.70087380  0.80932048
   0.90519470  0.79508198  0.89371508
   0.90307062  0.91461484  0.99325808
   0.89923022  0.98831696  0.10368679
   0.89152516  0.07843728  0.20555880
   0.90284572  0.18563922  0.28982056
   0.90648096  0.28848226  0.38674070
   0.99561703  0.40057423  0.60689960
   0.00452185  0.49083005  0.71617688
   0.99409607  0.59999137  0.80869834
   0.00292922  0.69941513  0.88859518
   0.99890494  0.80909833  0.97364400
   0.99821471  0.89731093  0.07482217
   0.00427640  0.98807258  0.20533170
   0.01726790  0.07291890  0.28639745
   0.00402940  0.18733713  0.40082614
   0.00489237  0.30165763  0.50608105
   0.08442043  0.39652747  0.70832400
   0.08414493  0.50130382  0.80772473
   0.09797849  0.61115459  0.91327481
   0.11849983  0.71382669  0.00020853
   0.11310076  0.80622381  0.08920929
   0.11112476  0.89517156  0.19082850
   0.09410881  0.99377681  0.29790997
   0.10435727  0.09221852  0.40439815
   0.10138506  0.19554521  0.49495250
   0.08087086  0.29920326  0.60950344
   0.19020978  0.39697910  0.79828009
   0.19108881  0.49914688  0.88290919
   0.22491083  0.58868469  0.00213585
   0.20296856  0.69297338  0.11623291
   0.20575134  0.79892488  0.20885045
   0.20366576  0.89795676  0.30471232
   0.20132280  0.00284113  0.42223774
   0.19496931  0.10891897  0.51233359
   0.19456887  0.21247588  0.57782985
   0.21122423  0.29668470  0.69199327
   0.31044977  0.38772545  0.89942641
   0.29677595  0.51185182  0.98288521
   0.31757384  0.59428864  0.10293564
   0.31262908  0.69332176  0.21274860
   0.29791212  0.79365636  0.30312294
   0.29537185  0.89657353  0.40183580
   0.30169928  0.00015107  0.49735427
   0.29734801  0.11084742  0.60312227
   0.28821689  0.19869104  0.68933269
   0.29743427  0.30780927  0.80274214
