 432 432   0   0
  0.1915683E+02  0.2022720E-08  0.2022720E-08  0.2022720E-08  0.5000000E-15
  1.000000000000000E-004
  CAR 
 Li                                      
      3.85856565     -3.36879461  301      0.55193094      1.00000000
     -3.369  0.0000E+00  0.0000E+00
     -3.345  0.0000E+00  0.0000E+00
     -3.321  0.0000E+00  0.0000E+00
     -3.297  0.0000E+00  0.0000E+00
     -3.272  0.0000E+00  0.0000E+00
     -3.248  0.0000E+00  0.0000E+00
     -3.224  0.0000E+00  0.0000E+00
     -3.200  0.1927E-11  0.4644E-13
     -3.176  0.6202E-08  0.1495E-09
     -3.152  0.5649E-05  0.1362E-06
     -3.128  0.1470E-02  0.3556E-04
     -3.104  0.1110E+00  0.2709E-02
     -3.080  0.2479E+01  0.6243E-01
     -3.056  0.1679E+02  0.4669E+00
     -3.032  0.3528E+02  0.1317E+01
     -3.007  0.2327E+02  0.1877E+01
     -2.983  0.4869E+01  0.1995E+01
     -2.959  0.2685E+01  0.2059E+01
     -2.935  0.2277E+02  0.2608E+01
     -2.911  0.7744E+02  0.4473E+01
     -2.887  0.9638E+02  0.6795E+01
     -2.863  0.4309E+02  0.7833E+01
     -2.839  0.7064E+01  0.8004E+01
     -2.815  0.8113E+01  0.8199E+01
     -2.791  0.4439E+02  0.9268E+01
     -2.767  0.9387E+02  0.1153E+02
     -2.742  0.7634E+02  0.1337E+02
     -2.718  0.2363E+02  0.1394E+02
     -2.694  0.5859E+01  0.1408E+02
     -2.670  0.2793E+02  0.1475E+02
     -2.646  0.8997E+02  0.1692E+02
     -2.622  0.1211E+03  0.1984E+02
     -2.598  0.7092E+02  0.2155E+02
     -2.574  0.1843E+02  0.2199E+02
     -2.550  0.1593E+02  0.2237E+02
     -2.526  0.7054E+02  0.2407E+02
     -2.502  0.1512E+03  0.2771E+02
     -2.477  0.1561E+03  0.3148E+02
     -2.453  0.8221E+02  0.3346E+02
     -2.429  0.2113E+02  0.3397E+02
     -2.405  0.1224E+02  0.3426E+02
     -2.381  0.5241E+02  0.3552E+02
     -2.357  0.9732E+02  0.3787E+02
     -2.333  0.6846E+02  0.3952E+02
     -2.309  0.1911E+02  0.3998E+02
     -2.285  0.1353E+02  0.4030E+02
     -2.261  0.6242E+02  0.4181E+02
     -2.237  0.1434E+03  0.4526E+02
     -2.212  0.1631E+03  0.4919E+02
     -2.188  0.9237E+02  0.5141E+02
     -2.164  0.2848E+02  0.5210E+02
     -2.140  0.4512E+02  0.5319E+02
     -2.116  0.1312E+03  0.5635E+02
     -2.092  0.2117E+03  0.6145E+02
     -2.068  0.2069E+03  0.6643E+02
     -2.044  0.1146E+03  0.6919E+02
     -2.020  0.3166E+02  0.6996E+02
     -1.996  0.1859E+02  0.7041E+02
     -1.972  0.5939E+02  0.7184E+02
     -1.947  0.9329E+02  0.7408E+02
     -1.923  0.6186E+02  0.7557E+02
     -1.899  0.1864E+02  0.7602E+02
     -1.875  0.2837E+02  0.7671E+02
     -1.851  0.1085E+03  0.7932E+02
     -1.827  0.1899E+03  0.8390E+02
     -1.803  0.1650E+03  0.8787E+02
     -1.779  0.7299E+02  0.8963E+02
     -1.755  0.2331E+02  0.9019E+02
     -1.731  0.5686E+02  0.9156E+02
     -1.707  0.1536E+03  0.9526E+02
     -1.682  0.2191E+03  0.1005E+03
     -1.658  0.1897E+03  0.1051E+03
     -1.634  0.9569E+02  0.1074E+03
     -1.610  0.2926E+02  0.1081E+03
     -1.586  0.4861E+02  0.1093E+03
     -1.562  0.1310E+03  0.1124E+03
     -1.538  0.1720E+03  0.1166E+03
     -1.514  0.1094E+03  0.1192E+03
     -1.490  0.4110E+02  0.1202E+03
     -1.466  0.6962E+02  0.1219E+03
     -1.441  0.1658E+03  0.1259E+03
     -1.417  0.2160E+03  0.1311E+03
     -1.393  0.1735E+03  0.1353E+03
     -1.369  0.8774E+02  0.1374E+03
     -1.345  0.4297E+02  0.1384E+03
     -1.321  0.9085E+02  0.1406E+03
     -1.297  0.1923E+03  0.1452E+03
     -1.273  0.2311E+03  0.1508E+03
     -1.249  0.1555E+03  0.1546E+03
     -1.225  0.5383E+02  0.1559E+03
     -1.201  0.2527E+02  0.1565E+03
     -1.176  0.7682E+02  0.1583E+03
     -1.152  0.1475E+03  0.1619E+03
     -1.128  0.1505E+03  0.1655E+03
     -1.104  0.8235E+02  0.1675E+03
     -1.080  0.3111E+02  0.1682E+03
     -1.056  0.5581E+02  0.1696E+03
     -1.032  0.1212E+03  0.1725E+03
     -1.008  0.1454E+03  0.1760E+03
     -0.984  0.1128E+03  0.1787E+03
     -0.960  0.7729E+02  0.1806E+03
     -0.936  0.1227E+03  0.1835E+03
     -0.911  0.2252E+03  0.1890E+03
     -0.887  0.2873E+03  0.1959E+03
     -0.863  0.2846E+03  0.2027E+03
     -0.839  0.2079E+03  0.2077E+03
     -0.815  0.9642E+02  0.2101E+03
     -0.791  0.9154E+02  0.2123E+03
     -0.767  0.1786E+03  0.2166E+03
     -0.743  0.2235E+03  0.2220E+03
     -0.719  0.1686E+03  0.2260E+03
     -0.695  0.7123E+02  0.2277E+03
     -0.671  0.3645E+02  0.2286E+03
     -0.646  0.9159E+02  0.2308E+03
     -0.622  0.1748E+03  0.2350E+03
     -0.598  0.1780E+03  0.2393E+03
     -0.574  0.9592E+02  0.2416E+03
     -0.550  0.5954E+02  0.2431E+03
     -0.526  0.1210E+03  0.2460E+03
     -0.502  0.2144E+03  0.2511E+03
     -0.478  0.2594E+03  0.2574E+03
     -0.454  0.2182E+03  0.2627E+03
     -0.430  0.1410E+03  0.2661E+03
     -0.406  0.1044E+03  0.2686E+03
     -0.381  0.9078E+02  0.2708E+03
     -0.357  0.4634E+02  0.2719E+03
     -0.333  0.3400E+02  0.2727E+03
     -0.309  0.9679E+02  0.2750E+03
     -0.285  0.1821E+03  0.2794E+03
     -0.261  0.2221E+03  0.2848E+03
     -0.237  0.2173E+03  0.2900E+03
     -0.213  0.1911E+03  0.2946E+03
     -0.189  0.1580E+03  0.2984E+03
     -0.165  0.1542E+03  0.3021E+03
     -0.141  0.1717E+03  0.3063E+03
     -0.116  0.2029E+03  0.3111E+03
     -0.092  0.2285E+03  0.3166E+03
     -0.068  0.2364E+03  0.3223E+03
     -0.044  0.2142E+03  0.3275E+03
     -0.020  0.1524E+03  0.3312E+03
      0.004  0.1067E+03  0.3337E+03
      0.028  0.1250E+03  0.3368E+03
      0.052  0.1516E+03  0.3404E+03
      0.076  0.1493E+03  0.3440E+03
      0.100  0.1513E+03  0.3477E+03
      0.124  0.1928E+03  0.3523E+03
      0.149  0.2400E+03  0.3581E+03
      0.173  0.2546E+03  0.3642E+03
      0.197  0.2461E+03  0.3701E+03
      0.221  0.2187E+03  0.3754E+03
      0.245  0.1617E+03  0.3793E+03
      0.269  0.1414E+03  0.3827E+03
      0.293  0.1785E+03  0.3870E+03
      0.317  0.2066E+03  0.3920E+03
      0.341  0.2015E+03  0.3968E+03
      0.365  0.1640E+03  0.4008E+03
      0.389  0.1365E+03  0.4041E+03
      0.414  0.1402E+03  0.4075E+03
      0.438  0.1586E+03  0.4113E+03
      0.462  0.1720E+03  0.4154E+03
      0.486  0.1829E+03  0.4198E+03
      0.510  0.1855E+03  0.4243E+03
      0.534  0.1841E+03  0.4287E+03
      0.558  0.1828E+03  0.4331E+03
      0.582  0.1954E+03  0.4378E+03
      0.606  0.2048E+03  0.4428E+03
      0.630  0.1985E+03  0.4476E+03
      0.654  0.1942E+03  0.4522E+03
      0.679  0.1959E+03  0.4570E+03
      0.703  0.1915E+03  0.4616E+03
      0.727  0.1777E+03  0.4659E+03
      0.751  0.1723E+03  0.4700E+03
      0.775  0.1851E+03  0.4745E+03
      0.799  0.1962E+03  0.4792E+03
      0.823  0.2086E+03  0.4842E+03
      0.847  0.2158E+03  0.4894E+03
      0.871  0.2248E+03  0.4948E+03
      0.895  0.2408E+03  0.5006E+03
      0.919  0.2506E+03  0.5067E+03
      0.944  0.2538E+03  0.5128E+03
      0.968  0.2534E+03  0.5189E+03
      0.992  0.2444E+03  0.5248E+03
      1.016  0.2292E+03  0.5303E+03
      1.040  0.2155E+03  0.5355E+03
      1.064  0.2088E+03  0.5405E+03
      1.088  0.2058E+03  0.5455E+03
      1.112  0.2068E+03  0.5505E+03
      1.136  0.2075E+03  0.5555E+03
      1.160  0.1996E+03  0.5603E+03
      1.184  0.1998E+03  0.5651E+03
      1.209  0.2210E+03  0.5704E+03
      1.233  0.2324E+03  0.5760E+03
      1.257  0.2333E+03  0.5816E+03
      1.281  0.2391E+03  0.5874E+03
      1.305  0.2273E+03  0.5929E+03
      1.329  0.2086E+03  0.5979E+03
      1.353  0.1975E+03  0.6026E+03
      1.377  0.1875E+03  0.6072E+03
      1.401  0.1800E+03  0.6115E+03
      1.425  0.1758E+03  0.6157E+03
      1.449  0.1827E+03  0.6201E+03
      1.474  0.1842E+03  0.6246E+03
      1.498  0.1762E+03  0.6288E+03
      1.522  0.1735E+03  0.6330E+03
      1.546  0.1791E+03  0.6373E+03
      1.570  0.1769E+03  0.6416E+03
      1.594  0.1590E+03  0.6454E+03
      1.618  0.1428E+03  0.6489E+03
      1.642  0.1244E+03  0.6518E+03
      1.666  0.1151E+03  0.6546E+03
      1.690  0.1360E+03  0.6579E+03
      1.714  0.1565E+03  0.6617E+03
      1.739  0.1535E+03  0.6654E+03
      1.763  0.1551E+03  0.6691E+03
      1.787  0.1588E+03  0.6729E+03
      1.811  0.1564E+03  0.6767E+03
      1.835  0.1613E+03  0.6806E+03
      1.859  0.1766E+03  0.6848E+03
      1.883  0.1800E+03  0.6892E+03
      1.907  0.1628E+03  0.6931E+03
      1.931  0.1453E+03  0.6966E+03
      1.955  0.1454E+03  0.7001E+03
      1.979  0.1535E+03  0.7038E+03
      2.004  0.1652E+03  0.7078E+03
      2.028  0.1728E+03  0.7119E+03
      2.052  0.1850E+03  0.7164E+03
      2.076  0.1860E+03  0.7209E+03
      2.100  0.1775E+03  0.7252E+03
      2.124  0.1856E+03  0.7296E+03
      2.148  0.1828E+03  0.7340E+03
      2.172  0.1704E+03  0.7381E+03
      2.196  0.1611E+03  0.7420E+03
      2.220  0.1569E+03  0.7458E+03
      2.244  0.1566E+03  0.7496E+03
      2.269  0.1487E+03  0.7531E+03
      2.293  0.1390E+03  0.7565E+03
      2.317  0.1387E+03  0.7598E+03
      2.341  0.1370E+03  0.7631E+03
      2.365  0.1290E+03  0.7662E+03
      2.389  0.1258E+03  0.7693E+03
      2.413  0.1245E+03  0.7723E+03
      2.437  0.1200E+03  0.7752E+03
      2.461  0.1220E+03  0.7781E+03
      2.485  0.1193E+03  0.7810E+03
      2.509  0.1027E+03  0.7834E+03
      2.534  0.1030E+03  0.7859E+03
      2.558  0.1042E+03  0.7884E+03
      2.582  0.9718E+02  0.7908E+03
      2.606  0.9670E+02  0.7931E+03
      2.630  0.7563E+02  0.7949E+03
      2.654  0.3501E+02  0.7958E+03
      2.678  0.1058E+02  0.7960E+03
      2.702  0.1655E+02  0.7964E+03
      2.726  0.4537E+02  0.7975E+03
      2.750  0.7115E+02  0.7992E+03
      2.774  0.7016E+02  0.8009E+03
      2.799  0.4263E+02  0.8020E+03
      2.823  0.2979E+02  0.8027E+03
      2.847  0.3035E+02  0.8034E+03
      2.871  0.4036E+02  0.8044E+03
      2.895  0.6495E+02  0.8059E+03
      2.919  0.6915E+02  0.8076E+03
      2.943  0.7576E+02  0.8094E+03
      2.967  0.1017E+03  0.8119E+03
      2.991  0.1222E+03  0.8148E+03
      3.015  0.1262E+03  0.8179E+03
      3.039  0.1184E+03  0.8207E+03
      3.064  0.1147E+03  0.8235E+03
      3.088  0.1257E+03  0.8265E+03
      3.112  0.1327E+03  0.8297E+03
      3.136  0.1270E+03  0.8328E+03
      3.160  0.1236E+03  0.8357E+03
      3.184  0.1168E+03  0.8386E+03
      3.208  0.9953E+02  0.8410E+03
      3.232  0.8949E+02  0.8431E+03
      3.256  0.8714E+02  0.8452E+03
      3.280  0.7237E+02  0.8470E+03
      3.304  0.4666E+02  0.8481E+03
      3.329  0.3387E+02  0.8489E+03
      3.353  0.3855E+02  0.8498E+03
      3.377  0.5121E+02  0.8511E+03
      3.401  0.7135E+02  0.8528E+03
      3.425  0.8852E+02  0.8549E+03
      3.449  0.1050E+03  0.8574E+03
      3.473  0.1110E+03  0.8601E+03
      3.497  0.1041E+03  0.8626E+03
      3.521  0.8059E+02  0.8646E+03
      3.545  0.4506E+02  0.8656E+03
      3.569  0.1319E+02  0.8660E+03
      3.594  0.1503E+01  0.8660E+03
      3.618  0.5710E-01  0.8660E+03
      3.642  0.6704E-03  0.8660E+03
      3.666  0.2339E-05  0.8660E+03
      3.690  0.2372E-08  0.8660E+03
      3.714  0.6913E-12  0.8660E+03
      3.738  0.0000E+00  0.8660E+03
      3.762  0.0000E+00  0.8660E+03
      3.786  0.0000E+00  0.8660E+03
      3.810  0.0000E+00  0.8660E+03
      3.834  0.0000E+00  0.8660E+03
      3.859  0.0000E+00  0.8660E+03
