 running on   64 total cores
 distrk:  each k-point on   32 cores,    2 groups
 distr:  one band on   32 cores,    1 groups
 vasp.6.2.1 16May21 (build Nov 23 2021 15:40:41) complex                        
  
 POSCAR found type information on POSCAR Li
 POSCAR found :  1 types and     432 ions
 scaLAPACK will be used
 -----------------------------------------------------------------------------
|                                                                             |
|           W    W    AA    RRRRR   N    N  II  N    N   GGGG   !!!           |
|           W    W   A  A   R    R  NN   N  II  NN   N  G    G  !!!           |
|           W    W  A    A  R    R  N N  N  II  N N  N  G       !!!           |
|           W WW W  AAAAAA  RRRRR   N  N N  II  N  N N  G  GGG   !            |
|           WW  WW  A    A  R   R   N   NN  II  N   NN  G    G                |
|           W    W  A    A  R    R  N    N  II  N    N   GGGG   !!!           |
|                                                                             |
|     For optimal performance we recommend to set                             |
|       NCORE = 2 up to number-of-cores-per-socket                            |
|     NCORE specifies how many cores store one orbital (NPAR=cpu/NCORE).      |
|     This setting can greatly improve the performance of VASP for DFT.       |
|     The default, NCORE=1 might be grossly inefficient on modern             |
|     multi-core architectures or massively parallel machines. Do your        |
|     own testing! More info at https://www.vasp.at/wiki/index.php/NCORE      |
|     Unfortunately you need to use the default for GW and RPA                |
|     calculations (for HF NCORE is supported but not extensively tested      |
|     yet).                                                                   |
|                                                                             |
 -----------------------------------------------------------------------------

 -----------------------------------------------------------------------------
|                                                                             |
|               ----> ADVICE to this user running VASP <----                  |
|                                                                             |
|     You have a (more or less) 'large supercell' and for larger cells it     |
|     might be more efficient to use real-space projection operators.         |
|     Therefore, try LREAL= Auto in the INCAR file.                           |
|     Mind: If you want to do very accurate calculations, keep the            |
|     reciprocal projection scheme (i.e. LREAL=.FALSE.).                      |
|                                                                             |
 -----------------------------------------------------------------------------

 LDA part: xc-table for Pade appr. of Perdew
 POSCAR found type information on POSCAR Li
 POSCAR found :  1 types and     432 ions
 POSCAR, INCAR and KPOINTS ok, starting setup
 FFT: planning ...
 WAVECAR not read
 entering main loop
       N       E                     dE             d eps       ncg     rms          rms(c)
DAV:   1    -0.221936857365E+03   -0.22194E+03   -0.10647E+05  3464   0.661E+02
DAV:   2    -0.757730403031E+03   -0.53579E+03   -0.48933E+03  3988   0.689E+01
DAV:   3    -0.795531027505E+03   -0.37801E+02   -0.34496E+02  4368   0.145E+01
DAV:   4    -0.796778297316E+03   -0.12473E+01   -0.12295E+01  3976   0.290E+00
DAV:   5    -0.796807006972E+03   -0.28710E-01   -0.28670E-01  4112   0.464E-01    0.966E+00
DAV:   6    -0.791939186436E+03    0.48678E+01   -0.12903E+01  4000   0.533E+00    0.766E+00
DAV:   7    -0.785153125131E+03    0.67861E+01   -0.10411E+01  4096   0.483E+00    0.455E+00
DAV:   8    -0.782643879934E+03    0.25092E+01   -0.46506E+00  3912   0.232E+00    0.209E+00
DAV:   9    -0.782495551197E+03    0.14833E+00   -0.20886E+00  3800   0.122E+00    0.128E+00
DAV:  10    -0.782501888466E+03   -0.63373E-02   -0.40015E-01  4016   0.741E-01    0.102E+00
DAV:  11    -0.782398429733E+03    0.10346E+00   -0.15496E-01  3944   0.493E-01    0.524E-01
DAV:  12    -0.782389110792E+03    0.93189E-02   -0.54561E-02  3720   0.205E-01    0.240E-01
DAV:  13    -0.782390849299E+03   -0.17385E-02   -0.11488E-02  4144   0.137E-01    0.187E-01
DAV:  14    -0.782387237173E+03    0.36121E-02   -0.43016E-03  4008   0.927E-02    0.825E-02
DAV:  15    -0.782386978927E+03    0.25825E-03   -0.15663E-03  3864   0.420E-02    0.444E-02
DAV:  16    -0.782386946989E+03    0.31938E-04   -0.56977E-04  3888   0.265E-02    0.279E-02
DAV:  17    -0.782386856442E+03    0.90547E-04   -0.19712E-04  3880   0.168E-02    0.140E-02
DAV:  18    -0.782386833953E+03    0.22489E-04   -0.52818E-05  3688   0.684E-03    0.626E-03
DAV:  19    -0.782386829675E+03    0.42774E-05   -0.83999E-06  2096   0.385E-03
   1 F= -.78238683E+03 E0= -.78234545E+03  d E =-.827606E-01
