Li                                      
           1
    20.227200    0.000000    0.000000
     0.000000   20.227200    0.000000
     0.000000    0.000000   20.227200
   Li
   432
Direct configuration=     1
   0.98405244  0.98093753  0.99780093
   0.90184162  0.09633698  0.09121304
   0.81939610  0.18329180  0.17978266
   0.73398080  0.27128037  0.23071159
   0.68707819  0.34229321  0.36040089
   0.57755510  0.38780187  0.42545098
   0.50721199  0.50082244  0.49748246
   0.39358080  0.59092240  0.56646127
   0.34209116  0.67917173  0.67646572
   0.25090450  0.76721092  0.73327397
   0.15910891  0.83450203  0.81146539
   0.08660975  0.92587499  0.92378200
   0.08011735  0.92694481  0.08320090
   0.97699090  0.01037928  0.17932434
   0.88565910  0.08681563  0.25211040
   0.82178067  0.19237184  0.33408563
   0.75551915  0.26382665  0.42502484
   0.68023210  0.34721025  0.49969976
   0.58103327  0.42645473  0.56116521
   0.49161837  0.50842445  0.63925650
   0.41242171  0.57295219  0.75583738
   0.32925872  0.65617548  0.84156804
   0.22930426  0.77917230  0.92478912
   0.15436770  0.83342459  0.00188884
   0.13782558  0.82080194  0.15526065
   0.05803164  0.90340077  0.27897248
   0.96329834  0.99015935  0.35508689
   0.88325119  0.05937999  0.41729701
   0.84512134  0.16853747  0.50789376
   0.76655692  0.29144999  0.58506968
   0.68456761  0.36488267  0.67792085
   0.57611503  0.40925329  0.74530607
   0.50111935  0.47871089  0.82702927
   0.40070785  0.56515925  0.92184414
   0.32317035  0.68450126  0.98392079
   0.25957438  0.77342658  0.10819219
   0.26334653  0.76949188  0.24687288
   0.16790462  0.83318046  0.34656995
   0.07362965  0.91942013  0.42239054
   0.98281902  0.00932584  0.50316401
   0.90857689  0.06272070  0.57340616
   0.83232325  0.16839811  0.65425942
   0.76529495  0.26528784  0.74870926
   0.67225365  0.34293271  0.82212069
   0.57920937  0.40803506  0.92852975
   0.48089958  0.49211192  0.99205235
   0.39039481  0.55719524  0.06442375
   0.34482500  0.67014058  0.14317738
   0.33743226  0.67443393  0.30541712
   0.26266574  0.76507997  0.41040961
   0.16589173  0.82843388  0.49626765
   0.08404660  0.93124007  0.58039520
   0.98573522  0.99766355  0.67563384
   0.89151771  0.08539815  0.74925664
   0.82568406  0.17653050  0.82148871
   0.77339067  0.26118969  0.92496927
   0.67769332  0.32035038  0.99997578
   0.58578211  0.41223069  0.09027069
   0.49014380  0.47673744  0.15939689
   0.42008942  0.56633539  0.23558434
   0.40638743  0.58833251  0.39738945
   0.32347239  0.66479681  0.49886599
   0.24815068  0.76528954  0.60795120
   0.15390956  0.86689379  0.65871510
   0.06436168  0.91758675  0.74368156
   0.97233703  0.99461420  0.84471437
   0.91289822  0.08301303  0.91029203
   0.83350151  0.17985288  0.01320969
   0.76640406  0.25803330  0.07330522
   0.67349195  0.33469048  0.15193335
   0.59196526  0.39065436  0.25737934
   0.51475837  0.50125310  0.34165044
   0.07911252  0.05086788  0.90492086
   0.98683553  0.17035158  0.99952615
   0.91216577  0.24865402  0.10252319
   0.83468111  0.34176098  0.15421236
   0.75625993  0.40148417  0.28089707
   0.68013583  0.47251186  0.34420573
   0.59440921  0.58186100  0.40739263
   0.49265946  0.66576713  0.51019921
   0.41953330  0.74351455  0.59765145
   0.33555566  0.85133273  0.65108842
   0.25890431  0.91561549  0.74386506
   0.17337897  0.99932682  0.82683488
   0.17010334  0.00300706  0.97685274
   0.09103053  0.05998570  0.08655213
   0.98016717  0.15241114  0.16721040
   0.90987135  0.25739460  0.24889456
   0.85974616  0.32057057  0.34515035
   0.78208714  0.40974614  0.43586308
   0.68100687  0.50764966  0.47864814
   0.59565314  0.59021240  0.56465250
   0.51428338  0.66710074  0.66641101
   0.43503576  0.76296104  0.75478742
   0.34204619  0.84429817  0.83961813
   0.23577345  0.91543094  0.90508358
   0.23040097  0.91744158  0.08464413
   0.12680527  0.99560914  0.18269866
   0.07792205  0.08489526  0.26604519
   0.95452204  0.14884665  0.32338131
   0.92203598  0.23983881  0.42531195
   0.84504623  0.32455217  0.49769654
   0.74964286  0.42249324  0.58028994
   0.66963563  0.47438842  0.65069350
   0.59249609  0.54055816  0.73465969
   0.50400352  0.64917145  0.83810693
   0.43461140  0.75196556  0.90483961
   0.31805200  0.82691396  0.98869276
   0.33751321  0.82288424  0.17714080
   0.22087015  0.90315559  0.24228440
   0.16645048  0.98798519  0.34326998
   0.06319658  0.08417514  0.40659434
   0.00540737  0.16726831  0.49805122
   0.93247466  0.24225266  0.58492074
   0.82931043  0.36749431  0.66967693
   0.75717195  0.44199854  0.77017132
   0.63267895  0.47688346  0.87105720
   0.55860780  0.58232511  0.93432232
   0.49651431  0.66828073  0.00407544
   0.43620534  0.75710260  0.07723809
   0.42654991  0.76611882  0.23186707
   0.33548283  0.84440003  0.33772653
   0.26341655  0.91472525  0.43252013
   0.16605533  0.00098666  0.49321187
   0.08757665  0.06911045  0.57982534
   0.00728999  0.14789351  0.64834018
   0.92033843  0.25061529  0.74260619
   0.86098395  0.34903885  0.82852201
   0.75813086  0.40218180  0.91562906
   0.66669658  0.50699481  0.00323767
   0.56867354  0.56000265  0.09729909
   0.49965998  0.65314679  0.14545581
   0.51725681  0.65615281  0.31368102
   0.42171768  0.73767918  0.41356616
   0.35288756  0.84004653  0.50849797
   0.26361739  0.93871053  0.58328602
   0.17077070  0.99946090  0.68776942
   0.07505602  0.05921737  0.76565116
   0.98760324  0.14270059  0.83470538
   0.92454756  0.24858590  0.92025388
   0.87054986  0.35780553  0.97908466
   0.75892244  0.40454869  0.06827235
   0.69121115  0.48385137  0.17173206
   0.58898031  0.54678968  0.23721442
   0.15035574  0.12656354  0.82198071
   0.09369271  0.23114699  0.92236182
   0.00381578  0.35242675  0.98713809
   0.92972827  0.45241758  0.06236517
   0.82517715  0.49331193  0.15328237
   0.75641024  0.59877917  0.25556713
   0.66366287  0.63812257  0.32667700
   0.57762185  0.73299655  0.41175907
   0.48845225  0.82668880  0.49760079
   0.41029681  0.93106464  0.57665158
   0.34645699  0.00463944  0.66807373
   0.25668105  0.07272016  0.75933097
   0.24026915  0.07404309  0.92905334
   0.15398301  0.16171418  0.01410387
   0.06523428  0.25709947  0.08090808
   0.99864573  0.33761212  0.16037170
   0.90077594  0.41433186  0.23329081
   0.83617791  0.51225403  0.34453949
   0.75813048  0.59485268  0.42245690
   0.65187078  0.68617492  0.50106343
   0.56863047  0.75163792  0.58063753
   0.50851138  0.84297633  0.68331288
   0.41498126  0.92209320  0.77806272
   0.34685360  0.01994364  0.83432586
   0.33956537  0.99511414  0.01153003
   0.22209680  0.06699904  0.11149073
   0.15783261  0.16764501  0.17847072
   0.06493757  0.23335903  0.27182115
   0.01296991  0.33174074  0.34056220
   0.92795716  0.43243297  0.42319001
   0.82512097  0.50360576  0.49371854
   0.74113363  0.57653533  0.61069918
   0.66522447  0.65875181  0.65618818
   0.58851051  0.74729184  0.75375380
   0.53670332  0.86616103  0.83786016
   0.41039224  0.92523869  0.90760862
   0.41420622  0.90704463  0.08220163
   0.34232873  0.97251326  0.15873340
   0.24727496  0.06871373  0.25323657
   0.17101157  0.16176355  0.33516360
   0.09366624  0.24199155  0.39071245
   0.00853515  0.31866958  0.49446387
   0.92807481  0.42063877  0.57500038
   0.83555998  0.50390778  0.67246094
   0.73026566  0.56680617  0.76098402
   0.65529122  0.65092451  0.83792961
   0.60653213  0.75363695  0.92771789
   0.51239494  0.84796044  0.00442435
   0.53364666  0.83974602  0.15078463
   0.41283391  0.92272825  0.25245970
   0.33458001  0.99969061  0.31780958
   0.26989608  0.08431926  0.40711622
   0.16155108  0.14367671  0.48695332
   0.09490649  0.24993522  0.56838882
   0.01813721  0.32889157  0.67338874
   0.94330303  0.42622522  0.74954534
   0.83764396  0.49708606  0.83463304
   0.74342473  0.57253829  0.89396084
   0.65496485  0.64403552  0.00442088
   0.59113447  0.74968059  0.08112425
   0.56216894  0.74416938  0.26176801
   0.50691952  0.86516541  0.34018790
   0.41976029  0.92556392  0.41606052
   0.34437192  0.00559950  0.50545664
   0.25508054  0.07724158  0.57737930
   0.15158689  0.14446911  0.66985335
   0.07048280  0.24372560  0.73564649
   0.99688540  0.34697084  0.84147767
   0.93415834  0.44204810  0.88266589
   0.83447379  0.50945795  0.98987540
   0.75226636  0.59554521  0.08987019
   0.67468677  0.66525601  0.15430783
   0.23574394  0.23311320  0.74462154
   0.17667602  0.32270592  0.81980800
   0.10345676  0.40826438  0.89522520
   0.00969249  0.50785120  0.98406718
   0.91967379  0.60408780  0.08362595
   0.84199286  0.67832551  0.17817714
   0.77813803  0.74310912  0.26539155
   0.66445660  0.79474038  0.34613527
   0.59198012  0.91279765  0.44311561
   0.50469030  0.99703465  0.49741501
   0.43134398  0.09676777  0.58650960
   0.31597771  0.14111699  0.66401431
   0.32623774  0.15193353  0.81391675
   0.23796723  0.23826455  0.90907176
   0.15988157  0.33520047  0.03125966
   0.07224717  0.41962155  0.09419498
   0.00073078  0.51726264  0.16175021
   0.91811302  0.59945657  0.23950598
   0.83251912  0.67199398  0.32949539
   0.77664136  0.73891734  0.41694983
   0.67344250  0.80596536  0.49822455
   0.56866187  0.91253865  0.57881883
   0.51462778  0.01385615  0.66169737
   0.41948742  0.08466428  0.75362185
   0.43111099  0.08549738  0.92340317
   0.30975629  0.14361184  0.00861044
   0.25654976  0.24903204  0.09702140
   0.14923669  0.31676385  0.18143905
   0.09880137  0.41557724  0.27855709
   0.99881211  0.50815105  0.33461849
   0.90483532  0.57956617  0.42259723
   0.83659601  0.64510265  0.53203152
   0.75457344  0.73338272  0.58556118
   0.66016604  0.81590858  0.65786812
   0.59753570  0.91965585  0.73940989
   0.52375673  0.01300991  0.82614920
   0.49877230  0.99006519  0.00610611
   0.42044525  0.07773375  0.10012679
   0.34632058  0.17670327  0.17400198
   0.24832801  0.25324872  0.26752457
   0.18342202  0.31817557  0.31610869
   0.08698738  0.41093979  0.40831944
   0.99579337  0.52223254  0.49213258
   0.91064382  0.55524384  0.60237172
   0.84023929  0.63513166  0.68120436
   0.72771944  0.73302903  0.73156615
   0.68679354  0.83607761  0.82879196
   0.59969022  0.92376424  0.92993815
   0.62593715  0.91331850  0.07519405
   0.52791924  0.97536752  0.17111260
   0.42037763  0.06554354  0.22243789
   0.33236221  0.17391061  0.32829539
   0.25950309  0.23444469  0.41512893
   0.17942689  0.32123246  0.49128048
   0.08427514  0.43393853  0.57211515
   0.02051555  0.52069037  0.68150023
   0.91880301  0.57642157  0.77334647
   0.82324675  0.66813909  0.84424933
   0.74985785  0.74888372  0.92700255
   0.69027033  0.83495788  0.99352760
   0.67240744  0.80407743  0.18969266
   0.60594966  0.91623337  0.26857662
   0.51083385  0.00871988  0.32710706
   0.41864143  0.08444025  0.41783577
   0.34360168  0.16931122  0.51096183
   0.24801714  0.25011431  0.57541820
   0.15332590  0.33915851  0.66454632
   0.09628126  0.41635047  0.76830747
   0.02379230  0.52971280  0.84086970
   0.92478987  0.60165576  0.90417792
   0.81539314  0.65863339  0.97573404
   0.75601066  0.74090429  0.08814977
   0.33284265  0.32924784  0.67162311
   0.24351796  0.41148941  0.73026807
   0.18544327  0.51205970  0.81534313
   0.08570220  0.61495253  0.90087209
   0.99212478  0.69848913  0.98394909
   0.90832311  0.73266078  0.07619131
   0.82368246  0.83560387  0.15528543
   0.73321650  0.90092297  0.26233809
   0.67724750  0.99364730  0.36018236
   0.59789493  0.10302282  0.42744171
   0.49611364  0.19001674  0.51280794
   0.41079167  0.25830315  0.57372633
   0.40915162  0.23881524  0.72101785
   0.34526630  0.31917234  0.82581676
   0.23369756  0.40271575  0.90042668
   0.14880428  0.50331326  0.98664902
   0.08824226  0.60998291  0.07645871
   0.00868442  0.67298969  0.18333804
   0.91226673  0.75058909  0.24981776
   0.82709286  0.82993646  0.34500407
   0.73894699  0.91905158  0.42542111
   0.66939124  0.99478267  0.51973187
   0.58505709  0.10435818  0.56451015
   0.52691458  0.16721517  0.64465463
   0.50228490  0.18220385  0.81962068
   0.40638788  0.22814635  0.92059561
   0.31780581  0.32721660  0.01512898
   0.24229234  0.40054303  0.07836970
   0.16288860  0.49368642  0.16024841
   0.07690836  0.58120199  0.24259455
   0.98192102  0.67716803  0.35628915
   0.89432043  0.73792745  0.42922074
   0.81678293  0.81742770  0.49593062
   0.72766593  0.89723513  0.60620031
   0.64789554  0.03486931  0.63261025
   0.60184360  0.11005389  0.74330759
   0.59493218  0.08313885  0.90690323
   0.48520369  0.15412569  0.99824961
   0.41337259  0.25728553  0.10120643
   0.34970686  0.32473134  0.17042562
   0.24590563  0.42515427  0.23894913
   0.18123643  0.52150513  0.32687437
   0.09055967  0.60035505  0.40874174
   0.98714246  0.65441459  0.51060210
   0.91347143  0.74282115  0.59170634
   0.82324440  0.83637342  0.66119766
   0.72031546  0.91342256  0.73252111
   0.66442908  0.01253383  0.83488505
   0.66376016  0.03513356  0.99629878
   0.58356844  0.10257378  0.06776549
   0.51829644  0.16095217  0.17683238
   0.43102065  0.25016237  0.28026816
   0.29846870  0.35300160  0.34075467
   0.23852386  0.43512510  0.41764506
   0.17655692  0.52996639  0.50299037
   0.08447215  0.61331385  0.57821445
   0.99580809  0.66947153  0.68235286
   0.91651858  0.76451107  0.74290643
   0.82556207  0.82686084  0.80850949
   0.73565407  0.93503700  0.91526036
   0.72663476  0.91621625  0.08803803
   0.67955283  0.99896309  0.17442446
   0.61762996  0.08650720  0.24834659
   0.50664507  0.16675223  0.32892351
   0.38202695  0.25102441  0.40772082
   0.30841990  0.33606401  0.49486108
   0.23948561  0.42490158  0.58326573
   0.16462849  0.51895031  0.66361076
   0.09139638  0.60608041  0.75434458
   0.98336767  0.69589486  0.83499670
   0.89696442  0.75696837  0.90991863
   0.81727674  0.83171073  0.99247581
   0.39787088  0.40891169  0.59463280
   0.30797192  0.49866577  0.66090189
   0.26788166  0.57502138  0.76092300
   0.19487123  0.68407407  0.84534393
   0.08430004  0.75538871  0.90536043
   0.01092246  0.82478503  0.98863129
   0.91944194  0.89095142  0.08342663
   0.83001429  0.98802709  0.15957466
   0.76735040  0.09192878  0.25000633
   0.67952716  0.17400409  0.35640586
   0.58529682  0.25379108  0.42242901
   0.48662947  0.34072117  0.48990578
   0.50985810  0.35470368  0.67363675
   0.40757990  0.41633181  0.73753390
   0.33026684  0.48051343  0.84284509
   0.26401160  0.56383634  0.91745394
   0.18174987  0.68798413  0.01290226
   0.07576425  0.74142156  0.06557697
   0.02456836  0.81462830  0.15467936
   0.90617222  0.90941475  0.23131229
   0.83353896  0.97618508  0.33479619
   0.76165293  0.05919421  0.40860577
   0.69622532  0.18560233  0.51211848
   0.59783525  0.28763130  0.57740878
   0.61216846  0.24313283  0.74042137
   0.49708791  0.31666639  0.81935335
   0.41202970  0.39347832  0.91424006
   0.32547126  0.47791896  0.98895549
   0.25122059  0.55830378  0.08451298
   0.19079557  0.68113717  0.15146397
   0.09781892  0.74863090  0.25510922
   0.96676337  0.82262115  0.34169678
   0.90465960  0.92644764  0.43113807
   0.80558186  0.99833014  0.52954972
   0.77019304  0.09126322  0.59254863
   0.69188993  0.19262746  0.65213269
   0.68749267  0.18582390  0.82236029
   0.59230287  0.22602507  0.92515423
   0.49023329  0.32629698  0.99267997
   0.39908244  0.42863551  0.08741576
   0.33324541  0.49148423  0.17349183
   0.25754785  0.56880547  0.23756221
   0.17193357  0.68093862  0.31758457
   0.08001329  0.74920275  0.42174382
   0.98594713  0.82262952  0.50673643
   0.90961782  0.91043976  0.58718885
   0.83584868  0.99851363  0.66275067
   0.75357645  0.09056067  0.73822683
   0.75972073  0.09433710  0.93501962
   0.68641725  0.17206413  0.00606484
   0.58671390  0.24862066  0.08138927
   0.47917580  0.34067357  0.15760264
   0.40926080  0.41102218  0.26715675
   0.31138437  0.50381118  0.33069378
   0.26422667  0.61033363  0.41457484
   0.16422799  0.67747007  0.48280876
   0.07142931  0.75304019  0.59809144
   0.00764563  0.83064940  0.66373045
   0.90177595  0.90871079  0.76241214
   0.80001978  0.98528455  0.83620045
   0.82442333  0.99202119  0.01343004
   0.75017350  0.08207237  0.08332344
   0.67304829  0.18186770  0.14208693
   0.59044725  0.27225673  0.25481272
   0.48388823  0.33860881  0.34049438
   0.39511873  0.43477920  0.40470028
   0.32897392  0.48654538  0.50187310
   0.23599255  0.59295345  0.58708522
   0.16499503  0.67366095  0.68498808
   0.10420790  0.75112154  0.76174480
   0.00600406  0.83401699  0.84370002
   0.88983282  0.89904897  0.93227002
