 500 500   0   0
  0.2153794E+02  0.2208300E-08  0.2208300E-08  0.2208300E-08  0.5000000E-15
  1.000000000000000E-004
  CAR 
 Li                                      
      3.24315891     -3.50756390  301      0.24650428      1.00000000
     -3.508  0.0000E+00  0.0000E+00
     -3.485  0.0000E+00  0.0000E+00
     -3.463  0.0000E+00  0.0000E+00
     -3.440  0.0000E+00  0.0000E+00
     -3.418  0.0000E+00  0.0000E+00
     -3.395  0.0000E+00  0.0000E+00
     -3.373  0.2467E-13  0.5551E-15
     -3.350  0.8470E-10  0.1906E-11
     -3.328  0.9884E-07  0.2226E-08
     -3.305  0.3844E-04  0.8671E-06
     -3.283  0.5024E-02  0.1139E-03
     -3.260  0.2234E+00  0.5141E-02
     -3.238  0.3430E+01  0.8233E-01
     -3.215  0.1850E+02  0.4987E+00
     -3.193  0.3557E+02  0.1299E+01
     -3.170  0.2456E+02  0.1852E+01
     -3.148  0.6656E+01  0.2002E+01
     -3.125  0.9010E+01  0.2204E+01
     -3.103  0.4573E+02  0.3233E+01
     -3.080  0.9721E+02  0.5421E+01
     -3.058  0.8277E+02  0.7283E+01
     -3.035  0.2833E+02  0.7921E+01
     -3.013  0.9132E+01  0.8126E+01
     -2.990  0.3537E+02  0.8922E+01
     -2.968  0.8986E+02  0.1094E+02
     -2.945  0.9208E+02  0.1302E+02
     -2.923  0.3777E+02  0.1387E+02
     -2.900  0.1127E+02  0.1412E+02
     -2.877  0.3753E+02  0.1496E+02
     -2.855  0.1052E+03  0.1733E+02
     -2.832  0.1271E+03  0.2019E+02
     -2.810  0.6575E+02  0.2167E+02
     -2.787  0.1983E+02  0.2212E+02
     -2.765  0.4408E+02  0.2311E+02
     -2.742  0.1319E+03  0.2608E+02
     -2.720  0.1871E+03  0.3029E+02
     -2.697  0.1239E+03  0.3308E+02
     -2.675  0.3775E+02  0.3393E+02
     -2.652  0.1859E+02  0.3434E+02
     -2.630  0.5924E+02  0.3568E+02
     -2.607  0.9936E+02  0.3791E+02
     -2.585  0.6984E+02  0.3948E+02
     -2.562  0.2254E+02  0.3999E+02
     -2.540  0.2394E+02  0.4053E+02
     -2.517  0.9361E+02  0.4264E+02
     -2.495  0.1807E+03  0.4670E+02
     -2.472  0.1602E+03  0.5031E+02
     -2.450  0.6677E+02  0.5181E+02
     -2.427  0.3972E+02  0.5270E+02
     -2.405  0.1185E+03  0.5537E+02
     -2.382  0.2274E+03  0.6049E+02
     -2.360  0.2381E+03  0.6584E+02
     -2.337  0.1387E+03  0.6897E+02
     -2.315  0.4343E+02  0.6994E+02
     -2.292  0.2863E+02  0.7059E+02
     -2.270  0.7605E+02  0.7230E+02
     -2.247  0.9951E+02  0.7454E+02
     -2.225  0.5357E+02  0.7574E+02
     -2.202  0.2075E+02  0.7621E+02
     -2.180  0.5970E+02  0.7755E+02
     -2.157  0.1578E+03  0.8110E+02
     -2.135  0.2059E+03  0.8574E+02
     -2.112  0.1384E+03  0.8885E+02
     -2.090  0.5451E+02  0.9008E+02
     -2.067  0.6703E+02  0.9158E+02
     -2.045  0.1685E+03  0.9538E+02
     -2.022  0.2392E+03  0.1008E+03
     -2.000  0.2014E+03  0.1053E+03
     -1.977  0.9743E+02  0.1075E+03
     -1.955  0.3713E+02  0.1083E+03
     -1.932  0.7695E+02  0.1101E+03
     -1.910  0.1631E+03  0.1137E+03
     -1.887  0.1697E+03  0.1175E+03
     -1.865  0.9107E+02  0.1196E+03
     -1.842  0.5637E+02  0.1209E+03
     -1.820  0.1299E+03  0.1238E+03
     -1.797  0.2300E+03  0.1290E+03
     -1.775  0.2311E+03  0.1342E+03
     -1.752  0.1314E+03  0.1371E+03
     -1.730  0.5469E+02  0.1383E+03
     -1.707  0.9223E+02  0.1404E+03
     -1.685  0.2062E+03  0.1451E+03
     -1.662  0.2544E+03  0.1508E+03
     -1.640  0.1681E+03  0.1546E+03
     -1.617  0.6294E+02  0.1560E+03
     -1.595  0.5521E+02  0.1572E+03
     -1.572  0.1298E+03  0.1601E+03
     -1.550  0.1754E+03  0.1641E+03
     -1.527  0.1243E+03  0.1669E+03
     -1.505  0.5388E+02  0.1681E+03
     -1.482  0.6282E+02  0.1695E+03
     -1.460  0.1302E+03  0.1724E+03
     -1.437  0.1601E+03  0.1760E+03
     -1.415  0.1198E+03  0.1787E+03
     -1.392  0.6661E+02  0.1802E+03
     -1.370  0.1046E+03  0.1826E+03
     -1.347  0.2373E+03  0.1879E+03
     -1.325  0.3412E+03  0.1956E+03
     -1.302  0.3314E+03  0.2031E+03
     -1.280  0.2180E+03  0.2080E+03
     -1.257  0.1117E+03  0.2105E+03
     -1.235  0.1420E+03  0.2137E+03
     -1.212  0.2354E+03  0.2190E+03
     -1.190  0.2304E+03  0.2242E+03
     -1.167  0.1327E+03  0.2272E+03
     -1.145  0.6131E+02  0.2285E+03
     -1.122  0.7251E+02  0.2302E+03
     -1.100  0.1394E+03  0.2333E+03
     -1.077  0.1965E+03  0.2377E+03
     -1.055  0.1590E+03  0.2413E+03
     -1.032  0.1334E+03  0.2443E+03
     -1.010  0.2079E+03  0.2490E+03
     -0.987  0.2709E+03  0.2551E+03
     -0.965  0.2540E+03  0.2608E+03
     -0.942  0.1631E+03  0.2645E+03
     -0.920  0.6067E+02  0.2658E+03
     -0.897  0.2991E+02  0.2665E+03
     -0.875  0.6645E+02  0.2680E+03
     -0.852  0.9326E+02  0.2701E+03
     -0.830  0.6793E+02  0.2716E+03
     -0.807  0.6666E+02  0.2731E+03
     -0.785  0.1691E+03  0.2769E+03
     -0.762  0.2951E+03  0.2836E+03
     -0.740  0.3322E+03  0.2910E+03
     -0.717  0.3054E+03  0.2979E+03
     -0.695  0.2551E+03  0.3037E+03
     -0.672  0.2019E+03  0.3082E+03
     -0.650  0.2076E+03  0.3129E+03
     -0.627  0.2810E+03  0.3192E+03
     -0.605  0.3086E+03  0.3261E+03
     -0.582  0.2438E+03  0.3316E+03
     -0.560  0.1621E+03  0.3353E+03
     -0.537  0.1048E+03  0.3376E+03
     -0.515  0.9459E+02  0.3398E+03
     -0.492  0.1267E+03  0.3426E+03
     -0.470  0.1483E+03  0.3460E+03
     -0.447  0.1876E+03  0.3502E+03
     -0.425  0.2054E+03  0.3548E+03
     -0.402  0.1907E+03  0.3591E+03
     -0.380  0.1816E+03  0.3632E+03
     -0.357  0.1518E+03  0.3666E+03
     -0.335  0.1379E+03  0.3697E+03
     -0.312  0.2083E+03  0.3744E+03
     -0.290  0.3000E+03  0.3811E+03
     -0.267  0.3245E+03  0.3884E+03
     -0.245  0.2714E+03  0.3945E+03
     -0.222  0.1981E+03  0.3990E+03
     -0.200  0.2061E+03  0.4036E+03
     -0.177  0.2377E+03  0.4090E+03
     -0.155  0.1913E+03  0.4133E+03
     -0.132  0.1052E+03  0.4157E+03
     -0.110  0.8007E+02  0.4175E+03
     -0.087  0.1512E+03  0.4209E+03
     -0.065  0.2517E+03  0.4265E+03
     -0.042  0.3090E+03  0.4335E+03
     -0.020  0.2899E+03  0.4400E+03
      0.003  0.2270E+03  0.4451E+03
      0.025  0.1993E+03  0.4496E+03
      0.048  0.2249E+03  0.4547E+03
      0.070  0.2295E+03  0.4598E+03
      0.093  0.1878E+03  0.4640E+03
      0.115  0.1583E+03  0.4676E+03
      0.138  0.1970E+03  0.4720E+03
      0.160  0.2501E+03  0.4777E+03
      0.183  0.2729E+03  0.4838E+03
      0.205  0.2726E+03  0.4899E+03
      0.228  0.2557E+03  0.4957E+03
      0.250  0.2289E+03  0.5008E+03
      0.273  0.2229E+03  0.5059E+03
      0.295  0.2493E+03  0.5115E+03
      0.318  0.2642E+03  0.5174E+03
      0.340  0.2451E+03  0.5229E+03
      0.363  0.2328E+03  0.5282E+03
      0.385  0.2653E+03  0.5341E+03
      0.408  0.3240E+03  0.5414E+03
      0.430  0.3683E+03  0.5497E+03
      0.453  0.3830E+03  0.5583E+03
      0.475  0.3698E+03  0.5667E+03
      0.498  0.3348E+03  0.5742E+03
      0.520  0.3070E+03  0.5811E+03
      0.543  0.2841E+03  0.5875E+03
      0.565  0.2664E+03  0.5935E+03
      0.588  0.2501E+03  0.5991E+03
      0.610  0.2387E+03  0.6045E+03
      0.633  0.2276E+03  0.6096E+03
      0.655  0.1750E+03  0.6135E+03
      0.678  0.1037E+03  0.6159E+03
      0.700  0.9727E+02  0.6181E+03
      0.723  0.1389E+03  0.6212E+03
      0.745  0.1568E+03  0.6247E+03
      0.768  0.1674E+03  0.6285E+03
      0.790  0.1703E+03  0.6323E+03
      0.813  0.1677E+03  0.6361E+03
      0.835  0.1950E+03  0.6405E+03
      0.858  0.2411E+03  0.6459E+03
      0.880  0.2680E+03  0.6519E+03
      0.903  0.2699E+03  0.6580E+03
      0.925  0.2739E+03  0.6642E+03
      0.948  0.2915E+03  0.6707E+03
      0.970  0.3095E+03  0.6777E+03
      0.993  0.3148E+03  0.6848E+03
      1.015  0.3064E+03  0.6917E+03
      1.038  0.2914E+03  0.6982E+03
      1.060  0.2783E+03  0.7045E+03
      1.083  0.2551E+03  0.7102E+03
      1.105  0.2049E+03  0.7148E+03
      1.128  0.1525E+03  0.7183E+03
      1.150  0.1541E+03  0.7217E+03
      1.173  0.1944E+03  0.7261E+03
      1.195  0.2315E+03  0.7313E+03
      1.218  0.2549E+03  0.7371E+03
      1.240  0.2570E+03  0.7428E+03
      1.263  0.2573E+03  0.7486E+03
      1.285  0.2521E+03  0.7543E+03
      1.308  0.2246E+03  0.7594E+03
      1.330  0.1994E+03  0.7639E+03
      1.353  0.1796E+03  0.7679E+03
      1.375  0.1480E+03  0.7712E+03
      1.398  0.1308E+03  0.7742E+03
      1.420  0.1451E+03  0.7774E+03
      1.443  0.1540E+03  0.7809E+03
      1.465  0.1406E+03  0.7841E+03
      1.488  0.1224E+03  0.7868E+03
      1.510  0.1054E+03  0.7892E+03
      1.533  0.9961E+02  0.7914E+03
      1.555  0.1312E+03  0.7944E+03
      1.578  0.1751E+03  0.7983E+03
      1.600  0.2040E+03  0.8029E+03
      1.623  0.2253E+03  0.8080E+03
      1.645  0.2500E+03  0.8136E+03
      1.668  0.2654E+03  0.8196E+03
      1.690  0.2748E+03  0.8258E+03
      1.713  0.2816E+03  0.8321E+03
      1.735  0.2711E+03  0.8382E+03
      1.758  0.2564E+03  0.8440E+03
      1.781  0.2404E+03  0.8494E+03
      1.803  0.2276E+03  0.8545E+03
      1.826  0.2166E+03  0.8594E+03
      1.848  0.1939E+03  0.8637E+03
      1.871  0.1725E+03  0.8676E+03
      1.893  0.1566E+03  0.8711E+03
      1.916  0.1427E+03  0.8744E+03
      1.938  0.1256E+03  0.8772E+03
      1.961  0.1016E+03  0.8795E+03
      1.983  0.1017E+03  0.8818E+03
      2.006  0.1396E+03  0.8849E+03
      2.028  0.1696E+03  0.8887E+03
      2.051  0.1810E+03  0.8928E+03
      2.073  0.1808E+03  0.8969E+03
      2.096  0.1689E+03  0.9007E+03
      2.118  0.1580E+03  0.9042E+03
      2.141  0.1593E+03  0.9078E+03
      2.163  0.1635E+03  0.9115E+03
      2.186  0.1531E+03  0.9149E+03
      2.208  0.1371E+03  0.9180E+03
      2.231  0.1268E+03  0.9209E+03
      2.253  0.1253E+03  0.9237E+03
      2.276  0.1326E+03  0.9267E+03
      2.298  0.1474E+03  0.9300E+03
      2.321  0.1579E+03  0.9335E+03
      2.343  0.1549E+03  0.9370E+03
      2.366  0.1478E+03  0.9403E+03
      2.388  0.1293E+03  0.9432E+03
      2.411  0.9113E+02  0.9453E+03
      2.433  0.7435E+02  0.9470E+03
      2.456  0.1003E+03  0.9492E+03
      2.478  0.1230E+03  0.9520E+03
      2.501  0.1397E+03  0.9551E+03
      2.523  0.1630E+03  0.9588E+03
      2.546  0.1703E+03  0.9626E+03
      2.568  0.1703E+03  0.9665E+03
      2.591  0.1777E+03  0.9705E+03
      2.613  0.1829E+03  0.9746E+03
      2.636  0.1745E+03  0.9785E+03
      2.658  0.1575E+03  0.9821E+03
      2.681  0.1329E+03  0.9850E+03
      2.703  0.8813E+02  0.9870E+03
      2.726  0.3551E+02  0.9878E+03
      2.748  0.7063E+01  0.9880E+03
      2.771  0.6681E+00  0.9880E+03
      2.793  0.1427E+01  0.9880E+03
      2.816  0.1242E+02  0.9883E+03
      2.838  0.5083E+02  0.9895E+03
      2.861  0.1061E+03  0.9918E+03
      2.883  0.1321E+03  0.9948E+03
      2.906  0.1303E+03  0.9977E+03
      2.928  0.1087E+03  0.1000E+04
      2.951  0.5996E+02  0.1002E+04
      2.973  0.1777E+02  0.1002E+04
      2.996  0.2410E+01  0.1002E+04
      3.018  0.1317E+00  0.1002E+04
      3.041  0.2671E-02  0.1002E+04
      3.063  0.1914E-04  0.1002E+04
      3.086  0.4705E-07  0.1002E+04
      3.108  0.3901E-10  0.1002E+04
      3.131  0.9868E-14  0.1002E+04
      3.153  0.0000E+00  0.1002E+04
      3.176  0.0000E+00  0.1002E+04
      3.198  0.0000E+00  0.1002E+04
      3.221  0.0000E+00  0.1002E+04
      3.243  0.0000E+00  0.1002E+04
