Li                                      
           1
    22.083000   -0.000000    0.000000
    -0.000000   22.083000    0.000000
     0.000000    0.000000   22.083000
   Li
   500
Direct configuration=     1
   0.99332690  0.99081595  0.99790542
   0.98947624  0.10537862  0.09879535
   0.00127376  0.20431308  0.20188614
   0.98785805  0.29480321  0.30577845
   0.98951253  0.40982251  0.40626464
   0.99343179  0.49931596  0.49983273
   0.99936067  0.57850561  0.61637089
   0.99598480  0.69114302  0.72026597
   0.98110971  0.80756992  0.77899407
   0.00363233  0.89329567  0.89012198
   0.08948818  0.98686098  0.10081979
   0.10243928  0.08073190  0.19838185
   0.08751064  0.19434208  0.30417900
   0.09114386  0.31304593  0.39985711
   0.09890305  0.40110791  0.50545920
   0.10915697  0.49803894  0.61298213
   0.11359265  0.60143531  0.69606426
   0.11292332  0.71686275  0.78630391
   0.10195161  0.79533715  0.89422452
   0.09966489  0.89559520  0.97995560
   0.18840398  0.98641830  0.19414404
   0.19777313  0.10365490  0.30305470
   0.19982207  0.21549181  0.40013465
   0.19382089  0.31349933  0.50289092
   0.19351764  0.41142644  0.60166152
   0.21774001  0.50095350  0.69852425
   0.20015604  0.61435871  0.80778599
   0.20663625  0.71174972  0.91030540
   0.21114085  0.80796899  0.01643191
   0.20164623  0.89553710  0.10492569
   0.30140301  0.99636200  0.28785762
   0.30199060  0.11521073  0.39405819
   0.28683969  0.19532932  0.49938183
   0.30633962  0.30027366  0.58694656
   0.30172072  0.39805719  0.68697224
   0.32118929  0.50069999  0.79912206
   0.32042106  0.58983559  0.90072028
   0.29519185  0.70145399  0.02149717
   0.31030723  0.80791930  0.10931293
   0.28915724  0.89380903  0.20855148
   0.38224328  0.00797246  0.39450828
   0.40259370  0.11722992  0.50246080
   0.39050811  0.20908348  0.60305463
   0.39993612  0.29918196  0.70287703
   0.39309238  0.40689390  0.80032982
   0.41326766  0.50817750  0.91199084
   0.41051540  0.60054016  0.01634089
   0.40255100  0.70009280  0.10476725
   0.41553189  0.78240863  0.20984927
   0.41078598  0.89096388  0.28641229
   0.49221790  0.99695470  0.49861962
   0.50579588  0.09741917  0.60426791
   0.49253611  0.20030410  0.70970040
   0.50083885  0.28708662  0.80553866
   0.48960975  0.39890080  0.90525127
   0.52266246  0.50737159  0.99710444
   0.50441433  0.61200915  0.10648885
   0.50358499  0.69686438  0.20818449
   0.50977709  0.78786491  0.29805139
   0.49544974  0.89793642  0.38752420
   0.59258442  0.00561142  0.58888341
   0.60230503  0.09485628  0.71043775
   0.59119533  0.18993985  0.81347427
   0.60921372  0.31627926  0.90708504
   0.59229684  0.40375492  0.00045542
   0.59801697  0.49996114  0.10988518
   0.61784330  0.60452947  0.20685971
   0.61386907  0.69995737  0.28782354
   0.60300945  0.79591970  0.40599520
   0.58832006  0.91640280  0.48141526
   0.69253710  0.99639671  0.70135307
   0.69545350  0.09283929  0.80268677
   0.70012233  0.19301233  0.89915717
   0.69870386  0.29738577  0.98678143
   0.69750786  0.39230921  0.09377500
   0.71865260  0.50618961  0.18938540
   0.70709117  0.59599705  0.30175890
   0.69126871  0.71167532  0.39800449
   0.71453545  0.81731083  0.50079403
   0.69545019  0.90533337  0.59061886
   0.78309244  0.99715801  0.78822773
   0.79321009  0.11469145  0.89388604
   0.81112587  0.20885667  0.01806765
   0.79172227  0.30244289  0.08410655
   0.80688260  0.38978832  0.19081716
   0.81806975  0.49848289  0.30217020
   0.81419715  0.59966597  0.40150366
   0.79743077  0.70298266  0.49938234
   0.80286951  0.79325485  0.58587267
   0.78521156  0.89625573  0.68936027
   0.89510167  0.99345843  0.89681335
   0.89697057  0.09175970  0.99409980
   0.90947111  0.19768590  0.10966523
   0.88439702  0.28245396  0.20615692
   0.89605948  0.39964208  0.31467885
   0.90582733  0.50960766  0.42064736
   0.89287103  0.59981645  0.50959358
   0.89245768  0.69104773  0.60141784
   0.88875395  0.82125032  0.68887005
   0.88443038  0.91699763  0.77148293
   0.09982705  0.09200680  0.98469938
   0.07949452  0.18896941  0.09322789
   0.09506489  0.30030395  0.20209231
   0.09634633  0.39466182  0.29601719
   0.09606100  0.50713657  0.41341541
   0.09702757  0.58715561  0.52305380
   0.08193958  0.69623492  0.61762968
   0.08944378  0.80451845  0.70088696
   0.11064545  0.90316792  0.79549570
   0.09551007  0.98996649  0.87970088
   0.19440869  0.08623751  0.09717570
   0.19657359  0.20129739  0.19362144
   0.18989020  0.30935880  0.30647788
   0.19637870  0.40530277  0.39879450
   0.19927593  0.52006920  0.51102763
   0.19959038  0.60659049  0.60313181
   0.19321216  0.71097624  0.69771707
   0.21248510  0.80176454  0.79899165
   0.20534644  0.89872950  0.90470022
   0.18587484  0.99454343  0.98609872
   0.29207930  0.09909069  0.20509831
   0.28803240  0.21929241  0.29901725
   0.28413774  0.29850142  0.41143866
   0.29859406  0.41517033  0.49673155
   0.29524153  0.49820009  0.60711985
   0.31105684  0.59951668  0.68874767
   0.31813315  0.69911958  0.80134053
   0.29861160  0.80550938  0.90712310
   0.29566226  0.91199455  0.00736344
   0.29744876  0.00258639  0.10640685
   0.38777311  0.10583716  0.28886556
   0.40863053  0.19236187  0.39189185
   0.38187745  0.29335747  0.49249986
   0.40231943  0.37742516  0.59258086
   0.40467201  0.48846784  0.67853783
   0.41265827  0.59336276  0.80519096
   0.41352774  0.69422949  0.90930752
   0.40873338  0.79764067  0.99989274
   0.39359246  0.91863065  0.10629260
   0.40685952  0.00565305  0.19823763
   0.47951752  0.09950093  0.39759634
   0.50230679  0.21346395  0.51655579
   0.49853329  0.29741123  0.61138855
   0.49047580  0.38138852  0.70548639
   0.50091199  0.48353870  0.79846200
   0.51008108  0.59305771  0.90143304
   0.51102691  0.69698019  0.00617754
   0.49534574  0.79724790  0.11088365
   0.50530258  0.91046044  0.20304950
   0.49362125  0.00327951  0.30068282
   0.59547312  0.11249728  0.49499641
   0.60630679  0.20790466  0.62061183
   0.59761040  0.28046096  0.71350958
   0.58781533  0.38490375  0.80420957
   0.61245784  0.48885940  0.89648712
   0.59456259  0.59665243  0.01204419
   0.61608273  0.70599687  0.10211403
   0.61978756  0.81019775  0.19579091
   0.60654899  0.90430790  0.31115148
   0.59092048  0.00426599  0.40669149
   0.69124876  0.10610360  0.58793647
   0.69556943  0.21542555  0.70121375
   0.69878922  0.29764401  0.80258797
   0.70806829  0.40999995  0.89081854
   0.70903363  0.51221309  0.00067134
   0.71401588  0.59276720  0.11238826
   0.71257560  0.71054757  0.19114674
   0.69547624  0.80690814  0.30160103
   0.69861745  0.90622479  0.40077345
   0.69396130  0.01421595  0.49343125
   0.79196959  0.11514642  0.70171137
   0.80599320  0.21133281  0.79292530
   0.80436552  0.29582103  0.89179831
   0.79154366  0.39166303  0.99861478
   0.79732647  0.48403043  0.08377513
   0.80317170  0.59965084  0.19852962
   0.79549631  0.70776407  0.32100144
   0.79281567  0.81187831  0.41428553
   0.79945847  0.90032275  0.50658754
   0.79645485  0.02161603  0.60226532
   0.90975601  0.10336426  0.79961829
   0.91148404  0.20927693  0.89206450
   0.90764087  0.28967285  0.00100164
   0.89629469  0.38702013  0.08410024
   0.91228783  0.50438542  0.18839193
   0.90087333  0.59239156  0.30396940
   0.90515302  0.69417164  0.41652815
   0.90093769  0.81366571  0.50840533
   0.87756297  0.91094676  0.60637148
   0.89103945  0.00928824  0.69387352
   0.01089911  0.08712454  0.89146744
   0.99076483  0.19407236  0.98960890
   0.00354428  0.29649289  0.09306583
   0.98476186  0.38439451  0.19990622
   0.99505230  0.49972971  0.31570288
   0.00315216  0.59567373  0.42573342
   0.99578411  0.69836005  0.53012044
   0.98257622  0.81073733  0.60887229
   0.00369642  0.93226300  0.69587253
   0.00815340  0.99693903  0.78815822
   0.21048871  0.19127576  0.99692768
   0.19780799  0.29920253  0.09611235
   0.20031446  0.40477315  0.17956286
   0.18861081  0.48699106  0.31396737
   0.19503308  0.59088444  0.41267843
   0.20098303  0.68175492  0.50175799
   0.20889701  0.78915953  0.59624616
   0.20640755  0.89739010  0.71239667
   0.21226312  0.01056208  0.79591623
   0.21824365  0.08993059  0.88253955
   0.29708358  0.20382715  0.09240695
   0.30113584  0.30615434  0.18989127
   0.29195454  0.40634280  0.30545829
   0.32256227  0.50224517  0.40619089
   0.31141939  0.59040064  0.51187629
   0.31901797  0.69707392  0.60433141
   0.31600913  0.81059121  0.69536573
   0.30881246  0.89835094  0.81333939
   0.29786586  0.97948628  0.90153744
   0.29560471  0.09506503  0.99959049
   0.39073318  0.20847126  0.20588325
   0.39017621  0.30588685  0.30295149
   0.39372736  0.40202285  0.41143973
   0.39943946  0.49817201  0.50769421
   0.41985216  0.60081445  0.59070326
   0.40479647  0.71370147  0.71294701
   0.41656419  0.81258537  0.82394768
   0.40655128  0.89407617  0.89576945
   0.39599060  0.00293000  0.99311560
   0.39057617  0.10761826  0.10269580
   0.49593743  0.19159410  0.30818807
   0.49083476  0.30186088  0.38913495
   0.51623796  0.38992606  0.49654854
   0.50818421  0.48225208  0.60061145
   0.50036231  0.59720604  0.69467543
   0.48836933  0.69632405  0.79282357
   0.50190668  0.82351904  0.90516216
   0.50522152  0.91303350  0.02272837
   0.49858285  0.01417664  0.10648977
   0.48940265  0.09814089  0.20698869
   0.58582131  0.19096469  0.39752500
   0.60935741  0.29039201  0.49359895
   0.60220116  0.38928971  0.61992044
   0.59952014  0.48022273  0.70048097
   0.59184695  0.60702497  0.79489620
   0.59052691  0.70301262  0.89519778
   0.60030392  0.78702616  0.00898111
   0.60468709  0.88835162  0.09496592
   0.61880451  0.99730763  0.19140920
   0.60028413  0.08810006  0.29326192
   0.70280962  0.20049655  0.49350864
   0.70580472  0.31053389  0.60890784
   0.68983990  0.40292712  0.71810988
   0.69122244  0.49370924  0.78054453
   0.69282047  0.60089216  0.89706491
   0.70115954  0.69221005  0.99793282
   0.71906606  0.79206379  0.09174733
   0.70737313  0.88981253  0.19212888
   0.70904488  0.99698117  0.31164902
   0.70145782  0.11910494  0.40838430
   0.80110280  0.19567605  0.60594904
   0.81441011  0.31237998  0.71102769
   0.79542969  0.39055484  0.80706362
   0.80176841  0.50566681  0.89164516
   0.79399660  0.59981674  0.98907073
   0.79557374  0.68986948  0.08731941
   0.81306648  0.79136805  0.20451053
   0.80816688  0.89673604  0.29844950
   0.79682387  0.00077091  0.40481055
   0.82570053  0.09856541  0.49835146
   0.91535288  0.19123455  0.70339444
   0.92424070  0.29315552  0.78461773
   0.90754820  0.37709333  0.90316486
   0.88756268  0.49690755  0.98555585
   0.90968955  0.60024191  0.08362437
   0.89805606  0.68443029  0.20368365
   0.90564989  0.78628545  0.29683883
   0.89777504  0.91218220  0.40220501
   0.89837611  0.98390704  0.49854800
   0.91085842  0.10983429  0.59155310
   0.01224516  0.19316284  0.80870354
   0.00972402  0.30269078  0.89059506
   0.01197174  0.40604005  0.00640489
   0.00058983  0.50387004  0.07853595
   0.00300396  0.60287204  0.19169453
   0.99375017  0.68200713  0.30790378
   0.99413661  0.79740485  0.41465898
   0.01223654  0.89008532  0.50801178
   0.99605711  0.99673817  0.59785255
   0.02048841  0.10809710  0.67843989
   0.12350094  0.19501076  0.90679687
   0.11059912  0.28571070  0.00751070
   0.09544932  0.40250391  0.09614415
   0.09520241  0.49724505  0.20774251
   0.10080388  0.61019585  0.30446272
   0.08577952  0.69822894  0.41411046
   0.07681730  0.79870617  0.50949343
   0.11532225  0.89420430  0.60903648
   0.09973375  0.01305703  0.70430705
   0.11262916  0.11405147  0.78654527
   0.29982547  0.30458355  0.01318320
   0.30578421  0.40246899  0.09540303
   0.32123280  0.49532652  0.20180454
   0.31199176  0.59823882  0.30555008
   0.30503157  0.69053314  0.40782483
   0.29616508  0.79404219  0.49773291
   0.29815614  0.89232809  0.59946250
   0.31312489  0.99590818  0.70268597
   0.30287623  0.10591624  0.79716111
   0.30288687  0.21056596  0.89779140
   0.41254497  0.29415369  0.10034661
   0.41340389  0.39201320  0.19393213
   0.41115437  0.49188815  0.30172721
   0.40665419  0.60248383  0.40218035
   0.41108652  0.69863829  0.49352912
   0.39678586  0.79546083  0.59632028
   0.40388682  0.89340995  0.70044960
   0.40101156  0.99647355  0.79645606
   0.39272496  0.09633222  0.89435361
   0.39058493  0.20002943  0.00157083
   0.51165047  0.28509844  0.19670572
   0.49917083  0.38827424  0.29353688
   0.50539081  0.49705487  0.40087094
   0.51198357  0.59425036  0.50122310
   0.50641412  0.69289755  0.60779860
   0.49059085  0.80718840  0.70835416
   0.50662465  0.90609447  0.79837573
   0.49930620  0.00664023  0.91206001
   0.49513423  0.09706852  0.99686943
   0.50360928  0.19714840  0.09429209
   0.60016233  0.29772772  0.30287988
   0.60189187  0.39801600  0.40984494
   0.60579535  0.49449256  0.49490952
   0.60890743  0.60170631  0.59529308
   0.59623898  0.70223712  0.69854090
   0.59153542  0.81595400  0.80518546
   0.61081859  0.89811267  0.90803905
   0.60453690  0.01177610  0.00984694
   0.60247298  0.10176218  0.09672701
   0.59725310  0.19857300  0.19828398
   0.70522924  0.29213994  0.39692591
   0.70179103  0.39694934  0.49510058
   0.68230507  0.50063323  0.58910231
   0.68047609  0.61102017  0.69907788
   0.68592123  0.70479622  0.80804127
   0.69522470  0.79908814  0.89647900
   0.67979634  0.87817861  0.00961651
   0.70886450  0.98053502  0.09504527
   0.69938214  0.09554082  0.20207684
   0.69351945  0.20227354  0.30069498
   0.80247032  0.29145546  0.51673949
   0.80487694  0.40939918  0.60376900
   0.79479616  0.50219057  0.70300325
   0.79222629  0.59646609  0.81141307
   0.79410377  0.70546962  0.89518878
   0.79937326  0.78371072  0.98043856
   0.81098924  0.90123028  0.08902037
   0.81344775  0.00428253  0.20322375
   0.79320531  0.09282303  0.29832319
   0.80559290  0.18529115  0.39546706
   0.89748507  0.29483746  0.60638565
   0.90041097  0.38881653  0.68743337
   0.90455928  0.48931550  0.79593681
   0.89410438  0.59923498  0.88508312
   0.88851388  0.70278188  0.98562464
   0.89448771  0.78231229  0.09319114
   0.90986703  0.89158870  0.20667604
   0.91498414  0.00444353  0.29814031
   0.90418042  0.06547134  0.39139132
   0.91297822  0.19322844  0.49306164
   0.02064063  0.31052374  0.70624385
   0.01162324  0.39773146  0.80483628
   0.99449817  0.49805442  0.89654345
   0.00825717  0.60539275  0.98675874
   0.99715073  0.68833332  0.08668142
   0.98367258  0.78179536  0.19340524
   0.00292750  0.89054755  0.30694227
   0.00422202  0.99362301  0.41289072
   0.99689426  0.09812358  0.50053012
   0.01157054  0.21046900  0.60223980
   0.11325600  0.30162740  0.79928451
   0.10150539  0.40103041  0.90028531
   0.10556236  0.52088610  0.99917078
   0.08438419  0.59878113  0.09706444
   0.08721813  0.70595941  0.18352181
   0.08944254  0.79686225  0.29002929
   0.09097723  0.88358217  0.40936811
   0.12236746  0.98645819  0.50635319
   0.11101663  0.09319876  0.59171884
   0.10681756  0.20339283  0.70229031
   0.20773737  0.31510041  0.90774932
   0.19949432  0.40453619  0.99985821
   0.20801599  0.50925354  0.11465503
   0.20216302  0.59893332  0.20450345
   0.19253978  0.70277616  0.30430197
   0.19598705  0.78973366  0.40388588
   0.21124717  0.89222092  0.50613431
   0.21198412  0.00119565  0.60149377
   0.20846385  0.10823139  0.70855880
   0.20556036  0.20651617  0.78620388
   0.38971377  0.40179688  0.00381956
   0.41577958  0.52089786  0.10270203
   0.39188312  0.61989493  0.19781054
   0.38133493  0.69956725  0.31763892
   0.39622604  0.80961125  0.39892622
   0.39275608  0.90653747  0.50049978
   0.39669931  0.98225097  0.59336659
   0.40333394  0.09268572  0.69136052
   0.39989852  0.20450541  0.80352241
   0.38251431  0.31050844  0.88942465
   0.49800316  0.40745627  0.09713766
   0.49866599  0.50422956  0.19858217
   0.49558923  0.60466119  0.28927440
   0.49652174  0.69560476  0.38778885
   0.50175512  0.79833361  0.50611188
   0.50220870  0.90133516  0.58890211
   0.49796132  0.00168564  0.69128561
   0.49657467  0.10741923  0.79317426
   0.47942684  0.19710346  0.90264805
   0.49207164  0.30167146  0.99466805
   0.60402124  0.40061356  0.19056787
   0.59297373  0.49771742  0.27690306
   0.59328937  0.60915135  0.39898130
   0.59696950  0.70543013  0.49167892
   0.60408195  0.80812214  0.58474996
   0.59328284  0.90362275  0.69824621
   0.59292485  0.00580603  0.79686736
   0.59304632  0.10676948  0.90362018
   0.58601744  0.20120300  0.00769994
   0.59408335  0.30295569  0.10137358
   0.69678003  0.38503357  0.30426054
   0.70872129  0.49321747  0.39399070
   0.67824115  0.60759111  0.49552983
   0.68483065  0.71000033  0.59201320
   0.69167862  0.79825172  0.68933107
   0.68222561  0.90300421  0.79150368
   0.68187658  0.00125456  0.90122886
   0.69376569  0.11184822  0.01312612
   0.69712617  0.19734725  0.10167619
   0.70170927  0.30735194  0.19675076
   0.79618323  0.39938234  0.41441896
   0.78454067  0.51043810  0.50613464
   0.77478013  0.61078091  0.60384711
   0.79794998  0.71125930  0.71082640
   0.78812921  0.80249384  0.80269036
   0.78276332  0.90658237  0.88185004
   0.78240418  0.99575328  0.99752953
   0.80260390  0.09644814  0.10469000
   0.79529285  0.19577848  0.20156724
   0.81181671  0.29807551  0.30857041
   0.91430197  0.40706267  0.51554050
   0.88853346  0.50469507  0.60350853
   0.89254983  0.59296639  0.71708198
   0.88680902  0.68868603  0.79188222
   0.88725981  0.81265465  0.88019066
   0.88540209  0.89771665  0.98559068
   0.89867336  0.00116311  0.08839757
   0.90501370  0.10810149  0.20440563
   0.89817671  0.19073184  0.31246435
   0.90141333  0.29076755  0.40908299
   0.99809849  0.40817723  0.59092142
   0.98658317  0.48887702  0.69781756
   0.01525451  0.59476042  0.78959679
   0.99321249  0.69747490  0.87789871
   0.98597721  0.80300010  0.99620981
   0.98125321  0.90105044  0.09177455
   0.98767911  0.00272455  0.20313480
   0.01732532  0.08787352  0.29583323
   0.00914271  0.19357651  0.40017430
   0.00156002  0.29735822  0.50740285
   0.09568243  0.41090717  0.71015350
   0.11452947  0.51275813  0.80426433
   0.10530419  0.60494718  0.89672063
   0.09387545  0.70301518  0.99642091
   0.07594814  0.80029490  0.08352687
   0.08555425  0.89515027  0.19828674
   0.09412496  0.98359779  0.29078770
   0.10279916  0.08646448  0.39695109
   0.09836776  0.20963033  0.50670007
   0.11402068  0.30308979  0.60250782
   0.20472099  0.41585212  0.78833692
   0.20620769  0.50353286  0.90045561
   0.21952075  0.60133608  0.01051345
   0.19702654  0.71186044  0.09597383
   0.18806965  0.80964602  0.19206782
   0.18514069  0.89874981  0.30516132
   0.20698312  0.99141883  0.39300287
   0.19361790  0.08348409  0.48353433
   0.20709598  0.19167943  0.57979173
   0.20289963  0.30888892  0.68003905
   0.29703311  0.41695458  0.91426913
   0.31653998  0.50720591  0.01675557
   0.29601853  0.60581306  0.11131657
   0.28758097  0.71385747  0.20539032
   0.29254878  0.80040434  0.30819934
   0.30578716  0.90203667  0.39079988
   0.30315101  0.02150191  0.50125550
   0.30307594  0.10734441  0.59338758
   0.28951416  0.20293632  0.69676450
   0.28105548  0.30207317  0.79411560
