 504 504   0   0
  0.2106490E+02  0.2170700E-08  0.2148436E-08  0.2276500E-08  0.5000000E-15
  1.000000000000000E-004
  CAR 
 Li                                      
      3.33226245     -3.48390465  301      0.30457984      1.00000000
     -3.484  0.0000E+00  0.0000E+00
     -3.461  0.0000E+00  0.0000E+00
     -3.438  0.0000E+00  0.0000E+00
     -3.416  0.0000E+00  0.0000E+00
     -3.393  0.0000E+00  0.0000E+00
     -3.370  0.0000E+00  0.0000E+00
     -3.348  0.1222E-13  0.2776E-15
     -3.325  0.5040E-10  0.1145E-11
     -3.302  0.6747E-07  0.1534E-08
     -3.279  0.2945E-04  0.6706E-06
     -3.257  0.4228E-02  0.9673E-04
     -3.234  0.2022E+00  0.4690E-02
     -3.211  0.3270E+01  0.7900E-01
     -3.189  0.1822E+02  0.4930E+00
     -3.166  0.3553E+02  0.1300E+01
     -3.143  0.2444E+02  0.1855E+01
     -3.120  0.6776E+01  0.2009E+01
     -3.098  0.1083E+02  0.2256E+01
     -3.075  0.4796E+02  0.3345E+01
     -3.052  0.9414E+02  0.5484E+01
     -3.029  0.7934E+02  0.7287E+01
     -3.007  0.2800E+02  0.7923E+01
     -2.984  0.1062E+02  0.8164E+01
     -2.961  0.3925E+02  0.9056E+01
     -2.939  0.8958E+02  0.1109E+02
     -2.916  0.8669E+02  0.1306E+02
     -2.893  0.3689E+02  0.1390E+02
     -2.870  0.1964E+02  0.1435E+02
     -2.848  0.4936E+02  0.1547E+02
     -2.825  0.9380E+02  0.1760E+02
     -2.802  0.1092E+03  0.2008E+02
     -2.780  0.6717E+02  0.2161E+02
     -2.757  0.3245E+02  0.2234E+02
     -2.734  0.6539E+02  0.2383E+02
     -2.711  0.1287E+03  0.2675E+02
     -2.689  0.1546E+03  0.3027E+02
     -2.666  0.1125E+03  0.3282E+02
     -2.643  0.4731E+02  0.3390E+02
     -2.621  0.3175E+02  0.3462E+02
     -2.598  0.6442E+02  0.3608E+02
     -2.575  0.8621E+02  0.3804E+02
     -2.552  0.6671E+02  0.3956E+02
     -2.530  0.4623E+02  0.4061E+02
     -2.507  0.6138E+02  0.4200E+02
     -2.484  0.9143E+02  0.4408E+02
     -2.461  0.1173E+03  0.4674E+02
     -2.439  0.1250E+03  0.4958E+02
     -2.416  0.1113E+03  0.5211E+02
     -2.393  0.1060E+03  0.5452E+02
     -2.371  0.1242E+03  0.5734E+02
     -2.348  0.1607E+03  0.6100E+02
     -2.325  0.1816E+03  0.6512E+02
     -2.302  0.1447E+03  0.6841E+02
     -2.280  0.8524E+02  0.7035E+02
     -2.257  0.5309E+02  0.7155E+02
     -2.234  0.4657E+02  0.7261E+02
     -2.212  0.6579E+02  0.7411E+02
     -2.189  0.6695E+02  0.7563E+02
     -2.166  0.6559E+02  0.7712E+02
     -2.143  0.1039E+03  0.7948E+02
     -2.121  0.1377E+03  0.8261E+02
     -2.098  0.1510E+03  0.8604E+02
     -2.075  0.1463E+03  0.8936E+02
     -2.053  0.1137E+03  0.9195E+02
     -2.030  0.1002E+03  0.9422E+02
     -2.007  0.1262E+03  0.9709E+02
     -1.984  0.1655E+03  0.1008E+03
     -1.962  0.1955E+03  0.1053E+03
     -1.939  0.1720E+03  0.1092E+03
     -1.916  0.9476E+02  0.1114E+03
     -1.893  0.3929E+02  0.1122E+03
     -1.871  0.5829E+02  0.1136E+03
     -1.848  0.1175E+03  0.1162E+03
     -1.825  0.1482E+03  0.1196E+03
     -1.803  0.1376E+03  0.1227E+03
     -1.780  0.1389E+03  0.1259E+03
     -1.757  0.1612E+03  0.1296E+03
     -1.734  0.1787E+03  0.1336E+03
     -1.712  0.1808E+03  0.1377E+03
     -1.689  0.1480E+03  0.1411E+03
     -1.666  0.1158E+03  0.1437E+03
     -1.644  0.1242E+03  0.1465E+03
     -1.621  0.1468E+03  0.1499E+03
     -1.598  0.1693E+03  0.1537E+03
     -1.575  0.1598E+03  0.1574E+03
     -1.553  0.1225E+03  0.1601E+03
     -1.530  0.9847E+02  0.1624E+03
     -1.507  0.1047E+03  0.1648E+03
     -1.484  0.1113E+03  0.1673E+03
     -1.462  0.9638E+02  0.1695E+03
     -1.439  0.1017E+03  0.1718E+03
     -1.416  0.1378E+03  0.1749E+03
     -1.394  0.1477E+03  0.1783E+03
     -1.371  0.1422E+03  0.1815E+03
     -1.348  0.1611E+03  0.1852E+03
     -1.325  0.1739E+03  0.1891E+03
     -1.303  0.1664E+03  0.1929E+03
     -1.280  0.1773E+03  0.1969E+03
     -1.257  0.2092E+03  0.2017E+03
     -1.235  0.2336E+03  0.2070E+03
     -1.212  0.2273E+03  0.2121E+03
     -1.189  0.2036E+03  0.2168E+03
     -1.166  0.1803E+03  0.2209E+03
     -1.144  0.1636E+03  0.2246E+03
     -1.121  0.1465E+03  0.2279E+03
     -1.098  0.1180E+03  0.2306E+03
     -1.076  0.9546E+02  0.2328E+03
     -1.053  0.1215E+03  0.2355E+03
     -1.030  0.1602E+03  0.2392E+03
     -1.007  0.1601E+03  0.2428E+03
     -0.985  0.1472E+03  0.2461E+03
     -0.962  0.1549E+03  0.2497E+03
     -0.939  0.1789E+03  0.2537E+03
     -0.916  0.2074E+03  0.2584E+03
     -0.894  0.2023E+03  0.2630E+03
     -0.871  0.1662E+03  0.2668E+03
     -0.848  0.1369E+03  0.2699E+03
     -0.826  0.1246E+03  0.2728E+03
     -0.803  0.1489E+03  0.2761E+03
     -0.780  0.1714E+03  0.2800E+03
     -0.757  0.1519E+03  0.2835E+03
     -0.735  0.1477E+03  0.2868E+03
     -0.712  0.1677E+03  0.2906E+03
     -0.689  0.1917E+03  0.2950E+03
     -0.667  0.2256E+03  0.3001E+03
     -0.644  0.2408E+03  0.3056E+03
     -0.621  0.2215E+03  0.3106E+03
     -0.598  0.2011E+03  0.3152E+03
     -0.576  0.1992E+03  0.3197E+03
     -0.553  0.2286E+03  0.3249E+03
     -0.530  0.2447E+03  0.3305E+03
     -0.508  0.2164E+03  0.3354E+03
     -0.485  0.1772E+03  0.3394E+03
     -0.462  0.1498E+03  0.3428E+03
     -0.439  0.1655E+03  0.3466E+03
     -0.417  0.1864E+03  0.3508E+03
     -0.394  0.1702E+03  0.3547E+03
     -0.371  0.1458E+03  0.3580E+03
     -0.348  0.1549E+03  0.3615E+03
     -0.326  0.1880E+03  0.3658E+03
     -0.303  0.2040E+03  0.3704E+03
     -0.280  0.1975E+03  0.3749E+03
     -0.258  0.1970E+03  0.3794E+03
     -0.235  0.1998E+03  0.3839E+03
     -0.212  0.2132E+03  0.3888E+03
     -0.189  0.2319E+03  0.3940E+03
     -0.167  0.2512E+03  0.3998E+03
     -0.144  0.2798E+03  0.4061E+03
     -0.121  0.2776E+03  0.4124E+03
     -0.099  0.2308E+03  0.4177E+03
     -0.076  0.1903E+03  0.4220E+03
     -0.053  0.1890E+03  0.4263E+03
     -0.030  0.2057E+03  0.4310E+03
     -0.008  0.2116E+03  0.4358E+03
      0.015  0.2061E+03  0.4404E+03
      0.038  0.2008E+03  0.4450E+03
      0.061  0.2061E+03  0.4497E+03
      0.083  0.2056E+03  0.4544E+03
      0.106  0.1938E+03  0.4588E+03
      0.129  0.1901E+03  0.4631E+03
      0.151  0.1967E+03  0.4676E+03
      0.174  0.1961E+03  0.4720E+03
      0.197  0.1910E+03  0.4764E+03
      0.220  0.1993E+03  0.4809E+03
      0.242  0.2280E+03  0.4861E+03
      0.265  0.2655E+03  0.4921E+03
      0.288  0.2960E+03  0.4988E+03
      0.310  0.3075E+03  0.5058E+03
      0.333  0.3046E+03  0.5127E+03
      0.356  0.2943E+03  0.5194E+03
      0.379  0.2928E+03  0.5261E+03
      0.401  0.2996E+03  0.5329E+03
      0.424  0.2997E+03  0.5397E+03
      0.447  0.2950E+03  0.5464E+03
      0.469  0.2860E+03  0.5529E+03
      0.492  0.2611E+03  0.5588E+03
      0.515  0.2420E+03  0.5643E+03
      0.538  0.2393E+03  0.5697E+03
      0.560  0.2490E+03  0.5754E+03
      0.583  0.2578E+03  0.5813E+03
      0.606  0.2441E+03  0.5868E+03
      0.629  0.2138E+03  0.5917E+03
      0.651  0.1982E+03  0.5962E+03
      0.674  0.2042E+03  0.6008E+03
      0.697  0.2135E+03  0.6057E+03
      0.719  0.2203E+03  0.6107E+03
      0.742  0.2233E+03  0.6157E+03
      0.765  0.2098E+03  0.6205E+03
      0.788  0.1906E+03  0.6248E+03
      0.810  0.1881E+03  0.6291E+03
      0.833  0.1983E+03  0.6336E+03
      0.856  0.2124E+03  0.6384E+03
      0.878  0.2265E+03  0.6436E+03
      0.901  0.2434E+03  0.6491E+03
      0.924  0.2562E+03  0.6549E+03
      0.947  0.2669E+03  0.6610E+03
      0.969  0.2603E+03  0.6669E+03
      0.992  0.2405E+03  0.6724E+03
      1.015  0.2359E+03  0.6777E+03
      1.037  0.2367E+03  0.6831E+03
      1.060  0.2271E+03  0.6883E+03
      1.083  0.2224E+03  0.6933E+03
      1.106  0.2251E+03  0.6984E+03
      1.128  0.2296E+03  0.7037E+03
      1.151  0.2344E+03  0.7090E+03
      1.174  0.2308E+03  0.7142E+03
      1.197  0.2212E+03  0.7193E+03
      1.219  0.2210E+03  0.7243E+03
      1.242  0.2188E+03  0.7293E+03
      1.265  0.2022E+03  0.7338E+03
      1.287  0.1941E+03  0.7383E+03
      1.310  0.2031E+03  0.7429E+03
      1.333  0.2147E+03  0.7477E+03
      1.356  0.2172E+03  0.7527E+03
      1.378  0.2077E+03  0.7574E+03
      1.401  0.2120E+03  0.7622E+03
      1.424  0.2301E+03  0.7674E+03
      1.446  0.2292E+03  0.7727E+03
      1.469  0.2195E+03  0.7776E+03
      1.492  0.2251E+03  0.7828E+03
      1.515  0.2267E+03  0.7879E+03
      1.537  0.2234E+03  0.7930E+03
      1.560  0.2256E+03  0.7981E+03
      1.583  0.2279E+03  0.8033E+03
      1.606  0.2289E+03  0.8085E+03
      1.628  0.2325E+03  0.8138E+03
      1.651  0.2329E+03  0.8191E+03
      1.674  0.2311E+03  0.8243E+03
      1.696  0.2277E+03  0.8295E+03
      1.719  0.2229E+03  0.8345E+03
      1.742  0.2132E+03  0.8394E+03
      1.765  0.2077E+03  0.8441E+03
      1.787  0.2092E+03  0.8489E+03
      1.810  0.2026E+03  0.8535E+03
      1.833  0.1973E+03  0.8580E+03
      1.855  0.1979E+03  0.8624E+03
      1.878  0.1954E+03  0.8669E+03
      1.901  0.1929E+03  0.8713E+03
      1.924  0.2030E+03  0.8759E+03
      1.946  0.2086E+03  0.8806E+03
      1.969  0.1975E+03  0.8851E+03
      1.992  0.1823E+03  0.8892E+03
      2.014  0.1698E+03  0.8931E+03
      2.037  0.1640E+03  0.8968E+03
      2.060  0.1626E+03  0.9005E+03
      2.083  0.1592E+03  0.9041E+03
      2.105  0.1604E+03  0.9078E+03
      2.128  0.1595E+03  0.9114E+03
      2.151  0.1501E+03  0.9148E+03
      2.174  0.1587E+03  0.9184E+03
      2.196  0.1687E+03  0.9223E+03
      2.219  0.1639E+03  0.9260E+03
      2.242  0.1539E+03  0.9295E+03
      2.264  0.1367E+03  0.9326E+03
      2.287  0.1214E+03  0.9353E+03
      2.310  0.1203E+03  0.9381E+03
      2.333  0.1316E+03  0.9411E+03
      2.355  0.1427E+03  0.9443E+03
      2.378  0.1450E+03  0.9476E+03
      2.401  0.1478E+03  0.9510E+03
      2.423  0.1523E+03  0.9544E+03
      2.446  0.1511E+03  0.9579E+03
      2.469  0.1428E+03  0.9611E+03
      2.492  0.1498E+03  0.9645E+03
      2.514  0.1500E+03  0.9679E+03
      2.537  0.1370E+03  0.9710E+03
      2.560  0.1322E+03  0.9740E+03
      2.582  0.1238E+03  0.9768E+03
      2.605  0.1270E+03  0.9797E+03
      2.628  0.1335E+03  0.9828E+03
      2.651  0.1197E+03  0.9855E+03
      2.673  0.1045E+03  0.9879E+03
      2.696  0.1105E+03  0.9904E+03
      2.719  0.1205E+03  0.9931E+03
      2.742  0.1155E+03  0.9957E+03
      2.764  0.1072E+03  0.9982E+03
      2.787  0.1001E+03  0.1000E+04
      2.810  0.8747E+02  0.1002E+04
      2.832  0.6242E+02  0.1004E+04
      2.855  0.4432E+02  0.1005E+04
      2.878  0.3607E+02  0.1006E+04
      2.901  0.3275E+02  0.1006E+04
      2.923  0.3617E+02  0.1007E+04
      2.946  0.2545E+02  0.1008E+04
      2.969  0.1066E+02  0.1008E+04
      2.991  0.1705E+02  0.1008E+04
      3.014  0.3224E+02  0.1009E+04
      3.037  0.2612E+02  0.1010E+04
      3.060  0.8777E+01  0.1010E+04
      3.082  0.1196E+01  0.1010E+04
      3.105  0.6276E-01  0.1010E+04
      3.128  0.1199E-02  0.1010E+04
      3.150  0.7967E-05  0.1010E+04
      3.173  0.1783E-07  0.1010E+04
      3.196  0.1318E-10  0.1010E+04
      3.219  0.4886E-14  0.1010E+04
      3.241  0.0000E+00  0.1010E+04
      3.264  0.0000E+00  0.1010E+04
      3.287  0.0000E+00  0.1010E+04
      3.310  0.0000E+00  0.1010E+04
      3.332  0.0000E+00  0.1010E+04
