Li                                      
           1
   -10.853500   18.798813    0.000000
   -18.606000  -10.742179    0.000000
     0.000000    0.000000   22.765000
   Li
   504
Direct configuration=     1
   0.00346756  0.99635946  0.99574540
   0.93530403  0.04045644  0.67300350
   0.86109191  0.09087694  0.33336448
   0.78947284  0.10455004  0.99252373
   0.70719514  0.16242618  0.65686581
   0.62032866  0.20319082  0.32448110
   0.57888816  0.23458353  0.01055795
   0.52103299  0.29868270  0.67970745
   0.41528095  0.34189836  0.32758432
   0.36519294  0.36620807  0.00635064
   0.28321041  0.42892639  0.66858155
   0.20724285  0.46415634  0.34803262
   0.07325006  0.05140572  0.67095276
   0.99451753  0.08076293  0.34503838
   0.93796012  0.10064275  0.00458812
   0.85269024  0.15526926  0.66581165
   0.77462207  0.21400488  0.32057161
   0.72989333  0.24151010  0.00248997
   0.64015209  0.28490986  0.66339807
   0.55357270  0.32104809  0.33249902
   0.49490097  0.36245005  0.99821268
   0.44194469  0.40223028  0.66867714
   0.34900409  0.46682822  0.33631616
   0.29178268  0.49259245  0.01667529
   0.14589515  0.09637740  0.34077370
   0.09288163  0.11995108  0.00897378
   0.00256656  0.17622216  0.66441387
   0.91548567  0.22175809  0.32449237
   0.86856547  0.22719326  0.99641607
   0.78362803  0.28228132  0.67496902
   0.67921766  0.33432411  0.34704830
   0.63889621  0.36219775  0.00300542
   0.58316740  0.42913684  0.67809485
   0.49780464  0.46627944  0.32696036
   0.43205377  0.50762465  0.00490418
   0.36499099  0.55569595  0.67691684
   0.20975984  0.11625629  0.01082525
   0.14078321  0.18669226  0.67768797
   0.06623850  0.20559606  0.32963092
   0.00925666  0.24232503  0.00173300
   0.92788186  0.28207702  0.66955316
   0.83850836  0.34364037  0.32782255
   0.79222596  0.36337123  0.00550601
   0.72223689  0.41253408  0.65591758
   0.63209422  0.46202163  0.34279952
   0.57583739  0.49469924  0.00875678
   0.50943904  0.53763304  0.67585407
   0.42617024  0.59159206  0.32372134
   0.28675981  0.18037203  0.65951553
   0.20512085  0.21934872  0.31990704
   0.15257083  0.23900395  0.00163745
   0.06904364  0.30502061  0.66175912
   0.98372065  0.32859688  0.33984439
   0.92503481  0.35943961  0.01475548
   0.84914564  0.41828593  0.67895060
   0.78941657  0.45056314  0.33876332
   0.70598032  0.48825551  0.00647935
   0.65211276  0.54206333  0.67690025
   0.56974265  0.59499415  0.33143750
   0.49705886  0.61913786  0.00656229
   0.34738914  0.21319081  0.34135946
   0.28584493  0.24961732  0.00483310
   0.21538858  0.30662639  0.65582383
   0.12300488  0.33962526  0.33805267
   0.07404043  0.36552095  0.01104668
   0.99101301  0.42054765  0.67480511
   0.92096447  0.45998549  0.34224880
   0.84947515  0.47920756  0.00612475
   0.78995414  0.52431496  0.66169646
   0.72071987  0.57990363  0.33032761
   0.63256976  0.61113575  0.00175360
   0.57171392  0.65684136  0.66678509
   0.42363063  0.24577705  0.99426504
   0.36038719  0.29517444  0.67440899
   0.28521888  0.34098933  0.32860233
   0.21499301  0.38694204  0.00776759
   0.13808898  0.43799091  0.65381662
   0.05378666  0.45250153  0.33344024
   0.99612588  0.49318123  0.99742270
   0.93054390  0.54024274  0.67804327
   0.85606261  0.58230072  0.32830822
   0.78056838  0.61304009  0.00319777
   0.71883226  0.66112503  0.66089309
   0.66179611  0.71716665  0.31606733
   0.13926795  0.49493294  0.00214896
   0.07000972  0.53990151  0.65842781
   0.00044237  0.58758817  0.32763786
   0.92531295  0.60281713  0.98858223
   0.85403061  0.66427423  0.66044800
   0.79578041  0.70035314  0.32260915
   0.71307754  0.75824028  0.97602754
   0.21860399  0.55287569  0.67164838
   0.15272603  0.58548388  0.33869492
   0.07755456  0.62674359  0.99920486
   0.00134327  0.66627401  0.67974885
   0.94218567  0.70871526  0.34393562
   0.86844771  0.75056826  0.98244714
   0.77341555  0.78824239  0.66913533
   0.29964024  0.60858480  0.34335611
   0.21155040  0.62112766  0.99050664
   0.13442307  0.66659853  0.65703468
   0.06784167  0.71709973  0.33626337
   0.00437880  0.74188867  0.98870670
   0.92000333  0.79752681  0.66508456
   0.84876010  0.83335440  0.32092586
   0.36653763  0.62853389  0.98497225
   0.28630568  0.67492154  0.68264902
   0.21886634  0.71125013  0.33182525
   0.15037310  0.73273689  0.98226010
   0.05636481  0.79744386  0.65614652
   0.99835665  0.84160664  0.32975657
   0.92097397  0.86305493  0.99208291
   0.43807841  0.66833101  0.67357424
   0.36289637  0.72420847  0.33508851
   0.30660279  0.73772130  0.00457447
   0.19494562  0.78932444  0.66179928
   0.13044386  0.83611719  0.34806003
   0.07969315  0.86537606  0.99686025
   0.99589659  0.90058583  0.66809999
   0.91845580  0.96160793  0.33146461
   0.86242179  0.00101040  0.99029617
   0.79235086  0.03309906  0.65535834
   0.71845903  0.09964030  0.34858219
   0.64509270  0.10451573  0.00244472
   0.56734873  0.15988533  0.66096541
   0.47889629  0.21855297  0.34097651
   0.07300399  0.95037965  0.34009045
   0.14353608  0.98276845  0.99623220
   0.21194137  0.04764828  0.67131144
   0.26536552  0.10565753  0.33191045
   0.34976919  0.12362089  0.00940088
   0.42561569  0.17782916  0.66446682
   0.84153836  0.92391627  0.66542260
   0.79014098  0.95678471  0.33499456
   0.71485574  0.99467367  0.99904827
   0.63434066  0.03811713  0.65927325
   0.56076281  0.09407904  0.33631851
   0.49746096  0.13516944  0.98950190
   0.14502510  0.91018683  0.67037629
   0.22074946  0.96396309  0.34312108
   0.29626210  0.99147770  0.99798861
   0.32589650  0.04269996  0.66790410
   0.40643431  0.07661276  0.33012067
   0.79027123  0.86575070  0.99482923
   0.71432464  0.90567013  0.64534241
   0.64068978  0.96224568  0.32855380
   0.57014706  0.01008018  0.99918955
   0.48651859  0.04418984  0.66085234
   0.23842254  0.84858581  0.99234803
   0.28526604  0.91255664  0.67229269
   0.33520137  0.96919952  0.32849883
   0.42750278  0.00040967  0.99923007
   0.70986094  0.83058655  0.31018664
   0.63342723  0.86972482  0.99900711
   0.56948019  0.92185171  0.66064240
   0.48211807  0.96510448  0.33508342
   0.28326983  0.85932580  0.32904948
   0.36916672  0.87106634  0.01148781
   0.43215635  0.92478447  0.65099274
   0.63194136  0.77526360  0.66164275
   0.57287144  0.83856458  0.33328417
   0.50212513  0.87816494  0.00203883
   0.35784007  0.79073600  0.67706612
   0.42098580  0.84281955  0.33105335
   0.59566231  0.76490477  0.99811011
   0.49155827  0.78507633  0.67711619
   0.44998691  0.76188140  0.00159116
   0.51229059  0.71019850  0.33591522
   0.00258272  0.97866675  0.78729320
   0.93487681  0.04379696  0.44981769
   0.85432923  0.08646465  0.10051276
   0.78552099  0.10549507  0.77490667
   0.70554482  0.19582815  0.45795085
   0.64089013  0.19597035  0.09764157
   0.58680509  0.25005249  0.78268645
   0.49261055  0.30097858  0.44106681
   0.42269856  0.31945966  0.11634938
   0.36211995  0.38007979  0.77004414
   0.28873697  0.42474869  0.45247465
   0.22008170  0.45123144  0.11446315
   0.07176318  0.04243701  0.44806520
   0.00281510  0.06242513  0.10651321
   0.94841996  0.11709174  0.78654801
   0.85033929  0.16502317  0.43314479
   0.78270324  0.19529314  0.11343950
   0.70704858  0.21890545  0.76224459
   0.61509065  0.30483790  0.45716694
   0.57177045  0.32723567  0.11972792
   0.51558741  0.37337144  0.77624935
   0.41155515  0.43105966  0.45443647
   0.35877311  0.44616874  0.11147213
   0.29442860  0.49903154  0.77601835
   0.13804516  0.06504799  0.11973159
   0.08573427  0.10840592  0.76460786
   0.99544987  0.16599375  0.44160057
   0.93373410  0.20983234  0.11671911
   0.86409605  0.23808891  0.77615118
   0.78202627  0.29817832  0.46076188
   0.71580890  0.33199018  0.10949701
   0.65178449  0.36173778  0.75790193
   0.56118018  0.43087602  0.45259983
   0.50190559  0.43959897  0.11316554
   0.44016026  0.48815570  0.78261833
   0.37899965  0.54393605  0.45497262
   0.21199814  0.12493401  0.78031511
   0.13303200  0.16604804  0.44141603
   0.06739335  0.18921197  0.11121849
   0.00786105  0.23683523  0.77692349
   0.91279545  0.30099276  0.44466157
   0.86677578  0.31815551  0.12163449
   0.79934739  0.34800247  0.79569470
   0.70728833  0.42737923  0.44504835
   0.63409744  0.45227860  0.10948736
   0.57991903  0.50606916  0.78649017
   0.50910607  0.56979995  0.43304553
   0.44100261  0.58279985  0.11328318
   0.27183922  0.18573249  0.42459232
   0.22550609  0.20232809  0.10923053
   0.15470485  0.25450588  0.77722824
   0.06369525  0.29774348  0.45009663
   0.99820209  0.33997588  0.12001466
   0.93090932  0.36702827  0.77824630
   0.84980066  0.42749047  0.44739461
   0.80520101  0.44820029  0.11627275
   0.73938654  0.49686201  0.77537821
   0.64208524  0.53652187  0.42666161
   0.56635338  0.57377442  0.11797358
   0.51190970  0.62363833  0.78776530
   0.35442404  0.19950272  0.12629808
   0.28843369  0.24731420  0.78405472
   0.20743733  0.30351088  0.44033797
   0.13940556  0.32061840  0.11385632
   0.07507135  0.38402729  0.79088734
   0.99231665  0.41921644  0.45848183
   0.92737813  0.46128597  0.10708495
   0.86482485  0.50141737  0.79590071
   0.78901213  0.54273579  0.43717919
   0.71638842  0.58464591  0.10809360
   0.65519913  0.61497485  0.77851723
   0.59014757  0.68194400  0.43889276
   0.44914037  0.25577615  0.78401556
   0.35745803  0.29350120  0.44269852
   0.29269889  0.32447849  0.10837385
   0.23424651  0.38244821  0.77775302
   0.14176625  0.42436525  0.44441494
   0.07614538  0.45323043  0.11578159
   0.01228047  0.50533511  0.78784398
   0.92995454  0.55722297  0.45305306
   0.86234310  0.57322243  0.10676192
   0.79655510  0.61122363  0.78135371
   0.70643517  0.67422122  0.43524465
   0.66503711  0.70684525  0.10315452
   0.15347331  0.50644325  0.77460455
   0.07621323  0.53252112  0.42913833
   0.00614850  0.59896049  0.10816159
   0.90997522  0.62685760  0.78170532
   0.85135697  0.67468806  0.45506873
   0.78075589  0.70768465  0.09298357
   0.70072098  0.73919595  0.77739862
   0.23483776  0.55778810  0.45378713
   0.14318128  0.58825571  0.10652191
   0.07123756  0.62652513  0.78480598
   0.01247782  0.65521665  0.45766437
   0.92897713  0.70980248  0.10632607
   0.83052709  0.75971287  0.77512601
   0.77952563  0.80736921  0.43476384
   0.28572058  0.56686847  0.11716736
   0.20456425  0.62826488  0.77941964
   0.14900025  0.67030677  0.44524350
   0.07325088  0.71509690  0.09895053
   0.98892235  0.75982863  0.77407017
   0.92181297  0.79293419  0.42948959
   0.84137826  0.83113585  0.11450843
   0.35016753  0.62236116  0.78371273
   0.30374665  0.68325877  0.45075778
   0.21345024  0.71673047  0.10543838
   0.14318886  0.74367516  0.75946918
   0.05382253  0.77507743  0.44161588
   0.98905162  0.83503886  0.10881417
   0.91881495  0.88925849  0.78439089
   0.42725689  0.67926870  0.43407699
   0.38265322  0.69953129  0.11078869
   0.29639926  0.75140200  0.77714021
   0.21205777  0.79593774  0.45232736
   0.14909270  0.83227855  0.10671890
   0.06916064  0.85532847  0.76721191
   0.00376420  0.91645303  0.43913659
   0.91382481  0.95617642  0.10978495
   0.85642309  0.01155426  0.77457223
   0.79085099  0.03692858  0.43943782
   0.71069595  0.07124092  0.10421249
   0.65466949  0.11316721  0.77280034
   0.56535636  0.18105179  0.44301310
   0.49371835  0.21469658  0.11396667
   0.06197956  0.95096101  0.11082948
   0.13438984  0.98336646  0.77240768
   0.21492251  0.05403990  0.44910287
   0.28138279  0.06600900  0.10034080
   0.35050940  0.13112995  0.77303747
   0.41267801  0.16107432  0.44255430
   0.86239893  0.91301600  0.44179277
   0.77979132  0.95676974  0.10955334
   0.71811132  0.98462232  0.76183633
   0.62914301  0.03743445  0.43512755
   0.56696574  0.07854611  0.12590890
   0.50393969  0.13724960  0.77762848
   0.12647727  0.91490166  0.44091901
   0.20074121  0.94127222  0.10642131
   0.28037859  0.99736806  0.78017721
   0.34995631  0.05645744  0.43469611
   0.42693144  0.07749966  0.10483047
   0.77807978  0.88619135  0.77266193
   0.71134557  0.92072988  0.42198954
   0.64612140  0.95332110  0.10532969
   0.56846975  0.01227261  0.76677540
   0.48912764  0.05261033  0.43534042
   0.22254124  0.85581228  0.78117138
   0.26712272  0.93018389  0.43967201
   0.36955633  0.95973643  0.11399552
   0.43489726  0.00323156  0.78572523
   0.69928668  0.81781596  0.09638952
   0.63412857  0.87301769  0.76881470
   0.54860926  0.93599421  0.43831887
   0.50040534  0.95373243  0.11281550
   0.29908074  0.82933416  0.11030605
   0.36292004  0.88218524  0.78007359
   0.39871570  0.92437974  0.44913667
   0.63759205  0.80301482  0.43600000
   0.56488447  0.82764219  0.10220963
   0.49448872  0.88180504  0.76800719
   0.35805286  0.80495063  0.44171018
   0.44671713  0.82491668  0.11803846
   0.56392800  0.75153399  0.77448531
   0.49508566  0.80506549  0.43536880
   0.42335211  0.74319877  0.78538750
   0.52541057  0.69980874  0.11585112
   0.99358440  0.00051178  0.22657132
   0.92378556  0.02270497  0.88260491
   0.86909526  0.07935804  0.54133885
   0.78105665  0.13568595  0.22684375
   0.72192990  0.15866468  0.88139643
   0.63732111  0.21232782  0.55034540
   0.55127088  0.24196863  0.22332661
   0.51922822  0.26884420  0.88847913
   0.42810234  0.31693747  0.55328674
   0.36092652  0.38947640  0.21610802
   0.29055487  0.41119017  0.88606361
   0.23315961  0.47252874  0.55582047
   0.05364320  0.03292656  0.89317214
   0.01651531  0.09904239  0.56147295
   0.92624261  0.12780304  0.21960644
   0.85928740  0.15354883  0.89221774
   0.78481859  0.22375576  0.56712086
   0.69376790  0.25541874  0.21637106
   0.65546573  0.28768737  0.88627483
   0.56631123  0.34586481  0.57169724
   0.49619249  0.38142023  0.21790852
   0.44387763  0.39271898  0.90662884
   0.36990593  0.46092367  0.56048476
   0.27542605  0.50317536  0.23671390
   0.16386725  0.09266949  0.55624579
   0.07305190  0.12537914  0.22063789
   0.99578525  0.15465350  0.89545969
   0.92182634  0.20379949  0.54390587
   0.84458808  0.25109604  0.22803467
   0.78666492  0.26187040  0.88431824
   0.71278107  0.34422907  0.56731155
   0.62487392  0.37062651  0.23124795
   0.57429840  0.40619157  0.89547938
   0.47913781  0.45931618  0.55444090
   0.43313458  0.50375211  0.21188587
   0.37228365  0.51851106  0.88654603
   0.20494463  0.13813576  0.20540061
   0.14167154  0.16238481  0.88738047
   0.07975299  0.22306965  0.55376088
   0.98947473  0.25691338  0.23466155
   0.93301752  0.27597868  0.89249110
   0.86454559  0.34783023  0.56394465
   0.76597665  0.37658899  0.23472830
   0.71858653  0.40608394  0.88708100
   0.63253994  0.47551973  0.55603496
   0.59445532  0.50892871  0.22391577
   0.51688616  0.51203972  0.89372316
   0.44936442  0.60977874  0.55906035
   0.27845866  0.16716100  0.90036231
   0.22476884  0.21155854  0.54083358
   0.13672346  0.25130907  0.22010169
   0.06050263  0.28704350  0.90564463
   0.00614800  0.32949150  0.55969980
   0.91476903  0.37833728  0.23373806
   0.88445096  0.41085570  0.89913047
   0.78171113  0.45334033  0.55442780
   0.71222400  0.50346853  0.21221794
   0.65755259  0.53834586  0.90653409
   0.57831374  0.58526462  0.55223017
   0.50491478  0.62640001  0.23095262
   0.35321490  0.21028099  0.54628771
   0.27776967  0.27633502  0.22075967
   0.21411965  0.29936874  0.89766940
   0.14323890  0.35333229  0.55065173
   0.07168396  0.36976939  0.21311760
   0.99774935  0.42252410  0.90187753
   0.91799445  0.46571136  0.57616444
   0.85132125  0.49459800  0.22613407
   0.80386196  0.53732360  0.90118895
   0.71529586  0.58375064  0.55308914
   0.64947743  0.63579242  0.21103223
   0.58401734  0.67417952  0.90084715
   0.42749135  0.26376485  0.23956275
   0.36317386  0.28475251  0.87727604
   0.29198625  0.34842892  0.55596828
   0.21007755  0.38257848  0.21207150
   0.15214339  0.41301201  0.87940385
   0.07946686  0.46007807  0.55246520
   0.00473759  0.50735071  0.21826848
   0.93890301  0.55005376  0.89662995
   0.83925754  0.57819915  0.56486147
   0.78375513  0.63952128  0.21497675
   0.72537232  0.66367878  0.89940161
   0.62294157  0.71368561  0.55223510
   0.13705161  0.50113347  0.22674891
   0.08906703  0.54142265  0.88818561
   0.01154971  0.58205331  0.56672408
   0.94557630  0.62957390  0.22141439
   0.85221586  0.67457676  0.87973999
   0.78026269  0.72279018  0.54477848
   0.71564874  0.75641636  0.20394465
   0.23126776  0.53125859  0.87846283
   0.16044462  0.58224289  0.55113410
   0.08520063  0.63914480  0.22402564
   0.00850775  0.66145566  0.88747850
   0.93464970  0.70549476  0.55527732
   0.86046001  0.75024276  0.22060839
   0.80289833  0.79495387  0.88325428
   0.29817184  0.59080319  0.55631735
   0.22723358  0.62858408  0.21079354
   0.14123040  0.65909008  0.89308540
   0.07180483  0.71260105  0.56266183
   0.00159995  0.75667858  0.22129230
   0.94734901  0.78296594  0.87602568
   0.84333675  0.85118270  0.56217204
   0.36411670  0.62211795  0.21736411
   0.29228347  0.65746206  0.89184374
   0.21527195  0.71647664  0.55812865
   0.14125400  0.75813247  0.24412451
   0.08092139  0.78210988  0.88158152
   0.99045569  0.84408556  0.53777478
   0.91893796  0.86746926  0.22436964
   0.44142170  0.64802086  0.89629398
   0.34480191  0.71718295  0.56367796
   0.29246448  0.75292035  0.22301841
   0.21802605  0.77380390  0.87850538
   0.14410395  0.83519090  0.54635340
   0.07961515  0.88431828  0.21854460
   0.00776464  0.90286636  0.88879174
   0.94459355  0.95560711  0.56777326
   0.85511306  0.01259121  0.21188505
   0.78077889  0.02104247  0.88582476
   0.71755525  0.08216205  0.55253618
   0.63733950  0.13015171  0.22222287
   0.58105697  0.15101237  0.90370691
   0.49735211  0.20920855  0.54744574
   0.08135952  0.96684168  0.56846858
   0.13274208  0.99975684  0.22526605
   0.18931565  0.02470306  0.88603252
   0.27698144  0.08398374  0.55494652
   0.34279236  0.12898393  0.21563728
   0.42775492  0.16904521  0.89298396
   0.86534887  0.91336086  0.88970804
   0.78741175  0.95035271  0.53796701
   0.72138438  0.00938269  0.22181634
   0.64021075  0.02511613  0.89082941
   0.56466756  0.09325097  0.55159323
   0.48159358  0.12630719  0.22507277
   0.14200594  0.89994454  0.88826368
   0.21838548  0.96270353  0.56748115
   0.27672048  0.99985473  0.20747036
   0.35039245  0.05317586  0.89883464
   0.42473174  0.09225851  0.55156020
   0.78794108  0.89473664  0.21350812
   0.72033795  0.91835438  0.88668785
   0.65462623  0.96452410  0.53688625
   0.56799461  0.00507040  0.21955193
   0.49862238  0.04756603  0.88751527
   0.21357518  0.87881108  0.22959229
   0.28223779  0.92041005  0.89773313
   0.34949949  0.95937562  0.56301184
   0.42310943  0.00868551  0.22178361
   0.70942312  0.84096500  0.55815453
   0.63320478  0.88911453  0.20931350
   0.56335524  0.92182062  0.88231717
   0.50368447  0.96995480  0.54800405
   0.28744140  0.83753179  0.55898441
   0.34475011  0.87311593  0.22630109
   0.43563359  0.91108330  0.90957658
   0.64583558  0.78166479  0.86857823
   0.56874366  0.83213085  0.55541279
   0.48299811  0.87050303  0.23351988
   0.34513107  0.79567036  0.89670554
   0.43510289  0.82638787  0.56191397
   0.57776647  0.75684421  0.24074309
   0.50904645  0.79230257  0.89446204
   0.43788543  0.74585039  0.22232983
   0.49041949  0.71396210  0.56081730
