 500 500   0   0
  0.1910214E+02  0.2121700E-08  0.2121700E-08  0.2121700E-08  0.5000000E-15
  1.000000000000000E-004
  CAR 
 Li                                      
      3.87008926     -3.37274642  301      0.55683221      1.00000000
     -3.373  0.0000E+00  0.0000E+00
     -3.349  0.0000E+00  0.0000E+00
     -3.324  0.0000E+00  0.0000E+00
     -3.300  0.0000E+00  0.0000E+00
     -3.276  0.0000E+00  0.0000E+00
     -3.252  0.0000E+00  0.0000E+00
     -3.228  0.0000E+00  0.0000E+00
     -3.204  0.1739E-11  0.4199E-13
     -3.180  0.5769E-08  0.1393E-09
     -3.155  0.5388E-05  0.1302E-06
     -3.131  0.1430E-02  0.3467E-04
     -3.107  0.1095E+00  0.2679E-02
     -3.083  0.2469E+01  0.6229E-01
     -3.059  0.1679E+02  0.4678E+00
     -3.035  0.3529E+02  0.1320E+01
     -3.011  0.2317E+02  0.1879E+01
     -2.986  0.5094E+01  0.2002E+01
     -2.962  0.7682E+01  0.2187E+01
     -2.938  0.4737E+02  0.3331E+01
     -2.914  0.1013E+03  0.5777E+01
     -2.890  0.7308E+02  0.7541E+01
     -2.866  0.1792E+02  0.7974E+01
     -2.842  0.7864E+01  0.8164E+01
     -2.817  0.4379E+02  0.9221E+01
     -2.793  0.9939E+02  0.1162E+02
     -2.769  0.7683E+02  0.1348E+02
     -2.745  0.2033E+02  0.1397E+02
     -2.721  0.9160E+01  0.1419E+02
     -2.697  0.5313E+02  0.1547E+02
     -2.673  0.1285E+03  0.1857E+02
     -2.648  0.1078E+03  0.2117E+02
     -2.624  0.3179E+02  0.2194E+02
     -2.600  0.1451E+02  0.2229E+02
     -2.576  0.7431E+02  0.2408E+02
     -2.552  0.1798E+03  0.2842E+02
     -2.528  0.1662E+03  0.3244E+02
     -2.504  0.5757E+02  0.3383E+02
     -2.479  0.1162E+02  0.3411E+02
     -2.455  0.3517E+02  0.3496E+02
     -2.431  0.9238E+02  0.3719E+02
     -2.407  0.8588E+02  0.3926E+02
     -2.383  0.2803E+02  0.3994E+02
     -2.359  0.1181E+02  0.4022E+02
     -2.335  0.6130E+02  0.4170E+02
     -2.310  0.1640E+03  0.4566E+02
     -2.286  0.1767E+03  0.4993E+02
     -2.262  0.7483E+02  0.5173E+02
     -2.238  0.2458E+02  0.5233E+02
     -2.214  0.8543E+02  0.5439E+02
     -2.190  0.2246E+03  0.5981E+02
     -2.166  0.2629E+03  0.6616E+02
     -2.141  0.1315E+03  0.6934E+02
     -2.117  0.2798E+02  0.7001E+02
     -2.093  0.2452E+02  0.7061E+02
     -2.069  0.7799E+02  0.7249E+02
     -2.045  0.9585E+02  0.7480E+02
     -2.021  0.4294E+02  0.7584E+02
     -1.997  0.1465E+02  0.7619E+02
     -1.972  0.5834E+02  0.7760E+02
     -1.948  0.1678E+03  0.8165E+02
     -1.924  0.2089E+03  0.8670E+02
     -1.900  0.1120E+03  0.8940E+02
     -1.876  0.3247E+02  0.9018E+02
     -1.852  0.6800E+02  0.9183E+02
     -1.828  0.1956E+03  0.9655E+02
     -1.803  0.2603E+03  0.1028E+03
     -1.779  0.1637E+03  0.1068E+03
     -1.755  0.4716E+02  0.1079E+03
     -1.731  0.2684E+02  0.1086E+03
     -1.707  0.9893E+02  0.1110E+03
     -1.683  0.1808E+03  0.1153E+03
     -1.659  0.1421E+03  0.1188E+03
     -1.634  0.5525E+02  0.1201E+03
     -1.610  0.7187E+02  0.1218E+03
     -1.586  0.1925E+03  0.1265E+03
     -1.562  0.2553E+03  0.1326E+03
     -1.538  0.1657E+03  0.1366E+03
     -1.514  0.5392E+02  0.1379E+03
     -1.490  0.4566E+02  0.1390E+03
     -1.465  0.1574E+03  0.1428E+03
     -1.441  0.2663E+03  0.1493E+03
     -1.417  0.2024E+03  0.1542E+03
     -1.393  0.7014E+02  0.1558E+03
     -1.369  0.3732E+02  0.1567E+03
     -1.345  0.1060E+03  0.1593E+03
     -1.321  0.1746E+03  0.1635E+03
     -1.296  0.1350E+03  0.1668E+03
     -1.272  0.5307E+02  0.1681E+03
     -1.248  0.5332E+02  0.1694E+03
     -1.224  0.1136E+03  0.1721E+03
     -1.200  0.1437E+03  0.1756E+03
     -1.176  0.1174E+03  0.1784E+03
     -1.152  0.6563E+02  0.1800E+03
     -1.127  0.8252E+02  0.1820E+03
     -1.103  0.2151E+03  0.1872E+03
     -1.079  0.3519E+03  0.1957E+03
     -1.055  0.3451E+03  0.2040E+03
     -1.031  0.1953E+03  0.2087E+03
     -1.007  0.8663E+02  0.2108E+03
     -0.983  0.1443E+03  0.2143E+03
     -0.958  0.2376E+03  0.2200E+03
     -0.934  0.2100E+03  0.2251E+03
     -0.910  0.1094E+03  0.2277E+03
     -0.886  0.5677E+02  0.2291E+03
     -0.862  0.6594E+02  0.2307E+03
     -0.838  0.1388E+03  0.2340E+03
     -0.814  0.1963E+03  0.2388E+03
     -0.789  0.1507E+03  0.2424E+03
     -0.765  0.1620E+03  0.2463E+03
     -0.741  0.2312E+03  0.2519E+03
     -0.717  0.2510E+03  0.2580E+03
     -0.693  0.2099E+03  0.2630E+03
     -0.669  0.1008E+03  0.2655E+03
     -0.645  0.2641E+02  0.2661E+03
     -0.620  0.3630E+02  0.2670E+03
     -0.596  0.8208E+02  0.2690E+03
     -0.572  0.8487E+02  0.2710E+03
     -0.548  0.5200E+02  0.2723E+03
     -0.524  0.9897E+02  0.2747E+03
     -0.500  0.2274E+03  0.2802E+03
     -0.476  0.3137E+03  0.2877E+03
     -0.451  0.3352E+03  0.2958E+03
     -0.427  0.2967E+03  0.3030E+03
     -0.403  0.1921E+03  0.3076E+03
     -0.379  0.1506E+03  0.3113E+03
     -0.355  0.2362E+03  0.3170E+03
     -0.331  0.3108E+03  0.3245E+03
     -0.307  0.2706E+03  0.3310E+03
     -0.282  0.1766E+03  0.3353E+03
     -0.258  0.9261E+02  0.3375E+03
     -0.234  0.6778E+02  0.3391E+03
     -0.210  0.1260E+03  0.3422E+03
     -0.186  0.1742E+03  0.3464E+03
     -0.162  0.1943E+03  0.3511E+03
     -0.138  0.1645E+03  0.3550E+03
     -0.113  0.1340E+03  0.3583E+03
     -0.089  0.1638E+03  0.3622E+03
     -0.065  0.1746E+03  0.3665E+03
     -0.041  0.1715E+03  0.3706E+03
     -0.017  0.2090E+03  0.3756E+03
      0.007  0.2738E+03  0.3822E+03
      0.031  0.3079E+03  0.3897E+03
      0.056  0.2549E+03  0.3958E+03
      0.080  0.1990E+03  0.4006E+03
      0.104  0.2225E+03  0.4060E+03
      0.128  0.2290E+03  0.4115E+03
      0.152  0.1423E+03  0.4150E+03
      0.176  0.5794E+02  0.4164E+03
      0.200  0.9216E+02  0.4186E+03
      0.225  0.1981E+03  0.4234E+03
      0.249  0.2762E+03  0.4300E+03
      0.273  0.2949E+03  0.4372E+03
      0.297  0.2562E+03  0.4434E+03
      0.321  0.1895E+03  0.4479E+03
      0.345  0.1740E+03  0.4521E+03
      0.369  0.2069E+03  0.4571E+03
      0.394  0.2167E+03  0.4624E+03
      0.418  0.2307E+03  0.4679E+03
      0.442  0.2283E+03  0.4734E+03
      0.466  0.1836E+03  0.4779E+03
      0.490  0.1901E+03  0.4825E+03
      0.514  0.2579E+03  0.4887E+03
      0.538  0.2785E+03  0.4954E+03
      0.563  0.2440E+03  0.5013E+03
      0.587  0.2152E+03  0.5065E+03
      0.611  0.2100E+03  0.5116E+03
      0.635  0.2139E+03  0.5167E+03
      0.659  0.2129E+03  0.5219E+03
      0.683  0.2237E+03  0.5273E+03
      0.707  0.2737E+03  0.5339E+03
      0.732  0.3281E+03  0.5418E+03
      0.756  0.3579E+03  0.5504E+03
      0.780  0.3632E+03  0.5592E+03
      0.804  0.3457E+03  0.5676E+03
      0.828  0.3148E+03  0.5752E+03
      0.852  0.2846E+03  0.5820E+03
      0.876  0.2828E+03  0.5889E+03
      0.901  0.3106E+03  0.5964E+03
      0.925  0.3161E+03  0.6040E+03
      0.949  0.2574E+03  0.6102E+03
      0.973  0.1585E+03  0.6140E+03
      0.997  0.6702E+02  0.6156E+03
      1.021  0.3214E+02  0.6164E+03
      1.045  0.7177E+02  0.6182E+03
      1.070  0.1213E+03  0.6211E+03
      1.094  0.1348E+03  0.6243E+03
      1.118  0.1549E+03  0.6281E+03
      1.142  0.1796E+03  0.6324E+03
      1.166  0.2019E+03  0.6373E+03
      1.190  0.2352E+03  0.6430E+03
      1.214  0.2592E+03  0.6492E+03
      1.239  0.2412E+03  0.6550E+03
      1.263  0.2121E+03  0.6602E+03
      1.287  0.2181E+03  0.6654E+03
      1.311  0.2573E+03  0.6716E+03
      1.335  0.2956E+03  0.6788E+03
      1.359  0.3085E+03  0.6862E+03
      1.383  0.2979E+03  0.6934E+03
      1.408  0.2599E+03  0.6997E+03
      1.432  0.2191E+03  0.7050E+03
      1.456  0.2003E+03  0.7098E+03
      1.480  0.1936E+03  0.7145E+03
      1.504  0.1785E+03  0.7188E+03
      1.528  0.1839E+03  0.7232E+03
      1.552  0.1998E+03  0.7281E+03
      1.577  0.1984E+03  0.7329E+03
      1.601  0.2044E+03  0.7378E+03
      1.625  0.2209E+03  0.7431E+03
      1.649  0.2309E+03  0.7487E+03
      1.673  0.2191E+03  0.7540E+03
      1.697  0.1881E+03  0.7585E+03
      1.721  0.1704E+03  0.7626E+03
      1.746  0.1661E+03  0.7667E+03
      1.770  0.1424E+03  0.7701E+03
      1.794  0.1208E+03  0.7730E+03
      1.818  0.1454E+03  0.7765E+03
      1.842  0.1737E+03  0.7807E+03
      1.866  0.1713E+03  0.7849E+03
      1.890  0.1426E+03  0.7883E+03
      1.915  0.9217E+02  0.7905E+03
      1.939  0.8240E+02  0.7925E+03
      1.963  0.1153E+03  0.7953E+03
      1.987  0.1469E+03  0.7988E+03
      2.011  0.1788E+03  0.8032E+03
      2.035  0.2265E+03  0.8086E+03
      2.059  0.2477E+03  0.8146E+03
      2.084  0.2522E+03  0.8207E+03
      2.108  0.2660E+03  0.8271E+03
      2.132  0.2708E+03  0.8337E+03
      2.156  0.2726E+03  0.8402E+03
      2.180  0.2675E+03  0.8467E+03
      2.204  0.2433E+03  0.8526E+03
      2.228  0.2185E+03  0.8578E+03
      2.253  0.2028E+03  0.8627E+03
      2.277  0.1807E+03  0.8671E+03
      2.301  0.1619E+03  0.8710E+03
      2.325  0.1568E+03  0.8748E+03
      2.349  0.1299E+03  0.8779E+03
      2.373  0.7836E+02  0.8798E+03
      2.397  0.7155E+02  0.8816E+03
      2.422  0.1168E+03  0.8844E+03
      2.446  0.1510E+03  0.8880E+03
      2.470  0.1633E+03  0.8920E+03
      2.494  0.1539E+03  0.8957E+03
      2.518  0.1405E+03  0.8991E+03
      2.542  0.1388E+03  0.9024E+03
      2.566  0.1532E+03  0.9061E+03
      2.591  0.1642E+03  0.9101E+03
      2.615  0.1601E+03  0.9139E+03
      2.639  0.1519E+03  0.9176E+03
      2.663  0.1318E+03  0.9208E+03
      2.687  0.1189E+03  0.9237E+03
      2.711  0.1403E+03  0.9271E+03
      2.735  0.1582E+03  0.9309E+03
      2.760  0.1322E+03  0.9341E+03
      2.784  0.1047E+03  0.9366E+03
      2.808  0.1006E+03  0.9390E+03
      2.832  0.1083E+03  0.9416E+03
      2.856  0.1084E+03  0.9443E+03
      2.880  0.8127E+02  0.9462E+03
      2.904  0.8508E+02  0.9483E+03
      2.929  0.1044E+03  0.9508E+03
      2.953  0.1073E+03  0.9534E+03
      2.977  0.1289E+03  0.9565E+03
      3.001  0.1481E+03  0.9601E+03
      3.025  0.1537E+03  0.9638E+03
      3.049  0.1607E+03  0.9677E+03
      3.073  0.1724E+03  0.9718E+03
      3.098  0.1786E+03  0.9761E+03
      3.122  0.1713E+03  0.9803E+03
      3.146  0.1421E+03  0.9837E+03
      3.170  0.1018E+03  0.9862E+03
      3.194  0.5790E+02  0.9876E+03
      3.218  0.1665E+02  0.9880E+03
      3.242  0.1774E+01  0.9880E+03
      3.267  0.6182E-01  0.9880E+03
      3.291  0.6667E-03  0.9880E+03
      3.315  0.5334E-03  0.9880E+03
      3.339  0.5285E-01  0.9880E+03
      3.363  0.1612E+01  0.9880E+03
      3.387  0.1597E+02  0.9884E+03
      3.411  0.5726E+02  0.9898E+03
      3.436  0.9195E+02  0.9920E+03
      3.460  0.9514E+02  0.9943E+03
      3.484  0.9311E+02  0.9966E+03
      3.508  0.8977E+02  0.9987E+03
      3.532  0.7404E+02  0.1001E+04
      3.556  0.4567E+02  0.1002E+04
      3.580  0.1375E+02  0.1002E+04
      3.605  0.1506E+01  0.1002E+04
      3.629  0.5374E-01  0.1002E+04
      3.653  0.5936E-03  0.1002E+04
      3.677  0.1967E-05  0.1002E+04
      3.701  0.1913E-08  0.1002E+04
      3.725  0.5357E-12  0.1002E+04
      3.749  0.0000E+00  0.1002E+04
      3.774  0.0000E+00  0.1002E+04
      3.798  0.0000E+00  0.1002E+04
      3.822  0.0000E+00  0.1002E+04
      3.846  0.0000E+00  0.1002E+04
      3.870  0.0000E+00  0.1002E+04
