       N       E                     dE             d eps       ncg     rms          rms(c)
DAV:   1    -0.285270127776E+03   -0.28527E+03   -0.12341E+05  4008   0.662E+02
DAV:   2    -0.892151695208E+03   -0.60688E+03   -0.55647E+03  4588   0.686E+01
DAV:   3    -0.934064028126E+03   -0.41912E+02   -0.38046E+02  5104   0.142E+01
DAV:   4    -0.935436924490E+03   -0.13729E+01   -0.13514E+01  4584   0.282E+00
DAV:   5    -0.935467178180E+03   -0.30254E-01   -0.30213E-01  4712   0.446E-01    0.699E+00
DAV:   6    -0.933431778441E+03    0.20354E+01   -0.53773E+00  4536   0.307E+00    0.568E+00
DAV:   7    -0.930323072648E+03    0.31087E+01   -0.47011E+00  4576   0.302E+00    0.382E+00
DAV:   8    -0.928868655685E+03    0.14544E+01   -0.24491E+00  4528   0.164E+00    0.216E+00
DAV:   9    -0.928522477278E+03    0.34618E+00   -0.13413E+00  4456   0.982E-01    0.118E+00
DAV:  10    -0.928557319788E+03   -0.34843E-01   -0.36109E-01  4640   0.663E-01    0.110E+00
DAV:  11    -0.928434706445E+03    0.12261E+00   -0.15917E-01  4536   0.432E-01    0.502E-01
DAV:  12    -0.928427085849E+03    0.76206E-02   -0.45370E-02  4344   0.178E-01    0.239E-01
DAV:  13    -0.928428976296E+03   -0.18904E-02   -0.12562E-02  4800   0.137E-01    0.215E-01
DAV:  14    -0.928423987612E+03    0.49887E-02   -0.41693E-03  4616   0.852E-02    0.736E-02
DAV:  15    -0.928423825307E+03    0.16231E-03   -0.15248E-03  4376   0.392E-02    0.434E-02
DAV:  16    -0.928423751597E+03    0.73710E-04   -0.62521E-04  4456   0.252E-02    0.286E-02
DAV:  17    -0.928423652811E+03    0.98786E-04   -0.18239E-04  4488   0.151E-02    0.148E-02
DAV:  18    -0.928423611971E+03    0.40840E-04   -0.57753E-05  4240   0.652E-03    0.596E-03
DAV:  19    -0.928423605328E+03    0.66429E-05   -0.10273E-05  2328   0.365E-03
   1 F= -.92842361E+03 E0= -.92837124E+03  d E =-.104728E+00
