Li                                      
           1
    21.217000    0.000000    0.000000
     0.000000   21.217000    0.000000
    -0.000000   -0.000000   21.217000
   Li
   500
Direct configuration=     1
   0.98827990  0.00651342  0.99077282
   0.99482410  0.11233295  0.09753682
   0.00233279  0.20601931  0.18944700
   0.00401025  0.30393158  0.29776141
   0.98866171  0.40636166  0.38588960
   0.99720353  0.49775264  0.49222146
   0.00753724  0.59729973  0.59686756
   0.00284925  0.71078844  0.69207757
   0.99459775  0.81155087  0.82448926
   0.00077045  0.90646931  0.89654438
   0.07189193  0.99774964  0.10657222
   0.09458366  0.08877361  0.20427832
   0.10880083  0.20100933  0.29054794
   0.09268581  0.29896927  0.39871501
   0.09434412  0.39089138  0.48562167
   0.09346108  0.48852114  0.60153132
   0.09697280  0.61981403  0.71472409
   0.09145431  0.70384529  0.81286985
   0.11455484  0.79593611  0.89473653
   0.09511216  0.91747513  0.99635202
   0.20424162  0.98942387  0.18758659
   0.20590377  0.08045723  0.29913378
   0.20535352  0.20293201  0.38998751
   0.19917000  0.31229958  0.49179210
   0.18128161  0.40527715  0.59318224
   0.18628685  0.49482964  0.70329492
   0.20280620  0.58503351  0.80714962
   0.21260357  0.68971554  0.89274563
   0.20342315  0.80441376  0.99277134
   0.19229694  0.91877248  0.09114769
   0.29316207  0.99837150  0.29876295
   0.30664062  0.10024525  0.39201762
   0.29722409  0.20387290  0.49232527
   0.29951270  0.30601831  0.59187141
   0.29130463  0.40264835  0.69869102
   0.29267220  0.49518624  0.80060659
   0.31668513  0.58383007  0.90530457
   0.30162501  0.70146384  0.00505118
   0.29550903  0.79928173  0.09646213
   0.29232101  0.89983821  0.20469472
   0.39054224  0.98181004  0.39540909
   0.39882044  0.08680626  0.49307664
   0.41339309  0.20492164  0.57904398
   0.40566491  0.31375684  0.69277776
   0.39243737  0.40242878  0.80602744
   0.40455517  0.49272635  0.90223017
   0.41883683  0.59860961  0.00324765
   0.40393295  0.69913935  0.09216482
   0.39110329  0.79069649  0.20472476
   0.39051066  0.89927415  0.29465176
   0.48840955  0.99851614  0.50403591
   0.50817585  0.10131241  0.60133960
   0.49218161  0.20530828  0.69447148
   0.49369607  0.30803608  0.79013062
   0.50289433  0.39097308  0.91615818
   0.49129533  0.47821841  0.02048217
   0.49393592  0.59896113  0.10790313
   0.48567059  0.70208953  0.19759942
   0.49257769  0.81259533  0.30380274
   0.48792413  0.89606370  0.41451809
   0.59115039  0.00415081  0.60327441
   0.61384662  0.10035260  0.68684291
   0.59679302  0.20848579  0.80681840
   0.60380005  0.30984407  0.89787825
   0.59617452  0.39758926  0.99977710
   0.59278203  0.49477106  0.11896487
   0.58725113  0.59690523  0.21788548
   0.58138599  0.70059917  0.29726923
   0.60505420  0.80090398  0.39757170
   0.61357740  0.88721631  0.49989737
   0.71229907  0.98451643  0.69048965
   0.70651588  0.09333816  0.79505901
   0.68711646  0.19129095  0.90399125
   0.70164821  0.29441108  0.01210745
   0.70498636  0.41513603  0.11466361
   0.69692061  0.51054461  0.19063580
   0.69339621  0.60345339  0.29853796
   0.70318554  0.70120055  0.40020945
   0.70441504  0.80291404  0.49933233
   0.71148942  0.89660115  0.60689279
   0.79916719  0.00195004  0.80957530
   0.79484217  0.11499109  0.90218931
   0.80176043  0.19447629  0.99666007
   0.80660053  0.30771134  0.11639504
   0.79824352  0.40650475  0.19505430
   0.79856921  0.50172640  0.30216997
   0.79594704  0.58840166  0.39281493
   0.79705357  0.68007861  0.50161008
   0.80659114  0.79185500  0.60032059
   0.80668758  0.89519163  0.69581526
   0.89809576  0.00272605  0.89901005
   0.88737251  0.11186274  0.98928443
   0.89249113  0.19427934  0.09663590
   0.90002764  0.30137602  0.19491850
   0.89719267  0.40429283  0.28398724
   0.90176069  0.50480634  0.38665370
   0.89601788  0.59606426  0.50003279
   0.91757581  0.68927911  0.61090005
   0.91712773  0.80425084  0.69972167
   0.87917419  0.89961869  0.79770845
   0.09491604  0.10268242  0.99068742
   0.12057049  0.20139378  0.10190250
   0.10147438  0.30119994  0.19753540
   0.10109949  0.40440325  0.29098120
   0.09116327  0.50689282  0.39788316
   0.08908347  0.59944571  0.49924775
   0.09070071  0.70776472  0.59790342
   0.09915605  0.79615735  0.70841384
   0.10709456  0.90035426  0.79102646
   0.09566563  0.00688762  0.89162266
   0.19709387  0.08739705  0.12075398
   0.21268544  0.19171221  0.19732657
   0.19663849  0.29672498  0.29404333
   0.19246676  0.40378030  0.39199857
   0.19530489  0.50093871  0.49641415
   0.19710924  0.59723294  0.62229850
   0.20079273  0.68631313  0.71327750
   0.20594692  0.80785587  0.79885465
   0.20775846  0.91613779  0.89212521
   0.19262948  0.00709494  0.99811010
   0.30082083  0.09240974  0.19697743
   0.30993643  0.18977901  0.28396017
   0.29444126  0.30980697  0.39522417
   0.30178024  0.39221842  0.48842748
   0.28724710  0.48889462  0.59579387
   0.30530170  0.57599110  0.70820426
   0.30709030  0.69231278  0.79506190
   0.29281834  0.79651278  0.90517783
   0.29083916  0.90935684  0.00219078
   0.30668476  0.99833606  0.10520791
   0.40662247  0.10139277  0.31156269
   0.39269500  0.20806864  0.40974275
   0.40201456  0.30164949  0.49418471
   0.40047074  0.41264255  0.60360529
   0.39702202  0.48256938  0.70769740
   0.40391513  0.59548191  0.80649190
   0.40329871  0.70751850  0.89847193
   0.39371263  0.78744275  0.99926410
   0.39643998  0.89487837  0.09771549
   0.39580463  0.99428772  0.21408266
   0.49695005  0.10062182  0.39646186
   0.50231757  0.19860026  0.48618686
   0.49662848  0.31184864  0.58566532
   0.50147189  0.40266933  0.69257933
   0.49550478  0.50099872  0.81504184
   0.49793019  0.60397796  0.90998880
   0.50319905  0.71818952  0.99346981
   0.50495337  0.79391243  0.09476292
   0.49318619  0.89933293  0.21496222
   0.50603501  0.98744335  0.30799607
   0.60696051  0.10390748  0.50391616
   0.59726132  0.20958050  0.60724176
   0.59838495  0.30401968  0.70453027
   0.59338045  0.41403121  0.81368035
   0.58967040  0.49772942  0.91211990
   0.57781694  0.59545411  0.00551317
   0.60242099  0.70817595  0.10452051
   0.59524323  0.79744181  0.20330769
   0.61227525  0.89630989  0.31178561
   0.60118177  0.99490668  0.40544277
   0.69423886  0.11768219  0.59487554
   0.70888006  0.20258910  0.71154221
   0.68443853  0.30289222  0.79934991
   0.69222761  0.39923399  0.89944654
   0.70444187  0.50755547  0.99792333
   0.68628428  0.60028064  0.11366599
   0.69343040  0.68626995  0.19880389
   0.69913397  0.79174462  0.28004633
   0.71238471  0.90149887  0.39894263
   0.71046481  0.01131258  0.51783607
   0.81070231  0.09802443  0.69887652
   0.80285053  0.20703716  0.80694025
   0.78010373  0.29851713  0.88948998
   0.78190410  0.39382955  0.00492899
   0.81401893  0.48993212  0.09669895
   0.81138631  0.59716218  0.19579007
   0.80238457  0.69185316  0.28580529
   0.79760598  0.79368149  0.39298058
   0.80768535  0.90504700  0.50044726
   0.81765854  0.01425964  0.59756917
   0.88871760  0.11053137  0.79021404
   0.91029258  0.19722766  0.90412306
   0.89438369  0.31172117  0.00050033
   0.91175977  0.40556178  0.10147038
   0.90239973  0.50335101  0.20106598
   0.91277528  0.60692586  0.30090899
   0.91092909  0.69324283  0.40423644
   0.89405237  0.79410517  0.49177993
   0.90911732  0.89907285  0.59244634
   0.89371326  0.99049423  0.70116873
   0.99037186  0.09172479  0.89552010
   0.99969193  0.20642983  0.99787430
   0.01913833  0.29970302  0.09026876
   0.01799564  0.39865637  0.19481640
   0.00208629  0.50900290  0.29917653
   0.00014826  0.61877805  0.40450828
   0.99594722  0.70610804  0.50077255
   0.99113871  0.80594811  0.60617343
   0.01096923  0.91542934  0.69404276
   0.99188038  0.00072565  0.78666380
   0.18729648  0.19453272  0.98851913
   0.20271395  0.29984440  0.09567973
   0.20129255  0.39734874  0.19903499
   0.19609444  0.49654724  0.29714291
   0.19515999  0.60319354  0.39436718
   0.20884379  0.68384426  0.49837499
   0.18545783  0.79255000  0.62184629
   0.19327462  0.89419569  0.69310805
   0.19268055  0.00335876  0.79915056
   0.20997214  0.09834110  0.88706446
   0.30244847  0.19615986  0.10369890
   0.30914880  0.30380969  0.20714850
   0.29645013  0.39800401  0.29777058
   0.30282196  0.50557352  0.41885533
   0.29033994  0.60499598  0.49525796
   0.29297736  0.69905044  0.61291688
   0.30423904  0.79937385  0.70172094
   0.29683301  0.90407785  0.80875394
   0.30370431  0.01099630  0.90312469
   0.28693669  0.10686162  0.99959126
   0.41112711  0.19295738  0.19866306
   0.41358471  0.29437026  0.31947542
   0.40813625  0.40399600  0.40405192
   0.39656620  0.50261983  0.49422996
   0.38570489  0.59497513  0.59766768
   0.39887411  0.69534395  0.69448066
   0.39605702  0.79828817  0.80137988
   0.40641395  0.89271735  0.90425563
   0.38952792  0.00595485  0.99904086
   0.39538740  0.09540026  0.09395217
   0.51444319  0.19982733  0.30796200
   0.50884715  0.29899380  0.41545841
   0.51973300  0.40605561  0.50382404
   0.50892997  0.50855034  0.61406468
   0.49073416  0.60428102  0.70813242
   0.49923264  0.70620763  0.80302292
   0.50417348  0.79909067  0.90513215
   0.49677582  0.90215376  0.00954134
   0.48888969  0.00002977  0.10499713
   0.48080441  0.10296701  0.20585211
   0.61234318  0.20377177  0.39225256
   0.61441578  0.29936783  0.49534907
   0.61221929  0.40014982  0.60567546
   0.60456914  0.50267838  0.70216904
   0.60203988  0.59495992  0.80033573
   0.60796167  0.69528253  0.88728608
   0.60109773  0.79910435  0.00231892
   0.59151749  0.89784107  0.10133121
   0.59645478  0.00136678  0.20002313
   0.58722827  0.08440296  0.30017653
   0.71345005  0.21168561  0.49172926
   0.70879691  0.29277297  0.61048483
   0.70727596  0.40733465  0.70150458
   0.69194045  0.50426060  0.80948764
   0.70186537  0.59111061  0.91666270
   0.69058928  0.69602510  0.01566651
   0.69211345  0.81353434  0.12476352
   0.70352808  0.91218840  0.20149717
   0.70511770  0.00893808  0.29649605
   0.70490065  0.10211475  0.39593284
   0.80565341  0.20446826  0.59884584
   0.79752521  0.28963297  0.71119235
   0.80680926  0.39256045  0.79964234
   0.80232790  0.49954790  0.92311834
   0.79513254  0.60272810  0.01693266
   0.78943705  0.69948072  0.10842551
   0.81080185  0.79820173  0.20619449
   0.80696747  0.91257935  0.30374704
   0.80493744  0.00868806  0.40581419
   0.79923411  0.09787625  0.50411302
   0.89817565  0.19681550  0.69935713
   0.90431901  0.28412755  0.80497095
   0.90064470  0.38537233  0.89612701
   0.89129071  0.49158495  0.99342484
   0.90492352  0.59028552  0.10857211
   0.91540782  0.69755532  0.19671965
   0.89440796  0.80065878  0.31277899
   0.90639556  0.91718935  0.41444717
   0.90870040  0.99667709  0.49969949
   0.90969013  0.10540502  0.60308602
   0.99591839  0.19369009  0.78523780
   0.00155875  0.29207642  0.87897801
   0.00656868  0.38819251  0.98919800
   0.00255728  0.49032473  0.09194941
   0.01266484  0.60965123  0.18850064
   0.99389666  0.69445927  0.29625811
   0.99613991  0.80173564  0.40311717
   0.00776252  0.89361709  0.50179986
   0.99939940  0.99255833  0.59451053
   0.00168578  0.09877208  0.69058615
   0.09534373  0.19231029  0.88762730
   0.09731208  0.29913990  0.98988714
   0.09953434  0.38972871  0.08940403
   0.10803333  0.49437477  0.19411044
   0.09981728  0.61035392  0.28836930
   0.09993380  0.70290982  0.39291140
   0.10208990  0.80189737  0.48448171
   0.09301060  0.88977324  0.60667451
   0.10722913  0.00499102  0.69190845
   0.10085411  0.09250424  0.77939391
   0.28857844  0.27734444  0.98524373
   0.30845635  0.39003651  0.08615654
   0.31000240  0.48718730  0.19749939
   0.30651418  0.59061482  0.30329267
   0.30013238  0.68780816  0.39436444
   0.29163637  0.79751455  0.51071816
   0.29772345  0.88575329  0.58793598
   0.28663362  0.99529278  0.69570494
   0.30815824  0.09413792  0.77373486
   0.30652674  0.18249646  0.88996587
   0.40357993  0.29638378  0.09512787
   0.39583188  0.38492122  0.21617355
   0.40681680  0.49604264  0.29745824
   0.40503390  0.59501108  0.40594392
   0.39083948  0.69268262  0.50459054
   0.39846485  0.79410358  0.61144059
   0.39635755  0.90423061  0.69845510
   0.39777882  0.00433650  0.79859482
   0.39196962  0.09753183  0.89517929
   0.39984173  0.19327642  0.00353732
   0.49728446  0.29096525  0.19945211
   0.50714730  0.39734262  0.30618825
   0.51460725  0.50731821  0.42188787
   0.51268111  0.59645380  0.51336525
   0.50371342  0.69162273  0.60334584
   0.48421247  0.80040504  0.70372034
   0.49905285  0.90456760  0.79963445
   0.49739959  0.00395753  0.90180750
   0.49816236  0.09081181  0.99320712
   0.49961229  0.20157193  0.10468656
   0.59182866  0.30980645  0.30075718
   0.60670962  0.40380192  0.39424418
   0.61375746  0.50866487  0.50388751
   0.60523246  0.61024876  0.59690150
   0.59079745  0.69995065  0.70613653
   0.59387145  0.80646662  0.78897350
   0.58711451  0.90329408  0.89248222
   0.60168752  0.99690563  0.99803546
   0.59230163  0.09674549  0.10439238
   0.61010729  0.19590293  0.19465319
   0.70520222  0.31233685  0.38337102
   0.69335201  0.39416801  0.49939848
   0.70585671  0.50999168  0.58837189
   0.70772758  0.60124501  0.70136567
   0.70010263  0.69237782  0.80488280
   0.69427032  0.80259953  0.90296544
   0.68500306  0.92198211  0.99439443
   0.70194762  0.00200563  0.10761126
   0.69381887  0.09213813  0.20739702
   0.70065474  0.19056555  0.29769597
   0.79697682  0.30691233  0.50153211
   0.79313886  0.39140138  0.61297278
   0.79461889  0.50346011  0.72113706
   0.80212554  0.60848644  0.82254327
   0.79857179  0.71066468  0.92470624
   0.78086998  0.81840749  0.01737541
   0.80373407  0.90917259  0.10366512
   0.81417521  0.00689245  0.20586710
   0.80757332  0.10769503  0.30151383
   0.80316444  0.21254023  0.39792676
   0.90168168  0.30568295  0.61234500
   0.88868980  0.41063549  0.70518743
   0.90423000  0.51204932  0.80140120
   0.89388416  0.61275905  0.91169295
   0.89076131  0.69486309  0.01576154
   0.89990908  0.79415868  0.09418119
   0.90545487  0.90830048  0.20529066
   0.90226859  0.01709311  0.30266873
   0.89485192  0.10973368  0.40017632
   0.89356044  0.20894564  0.51061398
   0.99621221  0.30358341  0.69601835
   0.99462802  0.40596138  0.79231666
   0.99513786  0.50926260  0.90696870
   0.99809422  0.59858821  0.01740962
   0.01340443  0.71493073  0.09275872
   0.99597448  0.79313788  0.19325850
   0.99576643  0.89280748  0.30881222
   0.01544046  0.99825055  0.38443277
   0.00803630  0.10412953  0.48945672
   0.00658125  0.19411757  0.59427673
   0.10496821  0.30571022  0.79984793
   0.09852235  0.41683603  0.90780661
   0.10917408  0.50008005  0.01609022
   0.10222852  0.60647894  0.09816971
   0.10780594  0.70553338  0.19695764
   0.10317559  0.79476787  0.29587940
   0.09883465  0.91422294  0.40042473
   0.08993404  0.99716480  0.49264445
   0.10068195  0.10207026  0.60235763
   0.10234394  0.21760116  0.68987099
   0.19944237  0.29549600  0.89163402
   0.19566123  0.40406730  0.98970099
   0.20621900  0.50112826  0.11445935
   0.22238387  0.59094615  0.20076787
   0.21919131  0.69332851  0.30303168
   0.21567872  0.79832081  0.40002318
   0.19628734  0.88850684  0.50069268
   0.19197174  0.00396828  0.58458665
   0.20907182  0.11307990  0.68867684
   0.20163696  0.19904138  0.79223322
   0.39939649  0.38267083  0.00456795
   0.39763130  0.49223193  0.09981826
   0.39598148  0.59447421  0.20686461
   0.40670440  0.69099840  0.29941990
   0.40217909  0.79434075  0.39938173
   0.39065059  0.89282669  0.49814705
   0.39444958  0.98895074  0.60113157
   0.40182287  0.10610132  0.68430079
   0.41053708  0.19200341  0.79421877
   0.37983641  0.29337338  0.90396951
   0.50051983  0.38439229  0.11570243
   0.48718171  0.49037092  0.20381038
   0.48852424  0.60040161  0.29797663
   0.48641763  0.68486949  0.40445570
   0.50376349  0.80352267  0.49714175
   0.49363968  0.88902520  0.60075036
   0.49860649  0.99872510  0.69851314
   0.50943904  0.09876983  0.79369977
   0.48302316  0.20716934  0.90321696
   0.50703142  0.29113511  0.98509140
   0.59568779  0.39681344  0.19411141
   0.59550532  0.49291293  0.29198760
   0.59644060  0.61112035  0.38754679
   0.60680700  0.70040257  0.49763060
   0.60236200  0.79354974  0.60053450
   0.59074469  0.89228562  0.69462269
   0.59923935  0.99755831  0.78842732
   0.60307164  0.09496161  0.89831862
   0.59717441  0.19474014  0.00432438
   0.60626098  0.30183684  0.09933031
   0.71084958  0.41861889  0.28736749
   0.68563975  0.50085313  0.39095225
   0.69146076  0.60432882  0.49969118
   0.70640792  0.70131973  0.59473467
   0.70499388  0.78824518  0.70753064
   0.68900568  0.89579258  0.79256435
   0.69733134  0.01293183  0.89630630
   0.69353127  0.11118946  0.00341475
   0.69996222  0.19326705  0.11258173
   0.70138661  0.29949526  0.21184448
   0.80838867  0.41657253  0.39048080
   0.79084749  0.50064357  0.49825627
   0.80539428  0.59147271  0.60002251
   0.82510676  0.69820144  0.70260988
   0.79979809  0.79676038  0.80052435
   0.79505009  0.90741254  0.88999654
   0.79106765  0.00611869  0.99393815
   0.79442392  0.10842096  0.09684563
   0.79894228  0.20699621  0.20907981
   0.79995654  0.29755744  0.29767346
   0.89622844  0.39728803  0.49075175
   0.90050648  0.48415485  0.60021899
   0.90146020  0.58524284  0.71501613
   0.90046947  0.70143967  0.80129876
   0.88794184  0.80611767  0.90889865
   0.89550761  0.89112129  0.99900959
   0.90926857  0.99914212  0.08879783
   0.89990801  0.11635944  0.20162539
   0.89947361  0.20285836  0.29686850
   0.89640300  0.30573566  0.39790078
   0.00898720  0.40199002  0.59562056
   0.99594116  0.50405534  0.69863495
   0.99164162  0.61469389  0.81562961
   0.00194500  0.70326278  0.91663706
   0.02034076  0.79947401  0.99027726
   0.00669138  0.89214991  0.09527417
   0.98608615  0.99763152  0.21127557
   0.00068987  0.09899622  0.29014391
   0.99858214  0.21303668  0.40725684
   0.98630555  0.28968288  0.49815733
   0.10216756  0.39895431  0.69198862
   0.09444131  0.49801959  0.80788963
   0.09251661  0.60283548  0.91036330
   0.10698682  0.69841821  0.99554778
   0.11353438  0.81485836  0.09384598
   0.09438163  0.90813714  0.19306092
   0.11052696  0.00491312  0.30270036
   0.10713998  0.10337188  0.38688029
   0.10676953  0.20698576  0.48928659
   0.09896409  0.30341569  0.58720698
   0.21253259  0.39755898  0.81201851
   0.20056354  0.51002424  0.90513749
   0.20486051  0.59912879  0.00435182
   0.20073086  0.68958971  0.09812386
   0.20222988  0.79938389  0.19712262
   0.21137157  0.90465974  0.30180663
   0.20021206  0.99714895  0.40105102
   0.20140228  0.10851713  0.49519385
   0.19830446  0.21082798  0.58990270
   0.19924102  0.31647843  0.69440152
   0.29886872  0.39519572  0.90328079
   0.29698352  0.49897957  0.00493710
   0.30163873  0.59563005  0.09493022
   0.30797928  0.69413317  0.19776513
   0.29668027  0.78394845  0.30766204
   0.30122220  0.87935448  0.38966867
   0.30247489  0.98653194  0.50190293
   0.30018219  0.11213919  0.58742413
   0.31421780  0.20694758  0.69392541
   0.30094252  0.29198391  0.80007692
