 500 500   0   0
  0.1852332E+02  0.2100050E-08  0.2100050E-08  0.2100050E-08  0.5000000E-15
  1.000000000000000E-004
  CAR 
 Li                                      
      3.91473299     -3.31923445  301      0.63987890      1.00000000
     -3.319  0.0000E+00  0.0000E+00
     -3.295  0.0000E+00  0.0000E+00
     -3.271  0.0000E+00  0.0000E+00
     -3.247  0.0000E+00  0.0000E+00
     -3.223  0.0000E+00  0.0000E+00
     -3.199  0.0000E+00  0.0000E+00
     -3.175  0.0000E+00  0.0000E+00
     -3.150  0.1844E-11  0.4446E-13
     -3.126  0.6012E-08  0.1450E-09
     -3.102  0.5535E-05  0.1336E-06
     -3.078  0.1453E-02  0.3517E-04
     -3.054  0.1104E+00  0.2696E-02
     -3.030  0.2474E+01  0.6236E-01
     -3.006  0.1679E+02  0.4672E+00
     -2.982  0.3528E+02  0.1318E+01
     -2.958  0.2324E+02  0.1878E+01
     -2.933  0.5483E+01  0.2011E+01
     -2.909  0.1004E+02  0.2253E+01
     -2.885  0.4734E+02  0.3394E+01
     -2.861  0.9204E+02  0.5614E+01
     -2.837  0.7369E+02  0.7391E+01
     -2.813  0.2333E+02  0.7953E+01
     -2.789  0.1082E+02  0.8214E+01
     -2.765  0.4341E+02  0.9261E+01
     -2.741  0.9023E+02  0.1144E+02
     -2.716  0.7755E+02  0.1331E+02
     -2.692  0.2665E+02  0.1395E+02
     -2.668  0.1464E+02  0.1430E+02
     -2.644  0.5272E+02  0.1557E+02
     -2.620  0.1055E+03  0.1812E+02
     -2.596  0.1046E+03  0.2064E+02
     -2.572  0.4908E+02  0.2182E+02
     -2.548  0.2617E+02  0.2245E+02
     -2.523  0.7381E+02  0.2423E+02
     -2.499  0.1403E+03  0.2762E+02
     -2.475  0.1496E+03  0.3123E+02
     -2.451  0.8785E+02  0.3334E+02
     -2.427  0.2710E+02  0.3400E+02
     -2.403  0.2712E+02  0.3465E+02
     -2.379  0.7806E+02  0.3653E+02
     -2.355  0.9395E+02  0.3880E+02
     -2.331  0.4309E+02  0.3984E+02
     -2.306  0.1555E+02  0.4021E+02
     -2.282  0.5095E+02  0.4144E+02
     -2.258  0.1280E+03  0.4453E+02
     -2.234  0.1633E+03  0.4846E+02
     -2.210  0.1093E+03  0.5110E+02
     -2.186  0.4950E+02  0.5229E+02
     -2.162  0.8058E+02  0.5424E+02
     -2.138  0.1674E+03  0.5827E+02
     -2.114  0.2078E+03  0.6328E+02
     -2.089  0.1725E+03  0.6744E+02
     -2.065  0.8599E+02  0.6952E+02
     -2.041  0.3380E+02  0.7033E+02
     -2.017  0.5446E+02  0.7165E+02
     -1.993  0.8733E+02  0.7375E+02
     -1.969  0.6819E+02  0.7540E+02
     -1.945  0.2648E+02  0.7603E+02
     -1.921  0.3847E+02  0.7696E+02
     -1.897  0.1230E+03  0.7993E+02
     -1.872  0.1921E+03  0.8456E+02
     -1.848  0.1535E+03  0.8826E+02
     -1.824  0.6662E+02  0.8987E+02
     -1.800  0.5292E+02  0.9114E+02
     -1.776  0.1345E+03  0.9439E+02
     -1.752  0.2151E+03  0.9957E+02
     -1.728  0.2068E+03  0.1046E+03
     -1.704  0.1126E+03  0.1073E+03
     -1.680  0.3751E+02  0.1082E+03
     -1.655  0.5898E+02  0.1096E+03
     -1.631  0.1375E+03  0.1129E+03
     -1.607  0.1641E+03  0.1169E+03
     -1.583  0.1041E+03  0.1194E+03
     -1.559  0.6475E+02  0.1209E+03
     -1.535  0.1261E+03  0.1240E+03
     -1.511  0.1986E+03  0.1288E+03
     -1.487  0.2020E+03  0.1336E+03
     -1.463  0.1340E+03  0.1369E+03
     -1.438  0.7103E+02  0.1386E+03
     -1.414  0.1054E+03  0.1411E+03
     -1.390  0.1757E+03  0.1454E+03
     -1.366  0.1994E+03  0.1502E+03
     -1.342  0.1555E+03  0.1539E+03
     -1.318  0.7889E+02  0.1558E+03
     -1.294  0.6834E+02  0.1575E+03
     -1.270  0.1341E+03  0.1607E+03
     -1.245  0.1639E+03  0.1647E+03
     -1.221  0.1074E+03  0.1673E+03
     -1.197  0.5675E+02  0.1686E+03
     -1.173  0.8639E+02  0.1707E+03
     -1.149  0.1165E+03  0.1735E+03
     -1.125  0.1193E+03  0.1764E+03
     -1.101  0.1037E+03  0.1789E+03
     -1.077  0.7451E+02  0.1807E+03
     -1.053  0.1336E+03  0.1839E+03
     -1.028  0.2490E+03  0.1899E+03
     -1.004  0.3139E+03  0.1975E+03
     -0.980  0.2833E+03  0.2043E+03
     -0.956  0.1783E+03  0.2086E+03
     -0.932  0.1166E+03  0.2114E+03
     -0.908  0.1740E+03  0.2156E+03
     -0.884  0.2277E+03  0.2211E+03
     -0.860  0.1804E+03  0.2255E+03
     -0.836  0.9415E+02  0.2277E+03
     -0.811  0.5971E+02  0.2292E+03
     -0.787  0.8771E+02  0.2313E+03
     -0.763  0.1452E+03  0.2348E+03
     -0.739  0.1781E+03  0.2391E+03
     -0.715  0.1699E+03  0.2432E+03
     -0.691  0.1860E+03  0.2477E+03
     -0.667  0.2088E+03  0.2527E+03
     -0.643  0.2145E+03  0.2579E+03
     -0.619  0.1939E+03  0.2625E+03
     -0.594  0.1117E+03  0.2652E+03
     -0.570  0.3904E+02  0.2662E+03
     -0.546  0.4776E+02  0.2673E+03
     -0.522  0.8701E+02  0.2694E+03
     -0.498  0.8262E+02  0.2714E+03
     -0.474  0.7690E+02  0.2733E+03
     -0.450  0.1480E+03  0.2768E+03
     -0.426  0.2320E+03  0.2824E+03
     -0.402  0.2749E+03  0.2891E+03
     -0.377  0.2983E+03  0.2963E+03
     -0.353  0.2874E+03  0.3032E+03
     -0.329  0.2167E+03  0.3084E+03
     -0.305  0.1719E+03  0.3126E+03
     -0.281  0.2050E+03  0.3175E+03
     -0.257  0.2498E+03  0.3235E+03
     -0.233  0.2386E+03  0.3293E+03
     -0.209  0.1839E+03  0.3337E+03
     -0.185  0.1291E+03  0.3368E+03
     -0.160  0.1164E+03  0.3396E+03
     -0.136  0.1440E+03  0.3431E+03
     -0.112  0.1642E+03  0.3471E+03
     -0.088  0.1735E+03  0.3513E+03
     -0.064  0.1635E+03  0.3552E+03
     -0.040  0.1536E+03  0.3589E+03
     -0.016  0.1595E+03  0.3627E+03
      0.008  0.1659E+03  0.3667E+03
      0.033  0.1850E+03  0.3712E+03
      0.057  0.2249E+03  0.3766E+03
      0.081  0.2548E+03  0.3828E+03
      0.105  0.2602E+03  0.3891E+03
      0.129  0.2376E+03  0.3948E+03
      0.153  0.2101E+03  0.3998E+03
      0.177  0.2084E+03  0.4049E+03
      0.201  0.2003E+03  0.4097E+03
      0.225  0.1617E+03  0.4136E+03
      0.250  0.1149E+03  0.4164E+03
      0.274  0.1319E+03  0.4196E+03
      0.298  0.1903E+03  0.4241E+03
      0.322  0.2310E+03  0.4297E+03
      0.346  0.2461E+03  0.4356E+03
      0.370  0.2353E+03  0.4413E+03
      0.394  0.2191E+03  0.4466E+03
      0.418  0.2071E+03  0.4516E+03
      0.442  0.2028E+03  0.4565E+03
      0.467  0.2047E+03  0.4614E+03
      0.491  0.2054E+03  0.4664E+03
      0.515  0.2006E+03  0.4712E+03
      0.539  0.2030E+03  0.4761E+03
      0.563  0.2203E+03  0.4814E+03
      0.587  0.2384E+03  0.4872E+03
      0.611  0.2465E+03  0.4931E+03
      0.635  0.2410E+03  0.4989E+03
      0.659  0.2370E+03  0.5046E+03
      0.684  0.2425E+03  0.5105E+03
      0.708  0.2418E+03  0.5163E+03
      0.732  0.2239E+03  0.5217E+03
      0.756  0.2163E+03  0.5269E+03
      0.780  0.2399E+03  0.5327E+03
      0.804  0.2678E+03  0.5392E+03
      0.828  0.2829E+03  0.5460E+03
      0.852  0.2946E+03  0.5531E+03
      0.876  0.3073E+03  0.5605E+03
      0.901  0.3040E+03  0.5678E+03
      0.925  0.2888E+03  0.5748E+03
      0.949  0.2770E+03  0.5815E+03
      0.973  0.2593E+03  0.5877E+03
      0.997  0.2433E+03  0.5936E+03
      1.021  0.2342E+03  0.5992E+03
      1.045  0.2265E+03  0.6047E+03
      1.069  0.2158E+03  0.6099E+03
      1.093  0.1717E+03  0.6140E+03
      1.118  0.1107E+03  0.6167E+03
      1.142  0.9913E+02  0.6191E+03
      1.166  0.1186E+03  0.6220E+03
      1.190  0.1444E+03  0.6255E+03
      1.214  0.1748E+03  0.6297E+03
      1.238  0.1955E+03  0.6344E+03
      1.262  0.2058E+03  0.6393E+03
      1.286  0.2155E+03  0.6445E+03
      1.311  0.2317E+03  0.6501E+03
      1.335  0.2418E+03  0.6560E+03
      1.359  0.2365E+03  0.6617E+03
      1.383  0.2273E+03  0.6671E+03
      1.407  0.2265E+03  0.6726E+03
      1.431  0.2385E+03  0.6784E+03
      1.455  0.2422E+03  0.6842E+03
      1.479  0.2453E+03  0.6901E+03
      1.503  0.2483E+03  0.6961E+03
      1.528  0.2397E+03  0.7019E+03
      1.552  0.2193E+03  0.7072E+03
      1.576  0.2015E+03  0.7120E+03
      1.600  0.1973E+03  0.7168E+03
      1.624  0.1913E+03  0.7214E+03
      1.648  0.1887E+03  0.7259E+03
      1.672  0.1935E+03  0.7306E+03
      1.696  0.2030E+03  0.7355E+03
      1.720  0.2070E+03  0.7405E+03
      1.745  0.2006E+03  0.7453E+03
      1.769  0.1895E+03  0.7499E+03
      1.793  0.1869E+03  0.7544E+03
      1.817  0.1869E+03  0.7589E+03
      1.841  0.1774E+03  0.7632E+03
      1.865  0.1663E+03  0.7672E+03
      1.889  0.1562E+03  0.7710E+03
      1.913  0.1547E+03  0.7747E+03
      1.937  0.1568E+03  0.7785E+03
      1.962  0.1547E+03  0.7822E+03
      1.986  0.1504E+03  0.7858E+03
      2.010  0.1381E+03  0.7892E+03
      2.034  0.1255E+03  0.7922E+03
      2.058  0.1328E+03  0.7954E+03
      2.082  0.1544E+03  0.7991E+03
      2.106  0.1765E+03  0.8034E+03
      2.130  0.1939E+03  0.8081E+03
      2.154  0.2011E+03  0.8129E+03
      2.179  0.1955E+03  0.8176E+03
      2.203  0.2000E+03  0.8224E+03
      2.227  0.2094E+03  0.8275E+03
      2.251  0.2132E+03  0.8326E+03
      2.275  0.2038E+03  0.8375E+03
      2.299  0.1945E+03  0.8422E+03
      2.323  0.2012E+03  0.8471E+03
      2.347  0.1924E+03  0.8517E+03
      2.371  0.1705E+03  0.8558E+03
      2.396  0.1572E+03  0.8596E+03
      2.420  0.1567E+03  0.8634E+03
      2.444  0.1411E+03  0.8668E+03
      2.468  0.1224E+03  0.8698E+03
      2.492  0.1206E+03  0.8727E+03
      2.516  0.1258E+03  0.8757E+03
      2.540  0.1352E+03  0.8790E+03
      2.564  0.1469E+03  0.8825E+03
      2.589  0.1544E+03  0.8862E+03
      2.613  0.1549E+03  0.8900E+03
      2.637  0.1576E+03  0.8938E+03
      2.661  0.1562E+03  0.8975E+03
      2.685  0.1524E+03  0.9012E+03
      2.709  0.1498E+03  0.9048E+03
      2.733  0.1363E+03  0.9081E+03
      2.757  0.1162E+03  0.9109E+03
      2.781  0.1113E+03  0.9136E+03
      2.806  0.1201E+03  0.9165E+03
      2.830  0.1284E+03  0.9196E+03
      2.854  0.1384E+03  0.9229E+03
      2.878  0.1546E+03  0.9266E+03
      2.902  0.1588E+03  0.9305E+03
      2.926  0.1498E+03  0.9341E+03
      2.950  0.1369E+03  0.9374E+03
      2.974  0.1197E+03  0.9403E+03
      2.998  0.1084E+03  0.9429E+03
      3.023  0.9686E+02  0.9452E+03
      3.047  0.9238E+02  0.9475E+03
      3.071  0.1111E+03  0.9501E+03
      3.095  0.1310E+03  0.9533E+03
      3.119  0.1348E+03  0.9565E+03
      3.143  0.1415E+03  0.9600E+03
      3.167  0.1493E+03  0.9636E+03
      3.191  0.1516E+03  0.9672E+03
      3.215  0.1532E+03  0.9709E+03
      3.240  0.1638E+03  0.9749E+03
      3.264  0.1599E+03  0.9787E+03
      3.288  0.1259E+03  0.9817E+03
      3.312  0.9875E+02  0.9841E+03
      3.336  0.8439E+02  0.9862E+03
      3.360  0.5620E+02  0.9875E+03
      3.384  0.1792E+02  0.9879E+03
      3.408  0.2426E+01  0.9880E+03
      3.432  0.4150E+01  0.9881E+03
      3.457  0.2070E+02  0.9886E+03
      3.481  0.5356E+02  0.9899E+03
      3.505  0.8628E+02  0.9920E+03
      3.529  0.1087E+03  0.9946E+03
      3.553  0.1172E+03  0.9974E+03
      3.577  0.1049E+03  0.1000E+04
      3.601  0.6373E+02  0.1001E+04
      3.625  0.1894E+02  0.1002E+04
      3.649  0.2138E+01  0.1002E+04
      3.674  0.7997E-01  0.1002E+04
      3.698  0.9231E-03  0.1002E+04
      3.722  0.3165E-05  0.1002E+04
      3.746  0.3150E-08  0.1002E+04
      3.770  0.8978E-12  0.1002E+04
      3.794  0.0000E+00  0.1002E+04
      3.818  0.0000E+00  0.1002E+04
      3.842  0.0000E+00  0.1002E+04
      3.867  0.0000E+00  0.1002E+04
      3.891  0.0000E+00  0.1002E+04
      3.915  0.0000E+00  0.1002E+04
