Li                                      
           1
    21.000500    0.000000    0.000000
     0.000000   21.000500    0.000000
     0.000000    0.000000   21.000500
   Li
   500
Direct configuration=     1
   0.00123037  0.01711193  0.00669814
   0.99327589  0.10559056  0.09944356
   0.00072053  0.18783368  0.19456937
   0.98196694  0.28956938  0.30329608
   0.03775211  0.41591728  0.38976758
   0.00006963  0.49680794  0.50027185
   0.97928454  0.58688564  0.59949542
   0.98286950  0.67563358  0.70761798
   0.00322560  0.80390950  0.81254561
   0.00047463  0.89897265  0.91478587
   0.10696124  0.01659981  0.08857009
   0.11553541  0.09545923  0.19668116
   0.10613710  0.21457051  0.29155803
   0.09409628  0.30023791  0.39622299
   0.09442189  0.41290058  0.51397269
   0.09777843  0.51138206  0.60514345
   0.09499944  0.61367394  0.72951050
   0.08944924  0.68464029  0.82975928
   0.09795533  0.78741806  0.92288950
   0.08213216  0.89576699  0.99137551
   0.21236657  0.99540744  0.22162461
   0.19814161  0.10409888  0.32236220
   0.20772021  0.19442290  0.40886641
   0.20517439  0.32406941  0.48263160
   0.19520582  0.40649381  0.60464082
   0.19712761  0.51256037  0.70219822
   0.19843325  0.61998142  0.82570339
   0.20823873  0.68289565  0.92373956
   0.19794751  0.79609761  0.01043005
   0.18989653  0.90163961  0.06488519
   0.30519261  0.99745305  0.30547534
   0.30445734  0.07868606  0.40979696
   0.30217359  0.19389711  0.49954519
   0.28063122  0.29802697  0.60523701
   0.29904711  0.40342061  0.69180970
   0.29370492  0.49984812  0.79682601
   0.31457337  0.59043088  0.90172372
   0.29635509  0.68194437  0.99927714
   0.30838609  0.79070049  0.09434860
   0.29546541  0.90277439  0.20161944
   0.41865277  0.99194257  0.40715846
   0.40176300  0.10941198  0.50498454
   0.37941742  0.21727940  0.61161198
   0.40275134  0.29284107  0.70611135
   0.37957937  0.38017614  0.81199262
   0.38405298  0.49657886  0.91121975
   0.41534872  0.58707041  0.00462766
   0.40844999  0.69265002  0.10063358
   0.42540314  0.79903825  0.20658484
   0.41135474  0.88905286  0.28992715
   0.50985191  0.00748448  0.49810334
   0.49792577  0.12206204  0.58443986
   0.48866634  0.21490966  0.69267908
   0.49159433  0.30059018  0.80361608
   0.47823879  0.39766371  0.90229197
   0.49731094  0.48970513  0.99385600
   0.51457084  0.61134955  0.09464538
   0.53100930  0.70975453  0.19998698
   0.51800974  0.80561673  0.30207028
   0.50979592  0.89889266  0.40649516
   0.60634833  0.02647886  0.60362373
   0.58578651  0.09392920  0.70181255
   0.59819148  0.19586536  0.80059580
   0.60621317  0.31856760  0.88402708
   0.60471402  0.38740837  0.98540281
   0.60057708  0.48876934  0.09208971
   0.62066044  0.59085063  0.22189259
   0.60545596  0.70976810  0.32112675
   0.60753933  0.80204777  0.41075369
   0.59725640  0.90221936  0.49051131
   0.70509451  0.99768038  0.69130062
   0.69086447  0.11396822  0.80816118
   0.70442889  0.19088763  0.87926213
   0.71370132  0.29822219  0.98160755
   0.69470945  0.38525939  0.08994250
   0.70833869  0.47761414  0.21685202
   0.70730816  0.58725458  0.30512138
   0.71426985  0.70413855  0.39948702
   0.68876511  0.80674053  0.47833562
   0.68882093  0.90674696  0.58803366
   0.78205121  0.01230611  0.81290587
   0.80107335  0.10198149  0.89723369
   0.80089731  0.20506765  0.00159133
   0.79699080  0.29613926  0.08851202
   0.80237764  0.39386880  0.20486077
   0.80647565  0.49677702  0.29354576
   0.79485434  0.59574693  0.39376862
   0.78685875  0.68729916  0.50406367
   0.78758111  0.79772656  0.57814308
   0.78645934  0.87865893  0.71744006
   0.89662710  0.98393849  0.91725442
   0.88891295  0.11474801  0.01054242
   0.91704337  0.20407822  0.10759254
   0.88769788  0.28974599  0.20640934
   0.89702835  0.38791435  0.32348856
   0.90467185  0.50421374  0.39220461
   0.88327779  0.59922509  0.49961895
   0.88188498  0.70340237  0.60128983
   0.88501212  0.80016142  0.69568787
   0.89127231  0.90482063  0.80603921
   0.11279151  0.09037694  0.98994423
   0.08921590  0.19688858  0.08202220
   0.09544347  0.28676664  0.20331889
   0.10783786  0.38344252  0.29156520
   0.10735603  0.51662234  0.38136727
   0.11794281  0.62347968  0.49954994
   0.10102020  0.68856026  0.61195029
   0.10834716  0.75895459  0.68741879
   0.08564862  0.88497819  0.81468178
   0.09321184  0.99368047  0.88802103
   0.20410018  0.09870528  0.09792881
   0.21840579  0.19578216  0.19176887
   0.21738704  0.28096303  0.30232955
   0.16630298  0.40048615  0.38348667
   0.18618621  0.49228477  0.49689837
   0.17510269  0.61350583  0.58832349
   0.19860862  0.70082662  0.70778482
   0.19070778  0.80455691  0.81938437
   0.18928982  0.90958954  0.90013054
   0.19298601  0.02239110  0.99212964
   0.31799356  0.10389466  0.21694101
   0.30278217  0.18821517  0.32542298
   0.30575108  0.31735792  0.41193029
   0.29448534  0.42331122  0.47882844
   0.30908729  0.51066551  0.59986488
   0.28329058  0.59788679  0.69866500
   0.29869392  0.71524528  0.78577997
   0.29126155  0.79379122  0.91044810
   0.30727594  0.90316681  0.01001719
   0.30138165  0.01363089  0.12422336
   0.41935552  0.10407580  0.30797492
   0.37817169  0.20941727  0.41480982
   0.39000073  0.29798408  0.51153170
   0.40046160  0.37859708  0.60239742
   0.38713834  0.48237325  0.68412299
   0.37687581  0.59601422  0.79221075
   0.38396028  0.70690941  0.90726606
   0.40010808  0.79974490  0.99899546
   0.39379823  0.91064175  0.09806685
   0.42454525  0.00444653  0.20877719
   0.50931209  0.11349043  0.39339680
   0.49682881  0.19413017  0.50030394
   0.50557957  0.29730070  0.59616169
   0.46816263  0.39352243  0.69081072
   0.46798556  0.48380613  0.78947119
   0.49088625  0.58215091  0.88040633
   0.50771937  0.70753787  0.97516482
   0.50384052  0.79846863  0.10904569
   0.51155515  0.89424529  0.19111024
   0.51032969  0.99260202  0.31199568
   0.60885401  0.12791550  0.47751331
   0.59498582  0.19336962  0.60745899
   0.59470983  0.31165305  0.70267364
   0.60240392  0.40447191  0.80160253
   0.57410930  0.49183208  0.89415249
   0.60012637  0.58999485  0.98191534
   0.61346664  0.69912689  0.08084136
   0.61105019  0.82190816  0.20323140
   0.61500966  0.93352147  0.29831923
   0.62796434  0.02786217  0.40083700
   0.70825269  0.09221042  0.60663996
   0.70860249  0.19133167  0.69971784
   0.70179162  0.28850807  0.79088402
   0.70967624  0.40869300  0.89143552
   0.69391727  0.47321756  0.99782773
   0.69124323  0.58941995  0.10990633
   0.70381729  0.71144058  0.20773212
   0.71791779  0.81232883  0.29465773
   0.71286672  0.91803456  0.41268085
   0.70396998  0.02162634  0.49748432
   0.81506349  0.10766440  0.70216236
   0.80681084  0.21192589  0.80095093
   0.80229833  0.31298862  0.89659436
   0.80464803  0.40349265  0.01646388
   0.79467398  0.48377880  0.11340797
   0.79422688  0.60604234  0.20363391
   0.79628460  0.71526632  0.29226520
   0.79852979  0.81042278  0.40943162
   0.77838857  0.90442919  0.50769799
   0.79385950  0.99960870  0.60277249
   0.90202318  0.09995002  0.79467848
   0.90922098  0.21396877  0.90894471
   0.90993902  0.30509794  0.00522842
   0.89022551  0.39798323  0.11122235
   0.88483505  0.48904445  0.20071158
   0.90529778  0.61015836  0.29007361
   0.88437123  0.70444659  0.39501878
   0.89461860  0.80665353  0.49012260
   0.89992220  0.89660745  0.59198497
   0.88378218  0.97947448  0.70636698
   0.99872482  0.09584174  0.88937097
   0.00930186  0.19629091  0.00351351
   0.99119836  0.32176925  0.10096731
   0.01060470  0.38745958  0.21380502
   0.00125249  0.50709976  0.28143503
   0.99038658  0.59345038  0.40477187
   0.00017523  0.68470385  0.50825625
   0.01063803  0.80025009  0.60107270
   0.99031059  0.87947601  0.70957696
   0.99575325  0.99021624  0.81172225
   0.19674039  0.17604000  0.99103351
   0.19413983  0.27453460  0.11517783
   0.20539251  0.38055605  0.22051631
   0.20772314  0.51509423  0.27007398
   0.20554333  0.60028730  0.38582728
   0.20213258  0.71113487  0.49473593
   0.22394510  0.79580414  0.60297214
   0.19840059  0.89040159  0.71134583
   0.20027591  0.98196038  0.81335528
   0.19933502  0.08089553  0.87545827
   0.30121208  0.19878858  0.10878642
   0.31340539  0.30036023  0.20910983
   0.30512696  0.39678365  0.30553422
   0.28822483  0.49192215  0.38165193
   0.29126758  0.60589079  0.48897098
   0.29970507  0.70503461  0.60545173
   0.28897358  0.80463204  0.71700200
   0.27790688  0.89943844  0.83269218
   0.31031239  0.00362320  0.89521296
   0.30519147  0.10101187  0.00230133
   0.40871789  0.20500537  0.20034809
   0.40180367  0.30059750  0.30953680
   0.39820441  0.40434980  0.38244784
   0.39721085  0.49116033  0.48075419
   0.39149466  0.58821739  0.58235634
   0.39343963  0.71901295  0.68471451
   0.39242568  0.78528341  0.79478353
   0.40726321  0.89138763  0.90391984
   0.39956175  0.00613067  0.00034069
   0.41638978  0.10105017  0.11754273
   0.50260376  0.22622008  0.30971387
   0.47110655  0.30795008  0.41742722
   0.48639660  0.39306464  0.49761978
   0.48613819  0.49221208  0.57734414
   0.47359607  0.58873853  0.70029744
   0.49571756  0.70391789  0.78857177
   0.48897460  0.79322503  0.89671918
   0.51034895  0.91347687  0.98936123
   0.50897658  0.00055272  0.09068712
   0.50763696  0.10706124  0.20001578
   0.59278278  0.23251948  0.39166088
   0.59856552  0.27311480  0.51364377
   0.59277968  0.39165666  0.60683560
   0.57287614  0.47061050  0.70319305
   0.57166498  0.60351156  0.79917569
   0.60395935  0.69553814  0.89135182
   0.58071064  0.81829581  0.98671584
   0.60648217  0.90930338  0.08905818
   0.59358298  0.00314651  0.18379193
   0.60139666  0.10828852  0.30992310
   0.70881867  0.19983489  0.50047348
   0.71031428  0.28929173  0.61412076
   0.71748393  0.40650843  0.69849319
   0.69165451  0.52233074  0.78306004
   0.69964229  0.58637497  0.88861420
   0.70174999  0.70541125  0.97789003
   0.68931617  0.81724899  0.10402490
   0.70763478  0.91092246  0.19242987
   0.70064995  0.01603651  0.28937276
   0.72033530  0.10925268  0.38636570
   0.79373091  0.20135472  0.61630537
   0.80895617  0.29653079  0.70804216
   0.79669632  0.41283797  0.78518291
   0.79567567  0.49229206  0.90689891
   0.79822573  0.57939733  0.00400709
   0.79147283  0.69085866  0.08930526
   0.79426712  0.80028431  0.18166268
   0.81064399  0.92267384  0.29283477
   0.81649268  0.00508528  0.38900030
   0.80168503  0.11539460  0.50322429
   0.90625823  0.20485903  0.70344489
   0.92872656  0.30644994  0.80855980
   0.89964356  0.39444974  0.89755074
   0.90642558  0.48368503  0.01967723
   0.88068784  0.58417149  0.11418525
   0.90507773  0.69889568  0.19110169
   0.88512125  0.79632116  0.29992724
   0.91138569  0.90624727  0.41393531
   0.89744759  0.00196710  0.50580818
   0.89570418  0.08620743  0.60869333
   0.00661038  0.20024597  0.81440443
   0.01655910  0.31340245  0.88474301
   0.00042888  0.38900334  0.02457210
   0.00342419  0.49114589  0.09742830
   0.99115544  0.59783364  0.18900173
   0.98732971  0.70103261  0.29883002
   0.00043933  0.79680171  0.38858993
   0.00381978  0.90272755  0.50203895
   0.00020752  0.98301087  0.62099592
   0.99483477  0.08697870  0.70258975
   0.09377561  0.18100874  0.88778073
   0.10325038  0.30127212  0.99494052
   0.12067470  0.38097575  0.11263721
   0.11675693  0.49808204  0.16843769
   0.11479846  0.60979866  0.29328378
   0.10249413  0.69725876  0.40170798
   0.09196463  0.78303492  0.50079351
   0.11378941  0.88630892  0.60829487
   0.11443109  0.97980640  0.71043105
   0.08047969  0.07186068  0.78633364
   0.28906979  0.26644814  0.02756020
   0.30287212  0.38839468  0.11108419
   0.30130695  0.49991317  0.21026834
   0.31268302  0.63392566  0.29911291
   0.30687230  0.72701124  0.40642808
   0.30227103  0.80129443  0.51148144
   0.30153515  0.89814019  0.59917040
   0.30359206  0.00015804  0.70247676
   0.29906138  0.09274334  0.79418332
   0.29977695  0.18454763  0.88762709
   0.38992192  0.32342297  0.08974601
   0.39383444  0.40071575  0.20085506
   0.39679438  0.51816405  0.29829288
   0.38396604  0.60351754  0.38434750
   0.39346648  0.70141151  0.50554291
   0.41979569  0.78735044  0.60162500
   0.38969491  0.90298671  0.69977286
   0.41669126  0.99781064  0.80043429
   0.42127756  0.09760819  0.90238975
   0.41524533  0.18858194  0.00360310
   0.49009560  0.30018677  0.19768448
   0.49472140  0.40734820  0.31043652
   0.49864907  0.49259347  0.39337129
   0.50264301  0.58562701  0.47760750
   0.50426071  0.71053875  0.59681045
   0.48915933  0.80834640  0.71468010
   0.49027754  0.90677778  0.80264334
   0.49901411  0.00471575  0.89900514
   0.51396064  0.11161765  0.00550080
   0.50462207  0.21653323  0.12055332
   0.58864156  0.31386551  0.29571589
   0.59770053  0.38158553  0.42597147
   0.59196830  0.50030460  0.49271591
   0.59751818  0.59138774  0.60793419
   0.60697765  0.72007358  0.71182707
   0.59066614  0.81000734  0.79806043
   0.58355218  0.89708725  0.88960311
   0.59167823  0.01093318  0.98807745
   0.60132521  0.10867406  0.08313374
   0.59680001  0.19413903  0.21160477
   0.70282095  0.27472850  0.39916063
   0.70613794  0.37612900  0.50284599
   0.70095981  0.48017267  0.59651178
   0.70137175  0.59679713  0.71258682
   0.71499417  0.69547220  0.81174826
   0.70245890  0.79708372  0.91091918
   0.69379744  0.90737158  0.99568609
   0.71418879  0.02305709  0.10410942
   0.69637877  0.10531095  0.21615529
   0.70315153  0.22111612  0.29289712
   0.80009300  0.30720599  0.49997508
   0.82629222  0.39105765  0.59671148
   0.80823034  0.51118286  0.69213117
   0.81662027  0.59715645  0.80765567
   0.81104296  0.69050971  0.91367633
   0.79829697  0.80349500  0.99396282
   0.79276585  0.91994108  0.08640874
   0.81796885  0.03075428  0.19502181
   0.79834183  0.11613511  0.30205883
   0.80934833  0.20541690  0.40224331
   0.90505923  0.30412112  0.57768200
   0.90407909  0.40124534  0.70412027
   0.90840617  0.51434843  0.80540650
   0.89299448  0.59478944  0.91501988
   0.89822056  0.69297289  0.01333483
   0.90019434  0.81380474  0.07854548
   0.90840725  0.89889629  0.19985743
   0.91518202  0.99636934  0.29975316
   0.89724254  0.09850571  0.39462255
   0.89395383  0.20399950  0.49525494
   0.02047385  0.30010168  0.69213239
   0.01018861  0.42425371  0.78363685
   0.00406149  0.48845110  0.92743487
   0.99310793  0.59295290  0.02383672
   0.99945399  0.69320828  0.10085307
   0.00371266  0.78622780  0.19211584
   0.98996513  0.89118832  0.29170056
   0.99234945  0.98904611  0.38856411
   0.00174123  0.08220061  0.50339860
   0.00265357  0.19253317  0.58833490
   0.10642726  0.29627064  0.80935584
   0.09950181  0.39952919  0.88287148
   0.08901266  0.47790517  0.99965241
   0.11184687  0.59363626  0.08447560
   0.10076648  0.70625944  0.18626305
   0.11142102  0.78566131  0.30093760
   0.08881099  0.90233302  0.39654375
   0.09634638  0.99340827  0.49820636
   0.10141891  0.08125401  0.60801269
   0.10205672  0.18296678  0.68618568
   0.18704923  0.28029275  0.88366141
   0.20607507  0.39141164  0.01337314
   0.20447045  0.50855485  0.10784826
   0.20588054  0.61041396  0.18789239
   0.19587654  0.72443109  0.28237748
   0.19795323  0.81763355  0.40221346
   0.20086561  0.88631692  0.49200449
   0.20611844  0.98083272  0.60317312
   0.20349731  0.08217198  0.69344252
   0.19282979  0.18040165  0.79221566
   0.39874330  0.39511833  0.01162820
   0.40523280  0.51050192  0.11381474
   0.42514248  0.61189292  0.19814188
   0.42004349  0.70664024  0.30215976
   0.40722917  0.79775790  0.40770314
   0.39796324  0.91459351  0.50084673
   0.40354185  0.01775423  0.59016304
   0.40972520  0.12665672  0.70170597
   0.40427541  0.22006360  0.80663699
   0.40214988  0.29635855  0.92263404
   0.51311437  0.39852195  0.10320121
   0.50328261  0.49810807  0.20887069
   0.50655791  0.59993334  0.31672776
   0.48762840  0.67666942  0.41229659
   0.50626092  0.80666486  0.49021815
   0.49960951  0.90064866  0.59417790
   0.50089016  0.00567931  0.67014159
   0.49061888  0.09516343  0.78905931
   0.49150412  0.19632567  0.88362857
   0.50789741  0.29732390  0.00067156
   0.59769144  0.39573842  0.20796183
   0.62183556  0.48516002  0.30587174
   0.61073444  0.58837424  0.38524354
   0.61118898  0.68618922  0.47170638
   0.59279299  0.79330467  0.58930731
   0.59982170  0.90073761  0.69794544
   0.60468964  0.01135024  0.79349876
   0.58454955  0.11390562  0.90107155
   0.58538102  0.21419827  0.98882243
   0.63066419  0.30846459  0.10219464
   0.71229302  0.38619068  0.32207484
   0.70324504  0.47457686  0.39332144
   0.68888667  0.59658289  0.49587885
   0.67975543  0.69262432  0.58318942
   0.70244565  0.79321690  0.69770992
   0.70106959  0.89230756  0.80440905
   0.68052782  0.99717041  0.91284343
   0.70758557  0.12205432  0.97942997
   0.69029620  0.20729324  0.09834499
   0.72297222  0.31371597  0.20199269
   0.80431353  0.39050141  0.41759186
   0.78755932  0.48834326  0.50444156
   0.79529068  0.59966944  0.59466307
   0.79600470  0.69771467  0.68803172
   0.80005328  0.79302316  0.82067067
   0.79714545  0.89813990  0.89443750
   0.81744377  0.99768704  0.00796685
   0.78096353  0.14268967  0.10538567
   0.80004804  0.21073712  0.20831243
   0.82415914  0.30679079  0.31864805
   0.92858539  0.40970907  0.49619769
   0.90079804  0.49949934  0.60005182
   0.88410930  0.59351366  0.70228290
   0.88608124  0.71307661  0.79156037
   0.91494929  0.79813090  0.90505706
   0.91037140  0.89717898  0.00388641
   0.88517531  0.00940799  0.08165612
   0.88402536  0.09823414  0.19627376
   0.90285686  0.17767370  0.29396160
   0.91903501  0.29561832  0.41227209
   0.99855258  0.41489914  0.60300297
   0.99571735  0.51579369  0.69061949
   0.98473548  0.60256200  0.81608023
   0.97912784  0.71261931  0.90960300
   0.99913025  0.79499886  0.01110970
   0.98954262  0.90986311  0.08782144
   0.98647160  0.00832504  0.17464247
   0.00222917  0.09438330  0.28188375
   0.98858327  0.19155963  0.40810079
   0.00650306  0.30560199  0.49964618
   0.09453375  0.42521420  0.70454690
   0.11538826  0.51602986  0.81520486
   0.09392423  0.60291851  0.92966538
   0.10967594  0.70348522  0.01278565
   0.07525452  0.81383458  0.09421776
   0.09121734  0.90877706  0.18589113
   0.09033716  0.98096861  0.28565437
   0.08076373  0.09544952  0.38318583
   0.09207746  0.19157932  0.50527730
   0.09264616  0.30018061  0.57909875
   0.21738733  0.41237674  0.80493876
   0.19906287  0.52017696  0.91596920
   0.19232567  0.60187018  0.01673796
   0.20432868  0.70390771  0.07951158
   0.19160475  0.80353758  0.18681959
   0.20638257  0.91380964  0.28734531
   0.19079985  0.99471522  0.39619039
   0.18446229  0.08468075  0.50082721
   0.21876799  0.19821030  0.59296644
   0.18366013  0.30390421  0.70515250
   0.30278010  0.39592299  0.91896006
   0.29524378  0.50030025  0.01181376
   0.30481842  0.59464326  0.08714411
   0.29610514  0.70816569  0.19241974
   0.29828829  0.80638728  0.29114520
   0.29505257  0.89783606  0.39587257
   0.29057469  0.98939277  0.49527755
   0.30398104  0.08585514  0.58690237
   0.29727668  0.20209935  0.70250538
   0.29504691  0.29571479  0.80609439
