 432 432   0   0
  0.1857636E+02  0.2002080E-08  0.2002080E-08  0.2002080E-08  0.5000000E-15
  1.000000000000000E-004
  CAR 
 Li                                      
      4.14693721     -3.33818291  301      0.65653150      1.00000000
     -3.338  0.0000E+00  0.0000E+00
     -3.313  0.0000E+00  0.0000E+00
     -3.288  0.0000E+00  0.0000E+00
     -3.263  0.0000E+00  0.0000E+00
     -3.238  0.0000E+00  0.0000E+00
     -3.213  0.0000E+00  0.0000E+00
     -3.188  0.0000E+00  0.0000E+00
     -3.164  0.2325E-12  0.5801E-14
     -3.139  0.1334E-08  0.3329E-10
     -3.114  0.1961E-05  0.4895E-07
     -3.089  0.7508E-03  0.1878E-04
     -3.064  0.7610E-01  0.1917E-02
     -3.039  0.2089E+01  0.5403E-01
     -3.014  0.1599E+02  0.4530E+00
     -2.989  0.3514E+02  0.1330E+01
     -2.964  0.2249E+02  0.1891E+01
     -2.939  0.4236E+01  0.1997E+01
     -2.914  0.2775E+01  0.2066E+01
     -2.889  0.2519E+02  0.2694E+01
     -2.864  0.8131E+02  0.4723E+01
     -2.839  0.9089E+02  0.6991E+01
     -2.814  0.3558E+02  0.7879E+01
     -2.789  0.5270E+01  0.8010E+01
     -2.764  0.1014E+02  0.8263E+01
     -2.739  0.5334E+02  0.9594E+01
     -2.714  0.9751E+02  0.1203E+02
     -2.689  0.6348E+02  0.1361E+02
     -2.665  0.1465E+02  0.1398E+02
     -2.640  0.5467E+01  0.1411E+02
     -2.615  0.3809E+02  0.1506E+02
     -2.590  0.1115E+03  0.1784E+02
     -2.565  0.1162E+03  0.2074E+02
     -2.540  0.4418E+02  0.2185E+02
     -2.515  0.8051E+01  0.2205E+02
     -2.490  0.2718E+02  0.2273E+02
     -2.465  0.1155E+03  0.2561E+02
     -2.440  0.1848E+03  0.3022E+02
     -2.415  0.1185E+03  0.3317E+02
     -2.390  0.3029E+02  0.3393E+02
     -2.365  0.5687E+01  0.3407E+02
     -2.340  0.2915E+02  0.3480E+02
     -2.315  0.9068E+02  0.3706E+02
     -2.290  0.8848E+02  0.3927E+02
     -2.265  0.2687E+02  0.3994E+02
     -2.240  0.5353E+01  0.4007E+02
     -2.215  0.3132E+02  0.4085E+02
     -2.190  0.1199E+03  0.4385E+02
     -2.166  0.1832E+03  0.4842E+02
     -2.141  0.1145E+03  0.5127E+02
     -2.116  0.2814E+02  0.5198E+02
     -2.091  0.2193E+02  0.5252E+02
     -2.066  0.1113E+03  0.5530E+02
     -2.041  0.2390E+03  0.6126E+02
     -2.016  0.2272E+03  0.6693E+02
     -1.991  0.1019E+03  0.6947E+02
     -1.966  0.2074E+02  0.6999E+02
     -1.941  0.1544E+02  0.7038E+02
     -1.916  0.6027E+02  0.7188E+02
     -1.891  0.9364E+02  0.7422E+02
     -1.866  0.5716E+02  0.7564E+02
     -1.841  0.1486E+02  0.7601E+02
     -1.816  0.2318E+02  0.7659E+02
     -1.791  0.1075E+03  0.7927E+02
     -1.766  0.2034E+03  0.8435E+02
     -1.741  0.1642E+03  0.8844E+02
     -1.716  0.5544E+02  0.8983E+02
     -1.691  0.1333E+02  0.9016E+02
     -1.667  0.5736E+02  0.9159E+02
     -1.642  0.1856E+03  0.9622E+02
     -1.617  0.2570E+03  0.1026E+03
     -1.592  0.1643E+03  0.1067E+03
     -1.567  0.4607E+02  0.1079E+03
     -1.542  0.1251E+02  0.1082E+03
     -1.517  0.5764E+02  0.1096E+03
     -1.492  0.1563E+03  0.1135E+03
     -1.467  0.1701E+03  0.1178E+03
     -1.442  0.7642E+02  0.1197E+03
     -1.417  0.2596E+02  0.1203E+03
     -1.392  0.8527E+02  0.1225E+03
     -1.367  0.2144E+03  0.1278E+03
     -1.342  0.2454E+03  0.1339E+03
     -1.317  0.1313E+03  0.1372E+03
     -1.292  0.3318E+02  0.1380E+03
     -1.267  0.4333E+02  0.1391E+03
     -1.242  0.1613E+03  0.1431E+03
     -1.217  0.2568E+03  0.1495E+03
     -1.192  0.1861E+03  0.1542E+03
     -1.167  0.6320E+02  0.1558E+03
     -1.143  0.1607E+02  0.1562E+03
     -1.118  0.5342E+02  0.1575E+03
     -1.093  0.1466E+03  0.1612E+03
     -1.068  0.1691E+03  0.1654E+03
     -1.043  0.8601E+02  0.1675E+03
     -1.018  0.1917E+02  0.1680E+03
     -0.993  0.2010E+02  0.1685E+03
     -0.968  0.8278E+02  0.1706E+03
     -0.943  0.1461E+03  0.1742E+03
     -0.918  0.1410E+03  0.1777E+03
     -0.893  0.8422E+02  0.1798E+03
     -0.868  0.9073E+02  0.1821E+03
     -0.843  0.2135E+03  0.1874E+03
     -0.818  0.2998E+03  0.1949E+03
     -0.793  0.3007E+03  0.2024E+03
     -0.768  0.2129E+03  0.2077E+03
     -0.743  0.9069E+02  0.2100E+03
     -0.718  0.9180E+02  0.2123E+03
     -0.693  0.1959E+03  0.2172E+03
     -0.668  0.2153E+03  0.2225E+03
     -0.644  0.1474E+03  0.2262E+03
     -0.619  0.6178E+02  0.2278E+03
     -0.594  0.2619E+02  0.2284E+03
     -0.569  0.8577E+02  0.2305E+03
     -0.544  0.1857E+03  0.2352E+03
     -0.519  0.1812E+03  0.2397E+03
     -0.494  0.8008E+02  0.2417E+03
     -0.469  0.4005E+02  0.2427E+03
     -0.444  0.1306E+03  0.2460E+03
     -0.419  0.2684E+03  0.2527E+03
     -0.394  0.2976E+03  0.2601E+03
     -0.369  0.1921E+03  0.2649E+03
     -0.344  0.1084E+03  0.2676E+03
     -0.319  0.1055E+03  0.2702E+03
     -0.294  0.5945E+02  0.2717E+03
     -0.269  0.1274E+02  0.2720E+03
     -0.244  0.1851E+02  0.2725E+03
     -0.219  0.9484E+02  0.2748E+03
     -0.194  0.2087E+03  0.2800E+03
     -0.169  0.2529E+03  0.2864E+03
     -0.145  0.2210E+03  0.2919E+03
     -0.120  0.1433E+03  0.2954E+03
     -0.095  0.1158E+03  0.2983E+03
     -0.070  0.1747E+03  0.3027E+03
     -0.045  0.2137E+03  0.3080E+03
     -0.020  0.2169E+03  0.3134E+03
      0.005  0.2136E+03  0.3188E+03
      0.030  0.2134E+03  0.3241E+03
      0.055  0.1961E+03  0.3290E+03
      0.080  0.1365E+03  0.3324E+03
      0.105  0.1100E+03  0.3351E+03
      0.130  0.1026E+03  0.3377E+03
      0.155  0.1135E+03  0.3405E+03
      0.180  0.1385E+03  0.3440E+03
      0.205  0.1736E+03  0.3483E+03
      0.230  0.2496E+03  0.3545E+03
      0.255  0.3071E+03  0.3622E+03
      0.280  0.3224E+03  0.3702E+03
      0.305  0.2527E+03  0.3765E+03
      0.330  0.1205E+03  0.3796E+03
      0.354  0.7041E+02  0.3813E+03
      0.379  0.1485E+03  0.3850E+03
      0.404  0.2406E+03  0.3910E+03
      0.429  0.2477E+03  0.3972E+03
      0.454  0.1750E+03  0.4016E+03
      0.479  0.9001E+02  0.4038E+03
      0.504  0.7236E+02  0.4056E+03
      0.529  0.1228E+03  0.4087E+03
      0.554  0.1686E+03  0.4129E+03
      0.579  0.1992E+03  0.4179E+03
      0.604  0.1996E+03  0.4228E+03
      0.629  0.1712E+03  0.4271E+03
      0.654  0.1752E+03  0.4315E+03
      0.679  0.2165E+03  0.4369E+03
      0.704  0.2559E+03  0.4433E+03
      0.729  0.2730E+03  0.4501E+03
      0.754  0.2509E+03  0.4563E+03
      0.779  0.1907E+03  0.4611E+03
      0.804  0.1269E+03  0.4643E+03
      0.829  0.1193E+03  0.4672E+03
      0.853  0.1443E+03  0.4708E+03
      0.878  0.1856E+03  0.4755E+03
      0.903  0.2218E+03  0.4810E+03
      0.928  0.2228E+03  0.4866E+03
      0.953  0.2259E+03  0.4922E+03
      0.978  0.2475E+03  0.4984E+03
      1.003  0.2749E+03  0.5052E+03
      1.028  0.2867E+03  0.5124E+03
      1.053  0.2740E+03  0.5192E+03
      1.078  0.2421E+03  0.5253E+03
      1.103  0.2059E+03  0.5304E+03
      1.128  0.2084E+03  0.5356E+03
      1.153  0.2390E+03  0.5416E+03
      1.178  0.2464E+03  0.5477E+03
      1.203  0.2404E+03  0.5537E+03
      1.228  0.2464E+03  0.5599E+03
      1.253  0.2435E+03  0.5659E+03
      1.278  0.2161E+03  0.5713E+03
      1.303  0.1962E+03  0.5762E+03
      1.328  0.2175E+03  0.5816E+03
      1.352  0.2476E+03  0.5878E+03
      1.377  0.2583E+03  0.5943E+03
      1.402  0.2640E+03  0.6009E+03
      1.427  0.2504E+03  0.6071E+03
      1.452  0.2143E+03  0.6125E+03
      1.477  0.1862E+03  0.6171E+03
      1.502  0.1650E+03  0.6212E+03
      1.527  0.1553E+03  0.6251E+03
      1.552  0.1775E+03  0.6295E+03
      1.577  0.2043E+03  0.6346E+03
      1.602  0.2085E+03  0.6398E+03
      1.627  0.2008E+03  0.6448E+03
      1.652  0.1667E+03  0.6490E+03
      1.677  0.9294E+02  0.6513E+03
      1.702  0.3803E+02  0.6523E+03
      1.727  0.6861E+02  0.6540E+03
      1.752  0.1392E+03  0.6574E+03
      1.777  0.1492E+03  0.6612E+03
      1.802  0.1092E+03  0.6639E+03
      1.827  0.1042E+03  0.6665E+03
      1.852  0.1407E+03  0.6700E+03
      1.876  0.1748E+03  0.6744E+03
      1.901  0.2028E+03  0.6794E+03
      1.926  0.2090E+03  0.6846E+03
      1.951  0.1859E+03  0.6893E+03
      1.976  0.1308E+03  0.6925E+03
      2.001  0.6397E+02  0.6941E+03
      2.026  0.7622E+02  0.6960E+03
      2.051  0.1523E+03  0.6998E+03
      2.076  0.1853E+03  0.7045E+03
      2.101  0.1747E+03  0.7088E+03
      2.126  0.1733E+03  0.7131E+03
      2.151  0.1852E+03  0.7178E+03
      2.176  0.1722E+03  0.7221E+03
      2.201  0.1553E+03  0.7259E+03
      2.226  0.1784E+03  0.7304E+03
      2.251  0.2124E+03  0.7357E+03
      2.276  0.2105E+03  0.7409E+03
      2.301  0.1953E+03  0.7458E+03
      2.326  0.1696E+03  0.7500E+03
      2.351  0.1328E+03  0.7534E+03
      2.375  0.1265E+03  0.7565E+03
      2.400  0.1540E+03  0.7604E+03
      2.425  0.1870E+03  0.7650E+03
      2.450  0.1774E+03  0.7694E+03
      2.475  0.1495E+03  0.7732E+03
      2.500  0.1403E+03  0.7767E+03
      2.525  0.1319E+03  0.7800E+03
      2.550  0.9908E+02  0.7824E+03
      2.575  0.5682E+02  0.7839E+03
      2.600  0.5693E+02  0.7853E+03
      2.625  0.9945E+02  0.7878E+03
      2.650  0.1194E+03  0.7907E+03
      2.675  0.1078E+03  0.7934E+03
      2.700  0.7059E+02  0.7952E+03
      2.725  0.2745E+02  0.7959E+03
      2.750  0.4879E+01  0.7960E+03
      2.775  0.4366E+01  0.7961E+03
      2.800  0.3175E+02  0.7969E+03
      2.825  0.8610E+02  0.7990E+03
      2.850  0.8486E+02  0.8012E+03
      2.874  0.2986E+02  0.8019E+03
      2.899  0.3530E+01  0.8020E+03
      2.924  0.1306E+00  0.8020E+03
      2.949  0.1903E-02  0.8020E+03
      2.974  0.4911E-01  0.8020E+03
      2.999  0.1504E+01  0.8020E+03
      3.024  0.1497E+02  0.8024E+03
      3.049  0.5403E+02  0.8038E+03
      3.074  0.8807E+02  0.8060E+03
      3.099  0.1017E+03  0.8085E+03
      3.124  0.1115E+03  0.8113E+03
      3.149  0.1075E+03  0.8140E+03
      3.174  0.8966E+02  0.8162E+03
      3.199  0.5814E+02  0.8176E+03
      3.224  0.4008E+02  0.8186E+03
      3.249  0.7648E+02  0.8206E+03
      3.274  0.1159E+03  0.8234E+03
      3.299  0.1210E+03  0.8265E+03
      3.324  0.1260E+03  0.8296E+03
      3.349  0.1468E+03  0.8333E+03
      3.373  0.1495E+03  0.8370E+03
      3.398  0.1250E+03  0.8401E+03
      3.423  0.8471E+02  0.8422E+03
      3.448  0.7591E+02  0.8441E+03
      3.473  0.8371E+02  0.8462E+03
      3.498  0.5506E+02  0.8476E+03
      3.523  0.1609E+02  0.8480E+03
      3.548  0.1356E+02  0.8483E+03
      3.573  0.4370E+02  0.8494E+03
      3.598  0.6336E+02  0.8510E+03
      3.623  0.6445E+02  0.8526E+03
      3.648  0.8455E+02  0.8547E+03
      3.673  0.1062E+03  0.8574E+03
      3.698  0.9924E+02  0.8598E+03
      3.723  0.6951E+02  0.8616E+03
      3.748  0.4799E+02  0.8628E+03
      3.773  0.5207E+02  0.8641E+03
      3.798  0.4625E+02  0.8652E+03
      3.823  0.2409E+02  0.8658E+03
      3.848  0.6116E+01  0.8660E+03
      3.872  0.6151E+00  0.8660E+03
      3.897  0.2026E-01  0.8660E+03
      3.922  0.1931E-03  0.8660E+03
      3.947  0.4989E-06  0.8660E+03
      3.972  0.3386E-09  0.8660E+03
      3.997  0.5785E-13  0.8660E+03
      4.022  0.0000E+00  0.8660E+03
      4.047  0.0000E+00  0.8660E+03
      4.072  0.0000E+00  0.8660E+03
      4.097  0.0000E+00  0.8660E+03
      4.122  0.0000E+00  0.8660E+03
      4.147  0.0000E+00  0.8660E+03
