 running on   64 total cores
 distrk:  each k-point on   32 cores,    2 groups
 distr:  one band on   32 cores,    1 groups
 vasp.6.2.1 16May21 (build Nov 23 2021 15:40:41) complex                        
  
 POSCAR found type information on POSCAR Li
 POSCAR found :  1 types and     432 ions
 scaLAPACK will be used
 -----------------------------------------------------------------------------
|                                                                             |
|           W    W    AA    RRRRR   N    N  II  N    N   GGGG   !!!           |
|           W    W   A  A   R    R  NN   N  II  NN   N  G    G  !!!           |
|           W    W  A    A  R    R  N N  N  II  N N  N  G       !!!           |
|           W WW W  AAAAAA  RRRRR   N  N N  II  N  N N  G  GGG   !            |
|           WW  WW  A    A  R   R   N   NN  II  N   NN  G    G                |
|           W    W  A    A  R    R  N    N  II  N    N   GGGG   !!!           |
|                                                                             |
|     For optimal performance we recommend to set                             |
|       NCORE = 2 up to number-of-cores-per-socket                            |
|     NCORE specifies how many cores store one orbital (NPAR=cpu/NCORE).      |
|     This setting can greatly improve the performance of VASP for DFT.       |
|     The default, NCORE=1 might be grossly inefficient on modern             |
|     multi-core architectures or massively parallel machines. Do your        |
|     own testing! More info at https://www.vasp.at/wiki/index.php/NCORE      |
|     Unfortunately you need to use the default for GW and RPA                |
|     calculations (for HF NCORE is supported but not extensively tested      |
|     yet).                                                                   |
|                                                                             |
 -----------------------------------------------------------------------------

 -----------------------------------------------------------------------------
|                                                                             |
|               ----> ADVICE to this user running VASP <----                  |
|                                                                             |
|     You have a (more or less) 'large supercell' and for larger cells it     |
|     might be more efficient to use real-space projection operators.         |
|     Therefore, try LREAL= Auto in the INCAR file.                           |
|     Mind: If you want to do very accurate calculations, keep the            |
|     reciprocal projection scheme (i.e. LREAL=.FALSE.).                      |
|                                                                             |
 -----------------------------------------------------------------------------

 LDA part: xc-table for Pade appr. of Perdew
 POSCAR found type information on POSCAR Li
 POSCAR found :  1 types and     432 ions
 POSCAR, INCAR and KPOINTS ok, starting setup
 FFT: planning ...
 WAVECAR not read
 entering main loop
       N       E                     dE             d eps       ncg     rms          rms(c)
DAV:   1    -0.235320613764E+03   -0.23532E+03   -0.10725E+05  3464   0.664E+02
DAV:   2    -0.769442996350E+03   -0.53412E+03   -0.48841E+03  3996   0.696E+01
DAV:   3    -0.805245443216E+03   -0.35802E+02   -0.32556E+02  4304   0.143E+01
DAV:   4    -0.806369507966E+03   -0.11241E+01   -0.11092E+01  3880   0.279E+00
DAV:   5    -0.806393821432E+03   -0.24313E-01   -0.24290E-01  4056   0.440E-01    0.689E+00
DAV:   6    -0.804396973139E+03    0.19968E+01   -0.54702E+00  3832   0.353E+00    0.555E+00
DAV:   7    -0.801009671746E+03    0.33873E+01   -0.43840E+00  3896   0.321E+00    0.342E+00
DAV:   8    -0.799818178669E+03    0.11915E+01   -0.19857E+00  3896   0.162E+00    0.192E+00
DAV:   9    -0.799565608417E+03    0.25257E+00   -0.11723E+00  3736   0.891E-01    0.101E+00
DAV:  10    -0.799570435920E+03   -0.48275E-02   -0.20908E-01  3984   0.518E-01    0.797E-01
DAV:  11    -0.799513921469E+03    0.56514E-01   -0.82578E-02  3912   0.375E-01    0.442E-01
DAV:  12    -0.799505067808E+03    0.88537E-02   -0.22976E-02  3816   0.161E-01    0.206E-01
DAV:  13    -0.799504107382E+03    0.96043E-03   -0.83384E-03  3808   0.101E-01    0.111E-01
DAV:  14    -0.799503797535E+03    0.30985E-03   -0.21854E-03  3856   0.660E-02    0.805E-02
DAV:  15    -0.799503126982E+03    0.67055E-03   -0.79014E-04  3824   0.370E-02    0.340E-02
DAV:  16    -0.799503024018E+03    0.10296E-03   -0.41136E-04  3688   0.171E-02    0.126E-02
DAV:  17    -0.799503016006E+03    0.80116E-05   -0.52904E-05  4032   0.902E-03
   1 F= -.79950302E+03 E0= -.79945844E+03  d E =-.891489E-01
