Li                                      
           1
    20.020800    0.000000    0.000000
     0.000000   20.020800    0.000000
     0.000000    0.000000   20.020800
   Li
   432
Direct configuration=     1
   0.01529426  0.00533885  0.00513692
   0.91111831  0.07584768  0.09071075
   0.85091931  0.17710827  0.16021469
   0.76282096  0.26884939  0.24666057
   0.67709509  0.33787170  0.34143972
   0.57652408  0.42404630  0.41769331
   0.49705954  0.49837030  0.50704023
   0.42082973  0.60524467  0.58451634
   0.32743678  0.66886094  0.68229217
   0.24701008  0.76055052  0.77207437
   0.17945258  0.84041960  0.84323796
   0.08310609  0.91430600  0.92209966
   0.08058097  0.91424494  0.08326473
   0.99419233  0.00097850  0.17777662
   0.90857975  0.08677305  0.25596596
   0.82525189  0.17613449  0.33232967
   0.76178083  0.25964470  0.43625028
   0.69284138  0.33638517  0.50131313
   0.59726136  0.42020588  0.59684886
   0.50125690  0.49697921  0.66439010
   0.42391878  0.58016948  0.75524289
   0.34308885  0.66728724  0.84789911
   0.24917990  0.73979416  0.93767066
   0.16691770  0.82948870  0.01160603
   0.16719848  0.84557308  0.17443253
   0.08629268  0.91785968  0.24651453
   0.99133556  0.99672831  0.33433139
   0.90857319  0.08413796  0.41871845
   0.84025364  0.17191832  0.51386594
   0.74423686  0.24727011  0.58951668
   0.68221531  0.33109518  0.68156135
   0.59176615  0.41669923  0.75306829
   0.48914941  0.49772397  0.83941232
   0.40942378  0.57554600  0.92445270
   0.32985663  0.66053075  0.02141420
   0.23845894  0.74477852  0.08181602
   0.24332761  0.74340622  0.25822504
   0.17317451  0.83557886  0.33619773
   0.09503220  0.91601562  0.41895812
   0.01139306  0.98573321  0.50298644
   0.91174094  0.07149013  0.58682810
   0.83141748  0.16079761  0.68807981
   0.76479090  0.23095879  0.76896746
   0.67110561  0.31627970  0.83631256
   0.58480533  0.42197345  0.92225014
   0.49763189  0.50394551  0.99814043
   0.41951143  0.57340259  0.08755324
   0.32115199  0.65771405  0.16734628
   0.34384056  0.65536271  0.33971685
   0.24787113  0.74088643  0.41047745
   0.18025842  0.82395588  0.51356773
   0.09277956  0.90153886  0.58243157
   0.00125448  0.98223148  0.66386689
   0.92173561  0.07484753  0.74142004
   0.83884286  0.14837768  0.81531213
   0.75513391  0.24604704  0.91382160
   0.67827517  0.34945119  0.98843978
   0.58136784  0.43834838  0.08308367
   0.49099610  0.49460481  0.17419372
   0.41401299  0.59718494  0.24876979
   0.42221569  0.58596422  0.41004536
   0.34013352  0.66989494  0.48874516
   0.25215768  0.74851509  0.57889470
   0.17067102  0.83362456  0.67280178
   0.09658014  0.90479466  0.75227688
   0.01353079  0.99670270  0.81802478
   0.92564737  0.08176006  0.90694353
   0.84890016  0.17269962  0.98691545
   0.76055991  0.26393285  0.09592825
   0.67153889  0.34599098  0.16857492
   0.58004194  0.41791816  0.26599006
   0.49055886  0.49875264  0.32789567
   0.07478437  0.07647886  0.90308890
   0.99374081  0.14942271  0.97674897
   0.93184376  0.23726216  0.06694892
   0.83917685  0.34414740  0.16305458
   0.76197793  0.41375683  0.24048973
   0.67630961  0.50453562  0.34318705
   0.57749807  0.57764685  0.41093941
   0.49726211  0.66404098  0.49055023
   0.41117495  0.75608682  0.58664815
   0.33110423  0.82904369  0.67401693
   0.25818904  0.93134295  0.75292530
   0.15609049  0.99949176  0.85179286
   0.15512993  0.01189633  0.01334790
   0.06368706  0.08814221  0.09755011
   0.99789729  0.15563880  0.17366579
   0.91672944  0.24610461  0.24492360
   0.84111606  0.32236963  0.33613122
   0.76109676  0.40715438  0.42532896
   0.66184861  0.49411532  0.48856168
   0.59319611  0.57763751  0.57494643
   0.50775034  0.66363424  0.66703206
   0.43001280  0.76595955  0.74770315
   0.33370903  0.85358623  0.84888336
   0.26158844  0.92576689  0.92712176
   0.23860610  0.90842130  0.08159969
   0.16302889  0.00615943  0.15970711
   0.08524608  0.07962743  0.26081422
   0.98383269  0.15957354  0.33930725
   0.92019204  0.23358289  0.43140764
   0.84511342  0.33337559  0.52174618
   0.73855698  0.41616234  0.58606746
   0.68261100  0.50765295  0.66987316
   0.57912736  0.59363966  0.75147134
   0.49383776  0.68061996  0.85523874
   0.40741902  0.75063335  0.93217085
   0.34696931  0.83472724  0.01464617
   0.31815242  0.83900097  0.16785508
   0.25276078  0.92138438  0.23928654
   0.17777958  0.99663717  0.32254137
   0.07388041  0.07712041  0.41719720
   0.00696087  0.16684954  0.51551485
   0.92138390  0.24595571  0.59248808
   0.83038740  0.32653958  0.66290095
   0.75391037  0.40274998  0.74873155
   0.67442304  0.49287559  0.83687970
   0.58294792  0.58388423  0.91404456
   0.50476853  0.66247175  0.99970765
   0.41037834  0.73178944  0.08966758
   0.41410493  0.74919262  0.24595183
   0.32579757  0.82957220  0.32534042
   0.23842980  0.91527681  0.41691851
   0.16510810  0.99505349  0.50325975
   0.08122639  0.08004532  0.58361565
   0.00825982  0.14907870  0.66549504
   0.93993081  0.24321680  0.75037335
   0.85147228  0.32936222  0.83550849
   0.76488209  0.41083622  0.90267674
   0.68076746  0.50662236  0.00301676
   0.57844387  0.58255227  0.08722399
   0.50689187  0.66843925  0.16719963
   0.51272746  0.66151382  0.32293096
   0.42758659  0.74609191  0.40767902
   0.33552777  0.83895652  0.49094954
   0.26588949  0.91586597  0.58405813
   0.17171189  0.00359213  0.66102946
   0.08296493  0.07976607  0.73639225
   0.00520028  0.16846446  0.83658589
   0.90623844  0.25822897  0.89869690
   0.83516540  0.32891185  0.00950182
   0.73507488  0.42727438  0.07689364
   0.66259721  0.48988257  0.16697027
   0.59787471  0.57499949  0.24219418
   0.16794991  0.13988009  0.82301863
   0.09921656  0.23271228  0.90922639
   0.00454125  0.32160127  0.98892014
   0.94218653  0.41481805  0.09134859
   0.82353623  0.50686735  0.16020175
   0.73799743  0.58177531  0.24446934
   0.66030163  0.66523665  0.32692914
   0.57597363  0.75609194  0.42487468
   0.49232141  0.83742299  0.48918080
   0.40948940  0.92125928  0.57857874
   0.33333294  0.00173843  0.66768522
   0.25138991  0.07712579  0.76111776
   0.24871539  0.07684532  0.92846493
   0.17698396  0.14680465  0.99033149
   0.08892244  0.23457098  0.07072060
   0.01410120  0.31801615  0.17789462
   0.91552072  0.43106344  0.25502381
   0.81712047  0.50722719  0.33994539
   0.75271012  0.59670064  0.42681461
   0.66577011  0.66740544  0.50782083
   0.56742971  0.74315629  0.58010990
   0.51787903  0.83160946  0.66590957
   0.43088536  0.91840295  0.74716061
   0.34565309  0.00966961  0.83791207
   0.34190124  0.00082753  0.99967489
   0.24579330  0.07932427  0.08049200
   0.14975036  0.15752808  0.16727929
   0.08113991  0.22831215  0.25332906
   0.00454620  0.33692104  0.33321526
   0.90971919  0.41184006  0.42161123
   0.83193753  0.50171698  0.50483912
   0.75732639  0.59495209  0.57348957
   0.65745893  0.67623389  0.65153939
   0.58391012  0.75197106  0.75522229
   0.50220195  0.83683195  0.84379862
   0.43231966  0.91595370  0.91317332
   0.41322932  0.90810804  0.11015338
   0.31371104  0.00717271  0.15729948
   0.23617697  0.10377217  0.23656689
   0.15510848  0.17365366  0.33562343
   0.08259393  0.24783263  0.41559496
   0.99668872  0.33090790  0.48970773
   0.92712726  0.41648914  0.59506171
   0.83946244  0.49773611  0.67609410
   0.74294797  0.59306673  0.74994616
   0.66252592  0.65652607  0.83656827
   0.59371490  0.75870336  0.91351911
   0.48875796  0.82799943  0.99625796
   0.49944411  0.83163747  0.16880657
   0.41111961  0.90695873  0.24081402
   0.33131137  0.98533376  0.30815750
   0.23781629  0.08363759  0.39874694
   0.17155251  0.16381897  0.48987809
   0.07081279  0.24178702  0.59431836
   0.00936353  0.33517915  0.65841907
   0.92133365  0.41076049  0.75069916
   0.84644160  0.50945367  0.82159549
   0.76415009  0.58759148  0.92964269
   0.66683601  0.67232948  0.99359837
   0.59821346  0.75290840  0.08235354
   0.58941925  0.76059075  0.23365186
   0.49740666  0.82910756  0.33532987
   0.41149797  0.92015543  0.41030461
   0.32854667  0.01408278  0.50406847
   0.25656940  0.08388601  0.58650810
   0.15391548  0.16772985  0.66668914
   0.08952446  0.24926191  0.75386008
   0.00807728  0.33869048  0.82514407
   0.92808003  0.41522873  0.93283512
   0.83531443  0.48049066  0.00578586
   0.74668050  0.60048597  0.08727802
   0.65544528  0.68035265  0.18188083
   0.22656686  0.24474958  0.74449191
   0.14439920  0.34366419  0.82976908
   0.07568412  0.41021437  0.91535735
   0.00403083  0.50141712  0.00463101
   0.92253224  0.57607004  0.08642869
   0.82970168  0.65307395  0.17558661
   0.75271887  0.75731148  0.25420664
   0.66921331  0.82534944  0.32455710
   0.59216249  0.91491201  0.40454704
   0.50002618  0.99871470  0.48171518
   0.41394846  0.07751306  0.58361559
   0.34435508  0.17663951  0.66975921
   0.34665566  0.16880827  0.82975789
   0.24140704  0.23690851  0.89878236
   0.16741823  0.32666136  0.99723323
   0.07474719  0.40538512  0.08353502
   0.00418264  0.49534893  0.17941042
   0.91695046  0.57038802  0.25052767
   0.83250018  0.66641428  0.32605626
   0.74661746  0.74671585  0.40484750
   0.66317585  0.83543287  0.50146213
   0.57177869  0.91418968  0.57506680
   0.48562761  0.00046551  0.64760250
   0.41768270  0.09052610  0.73854923
   0.42375912  0.09963440  0.91353157
   0.34013457  0.16743325  0.00362120
   0.23813406  0.24611436  0.08854879
   0.15657245  0.32624635  0.18815984
   0.07670297  0.42602071  0.24465609
   0.98798228  0.50162303  0.34904760
   0.90678081  0.58187399  0.40949334
   0.83587624  0.67200667  0.48593204
   0.74945257  0.75343216  0.57695357
   0.67412083  0.82932674  0.65891112
   0.56884519  0.91243475  0.75501255
   0.50748440  0.00821449  0.83305352
   0.48634116  0.98738648  0.00041998
   0.42972834  0.08761309  0.09121712
   0.32883105  0.17426764  0.15745397
   0.26055111  0.24370733  0.24640889
   0.15889166  0.33734317  0.32392341
   0.08106170  0.40580559  0.42005791
   0.99081689  0.50145571  0.50029699
   0.92390649  0.58712071  0.58797484
   0.83698170  0.65805624  0.65528700
   0.72948128  0.74060756  0.75484000
   0.66983697  0.82802505  0.83009879
   0.59501567  0.92489118  0.90713406
   0.58615049  0.91853569  0.07941057
   0.49816615  0.00124930  0.17025050
   0.42007035  0.09418234  0.24318859
   0.32934459  0.17076501  0.32927950
   0.24955483  0.25789206  0.42204817
   0.16384595  0.32548207  0.50662981
   0.07527193  0.41366796  0.56949857
   0.99194639  0.49703853  0.66737838
   0.91532638  0.58138882  0.75280454
   0.84081970  0.66337618  0.82879461
   0.74767121  0.74229090  0.92146882
   0.67247003  0.83263240  0.99686233
   0.67345136  0.84689640  0.16839850
   0.58381097  0.93009714  0.26228172
   0.49784891  0.99750939  0.32626388
   0.40460056  0.08509003  0.41235090
   0.33130074  0.17687093  0.50523597
   0.24803285  0.24707657  0.58747486
   0.16275535  0.33709723  0.66503231
   0.07755084  0.41328238  0.74143355
   0.00371482  0.51029218  0.83010933
   0.91029610  0.56989966  0.92778170
   0.83250046  0.68098900  0.01423322
   0.74951286  0.75082679  0.10189015
   0.32408424  0.32285965  0.66743264
   0.26028020  0.40600329  0.75091185
   0.17253543  0.50021399  0.81877408
   0.08469163  0.56729385  0.91245499
   0.00556821  0.66921293  0.01396940
   0.90760371  0.76083594  0.09485300
   0.83392301  0.84788219  0.17480785
   0.75526888  0.92262528  0.24512936
   0.68023705  0.00249102  0.34090678
   0.58611305  0.07341630  0.40859923
   0.48948212  0.17097391  0.48659211
   0.42706429  0.25201331  0.57259076
   0.41534474  0.25788102  0.74664358
   0.33116555  0.33466244  0.81757022
   0.24928581  0.42019013  0.89634232
   0.16279085  0.49605003  0.01139105
   0.06778962  0.58358090  0.08771682
   0.98879356  0.67570723  0.17787508
   0.90612223  0.76202010  0.25905329
   0.81904867  0.86082160  0.35079922
   0.74188174  0.91891845  0.42892298
   0.65658837  0.00026859  0.49850305
   0.57500248  0.09944323  0.57762971
   0.50504591  0.17512034  0.66914591
   0.51186351  0.18766192  0.82601534
   0.41251195  0.25601545  0.90950603
   0.32082848  0.32398501  0.00827780
   0.25720168  0.41774157  0.09121283
   0.16448719  0.50675762  0.15924165
   0.07171779  0.57735506  0.25294967
   0.00304861  0.67877486  0.32405949
   0.91813331  0.74999919  0.40914584
   0.83674945  0.83719073  0.48952768
   0.76087737  0.92102566  0.58254336
   0.65524370  0.98416175  0.65661889
   0.57989838  0.08384742  0.73387959
   0.57417249  0.09745713  0.92379724
   0.49624117  0.19044379  0.00278697
   0.42198155  0.26659890  0.08707315
   0.31094460  0.32859434  0.15019093
   0.24327351  0.42995364  0.23653267
   0.15944587  0.49916087  0.32823567
   0.07019403  0.58450073  0.41201335
   0.99919794  0.66335099  0.48524373
   0.90242592  0.74409802  0.57637687
   0.82751676  0.81484008  0.66594865
   0.75232816  0.90852869  0.73925735
   0.66210839  0.99066878  0.83265211
   0.66770896  0.00528487  0.99520875
   0.57656342  0.08164878  0.08119241
   0.50554769  0.18322578  0.15182336
   0.41384068  0.24601464  0.24413643
   0.32262234  0.34784974  0.32592389
   0.24835393  0.41297720  0.41748836
   0.15983964  0.49895240  0.49674321
   0.06717253  0.58214230  0.58682840
   0.99338407  0.68182986  0.66388337
   0.91790802  0.75006450  0.75494993
   0.83447691  0.82657651  0.83503139
   0.76839842  0.91914196  0.92282563
   0.75294294  0.92505287  0.07905425
   0.67093514  0.99570432  0.16207906
   0.59160885  0.08437492  0.25791262
   0.50708287  0.16804993  0.33246951
   0.40139383  0.24996715  0.41269529
   0.32856343  0.34190810  0.49676721
   0.23885259  0.42329295  0.56601423
   0.15959988  0.49897665  0.65137238
   0.09258438  0.58246032  0.74863357
   0.99001306  0.65464230  0.84331835
   0.91135985  0.75062226  0.92110107
   0.83497554  0.83745790  0.00842718
   0.41774157  0.41863802  0.56919848
   0.33149368  0.49017961  0.65130912
   0.24250015  0.58734117  0.75057205
   0.16141622  0.67083640  0.83857120
   0.08657114  0.74955460  0.91983600
   0.99967425  0.83687451  0.00221038
   0.91210507  0.92826862  0.07500418
   0.82714423  0.00299172  0.14776609
   0.75994986  0.08205994  0.25450193
   0.67864922  0.17133044  0.33990349
   0.60011582  0.23997212  0.41631675
   0.50107480  0.33953747  0.49483907
   0.49835628  0.33982145  0.66348310
   0.41444272  0.40836996  0.73768993
   0.34140622  0.51059225  0.81564353
   0.24843186  0.58490298  0.91562435
   0.15198021  0.66135667  0.01034500
   0.07841446  0.76047712  0.09851807
   0.98124613  0.84230190  0.17147658
   0.89093181  0.92531593  0.26578412
   0.82046109  0.99745093  0.34474468
   0.75776945  0.08537702  0.43004705
   0.66776639  0.15167497  0.50029526
   0.56658307  0.27270601  0.56350278
   0.57770896  0.26034066  0.75686164
   0.50653173  0.33572729  0.83898452
   0.40131662  0.40266222  0.92012929
   0.31971808  0.50425009  0.99982467
   0.25187212  0.59517146  0.09128836
   0.14973422  0.66534327  0.17611419
   0.08255003  0.76181653  0.24518055
   0.00452449  0.84719782  0.34716340
   0.90614879  0.91601099  0.42240171
   0.84173941  0.99894193  0.50450022
   0.74417731  0.06995764  0.59332688
   0.65841634  0.18308390  0.66149629
   0.66196555  0.17539431  0.81049457
   0.58473852  0.26198501  0.91584114
   0.50111395  0.32617263  0.00254896
   0.40890158  0.42214843  0.09006846
   0.32611673  0.51037992  0.17919192
   0.24267842  0.58453608  0.25757417
   0.15518488  0.66252316  0.33644527
   0.09830989  0.75686206  0.41707022
   0.99905595  0.82230201  0.50496385
   0.90535004  0.89615965  0.59451080
   0.83088145  0.99039386  0.66988875
   0.73829396  0.06834960  0.75007572
   0.74231338  0.08559754  0.90388291
   0.67482829  0.17327043  0.99747156
   0.60142342  0.25141485  0.07383119
   0.51867710  0.33772367  0.16576345
   0.41575283  0.39887805  0.23570346
   0.33329558  0.49995474  0.32344028
   0.25449196  0.58569013  0.41535054
   0.16272108  0.65123672  0.51511483
   0.07577469  0.75046276  0.58236272
   0.00278345  0.82401967  0.66211143
   0.92619063  0.90594983  0.74513034
   0.83681225  0.99107409  0.81816985
   0.84729670  0.00790661  0.98390450
   0.75791870  0.08184015  0.06548148
   0.67699797  0.15430624  0.16120192
   0.61123328  0.25392374  0.24467164
   0.49521752  0.32206275  0.32416368
   0.40874241  0.42163329  0.41809448
   0.34038925  0.50598698  0.49295919
   0.26230138  0.57965102  0.58912028
   0.18304859  0.67142878  0.66381800
   0.08614273  0.75232500  0.75528445
   0.99812699  0.81454917  0.84678011
   0.91886815  0.91133327  0.91208674
