 500 500   0   0
  0.2029568E+02  0.2165000E-08  0.2165000E-08  0.2165000E-08  0.5000000E-15
  1.000000000000000E-004
  CAR 
 Li                                      
      3.44509580     -3.43528036  301      0.39097503      1.00000000
     -3.435  0.0000E+00  0.0000E+00
     -3.412  0.0000E+00  0.0000E+00
     -3.389  0.0000E+00  0.0000E+00
     -3.366  0.0000E+00  0.0000E+00
     -3.344  0.0000E+00  0.0000E+00
     -3.321  0.0000E+00  0.0000E+00
     -3.298  0.4841E-14  0.1110E-15
     -3.275  0.3125E-10  0.7167E-12
     -3.252  0.4767E-07  0.1094E-08
     -3.229  0.2321E-04  0.5333E-06
     -3.206  0.3638E-02  0.8397E-04
     -3.183  0.1860E+00  0.4350E-02
     -3.160  0.3152E+01  0.7665E-01
     -3.137  0.1805E+02  0.4906E+00
     -3.114  0.3550E+02  0.1305E+01
     -3.091  0.2419E+02  0.1860E+01
     -3.068  0.6362E+01  0.2006E+01
     -3.045  0.9639E+01  0.2227E+01
     -3.022  0.4671E+02  0.3298E+01
     -3.000  0.9539E+02  0.5486E+01
     -2.977  0.7965E+02  0.7312E+01
     -2.954  0.2687E+02  0.7929E+01
     -2.931  0.9443E+01  0.8145E+01
     -2.908  0.3742E+02  0.9003E+01
     -2.885  0.9013E+02  0.1107E+02
     -2.862  0.8817E+02  0.1309E+02
     -2.839  0.3470E+02  0.1389E+02
     -2.816  0.1196E+02  0.1416E+02
     -2.793  0.4110E+02  0.1511E+02
     -2.770  0.1032E+03  0.1747E+02
     -2.747  0.1193E+03  0.2021E+02
     -2.724  0.6334E+02  0.2166E+02
     -2.701  0.2137E+02  0.2215E+02
     -2.678  0.4836E+02  0.2326E+02
     -2.656  0.1310E+03  0.2627E+02
     -2.633  0.1739E+03  0.3025E+02
     -2.610  0.1177E+03  0.3295E+02
     -2.587  0.4093E+02  0.3389E+02
     -2.564  0.2118E+02  0.3438E+02
     -2.541  0.5979E+02  0.3575E+02
     -2.518  0.9725E+02  0.3798E+02
     -2.495  0.6728E+02  0.3952E+02
     -2.472  0.2199E+02  0.4003E+02
     -2.449  0.2815E+02  0.4067E+02
     -2.426  0.9379E+02  0.4282E+02
     -2.403  0.1641E+03  0.4659E+02
     -2.380  0.1512E+03  0.5005E+02
     -2.357  0.7446E+02  0.5176E+02
     -2.334  0.5005E+02  0.5291E+02
     -2.311  0.1188E+03  0.5563E+02
     -2.289  0.2042E+03  0.6032E+02
     -2.266  0.2146E+03  0.6524E+02
     -2.243  0.1419E+03  0.6849E+02
     -2.220  0.5651E+02  0.6979E+02
     -2.197  0.3196E+02  0.7052E+02
     -2.174  0.7279E+02  0.7219E+02
     -2.151  0.9810E+02  0.7444E+02
     -2.128  0.5575E+02  0.7572E+02
     -2.105  0.2416E+02  0.7627E+02
     -2.082  0.6238E+02  0.7770E+02
     -2.059  0.1480E+03  0.8110E+02
     -2.036  0.1913E+03  0.8549E+02
     -2.013  0.1385E+03  0.8866E+02
     -1.990  0.6121E+02  0.9007E+02
     -1.967  0.6891E+02  0.9165E+02
     -1.945  0.1573E+03  0.9526E+02
     -1.922  0.2194E+03  0.1003E+03
     -1.899  0.1924E+03  0.1047E+03
     -1.876  0.1085E+03  0.1072E+03
     -1.853  0.4745E+02  0.1083E+03
     -1.830  0.7567E+02  0.1100E+03
     -1.807  0.1500E+03  0.1135E+03
     -1.784  0.1630E+03  0.1172E+03
     -1.761  0.9853E+02  0.1194E+03
     -1.738  0.5954E+02  0.1208E+03
     -1.715  0.1213E+03  0.1236E+03
     -1.692  0.2105E+03  0.1284E+03
     -1.669  0.2233E+03  0.1335E+03
     -1.646  0.1429E+03  0.1368E+03
     -1.623  0.6426E+02  0.1383E+03
     -1.601  0.9324E+02  0.1404E+03
     -1.578  0.1916E+03  0.1448E+03
     -1.555  0.2289E+03  0.1501E+03
     -1.532  0.1665E+03  0.1539E+03
     -1.509  0.7906E+02  0.1557E+03
     -1.486  0.6047E+02  0.1571E+03
     -1.463  0.1194E+03  0.1598E+03
     -1.440  0.1621E+03  0.1636E+03
     -1.417  0.1295E+03  0.1665E+03
     -1.394  0.6870E+02  0.1681E+03
     -1.371  0.7230E+02  0.1698E+03
     -1.348  0.1192E+03  0.1725E+03
     -1.325  0.1362E+03  0.1756E+03
     -1.302  0.1206E+03  0.1784E+03
     -1.279  0.8191E+02  0.1803E+03
     -1.256  0.1095E+03  0.1828E+03
     -1.234  0.2178E+03  0.1878E+03
     -1.211  0.3057E+03  0.1948E+03
     -1.188  0.3093E+03  0.2019E+03
     -1.165  0.2300E+03  0.2071E+03
     -1.142  0.1346E+03  0.2102E+03
     -1.119  0.1410E+03  0.2135E+03
     -1.096  0.2127E+03  0.2183E+03
     -1.073  0.2201E+03  0.2234E+03
     -1.050  0.1460E+03  0.2267E+03
     -1.027  0.7071E+02  0.2284E+03
     -1.004  0.7135E+02  0.2300E+03
     -0.981  0.1292E+03  0.2330E+03
     -0.958  0.1807E+03  0.2371E+03
     -0.935  0.1601E+03  0.2408E+03
     -0.912  0.1410E+03  0.2440E+03
     -0.890  0.2003E+03  0.2486E+03
     -0.867  0.2500E+03  0.2543E+03
     -0.844  0.2417E+03  0.2599E+03
     -0.821  0.1742E+03  0.2639E+03
     -0.798  0.7833E+02  0.2657E+03
     -0.775  0.3561E+02  0.2665E+03
     -0.752  0.6105E+02  0.2679E+03
     -0.729  0.9043E+02  0.2700E+03
     -0.706  0.7755E+02  0.2717E+03
     -0.683  0.9049E+02  0.2738E+03
     -0.660  0.1830E+03  0.2780E+03
     -0.637  0.2665E+03  0.2841E+03
     -0.614  0.2911E+03  0.2908E+03
     -0.591  0.2807E+03  0.2972E+03
     -0.568  0.2473E+03  0.3029E+03
     -0.546  0.2073E+03  0.3077E+03
     -0.523  0.2053E+03  0.3124E+03
     -0.500  0.2567E+03  0.3183E+03
     -0.477  0.2863E+03  0.3248E+03
     -0.454  0.2406E+03  0.3304E+03
     -0.431  0.1691E+03  0.3342E+03
     -0.408  0.1251E+03  0.3371E+03
     -0.385  0.1168E+03  0.3398E+03
     -0.362  0.1297E+03  0.3428E+03
     -0.339  0.1409E+03  0.3460E+03
     -0.316  0.1761E+03  0.3500E+03
     -0.293  0.1998E+03  0.3546E+03
     -0.270  0.1940E+03  0.3591E+03
     -0.247  0.1810E+03  0.3632E+03
     -0.224  0.1617E+03  0.3669E+03
     -0.202  0.1643E+03  0.3707E+03
     -0.179  0.2135E+03  0.3756E+03
     -0.156  0.2644E+03  0.3816E+03
     -0.133  0.2747E+03  0.3879E+03
     -0.110  0.2425E+03  0.3935E+03
     -0.087  0.2059E+03  0.3982E+03
     -0.064  0.2082E+03  0.4030E+03
     -0.041  0.2217E+03  0.4081E+03
     -0.018  0.1910E+03  0.4125E+03
      0.005  0.1352E+03  0.4156E+03
      0.028  0.1217E+03  0.4184E+03
      0.051  0.1788E+03  0.4225E+03
      0.074  0.2367E+03  0.4279E+03
      0.097  0.2568E+03  0.4338E+03
      0.120  0.2504E+03  0.4395E+03
      0.143  0.2278E+03  0.4447E+03
      0.165  0.2108E+03  0.4496E+03
      0.188  0.2106E+03  0.4544E+03
      0.211  0.2094E+03  0.4592E+03
      0.234  0.2003E+03  0.4638E+03
      0.257  0.1960E+03  0.4683E+03
      0.280  0.2080E+03  0.4731E+03
      0.303  0.2339E+03  0.4784E+03
      0.326  0.2569E+03  0.4843E+03
      0.349  0.2604E+03  0.4903E+03
      0.372  0.2420E+03  0.4958E+03
      0.395  0.2164E+03  0.5008E+03
      0.418  0.2213E+03  0.5059E+03
      0.441  0.2394E+03  0.5114E+03
      0.464  0.2452E+03  0.5170E+03
      0.487  0.2476E+03  0.5227E+03
      0.509  0.2603E+03  0.5287E+03
      0.532  0.2804E+03  0.5351E+03
      0.555  0.3002E+03  0.5420E+03
      0.578  0.3164E+03  0.5492E+03
      0.601  0.3217E+03  0.5566E+03
      0.624  0.3106E+03  0.5637E+03
      0.647  0.2979E+03  0.5706E+03
      0.670  0.2852E+03  0.5771E+03
      0.693  0.2675E+03  0.5832E+03
      0.716  0.2547E+03  0.5891E+03
      0.739  0.2410E+03  0.5946E+03
      0.762  0.2276E+03  0.5998E+03
      0.785  0.2226E+03  0.6049E+03
      0.808  0.2075E+03  0.6097E+03
      0.831  0.1758E+03  0.6137E+03
      0.853  0.1478E+03  0.6171E+03
      0.876  0.1508E+03  0.6206E+03
      0.899  0.1686E+03  0.6244E+03
      0.922  0.1816E+03  0.6286E+03
      0.945  0.1781E+03  0.6327E+03
      0.968  0.1724E+03  0.6366E+03
      0.991  0.1886E+03  0.6410E+03
      1.014  0.2228E+03  0.6461E+03
      1.037  0.2515E+03  0.6518E+03
      1.060  0.2496E+03  0.6576E+03
      1.083  0.2403E+03  0.6631E+03
      1.106  0.2415E+03  0.6686E+03
      1.129  0.2477E+03  0.6743E+03
      1.152  0.2550E+03  0.6801E+03
      1.175  0.2629E+03  0.6862E+03
      1.198  0.2642E+03  0.6922E+03
      1.220  0.2542E+03  0.6981E+03
      1.243  0.2360E+03  0.7035E+03
      1.266  0.2146E+03  0.7084E+03
      1.289  0.2031E+03  0.7131E+03
      1.312  0.1994E+03  0.7176E+03
      1.335  0.1952E+03  0.7221E+03
      1.358  0.1960E+03  0.7266E+03
      1.381  0.2080E+03  0.7314E+03
      1.404  0.2159E+03  0.7363E+03
      1.427  0.2029E+03  0.7410E+03
      1.450  0.1979E+03  0.7455E+03
      1.473  0.2044E+03  0.7502E+03
      1.496  0.1973E+03  0.7547E+03
      1.519  0.1878E+03  0.7590E+03
      1.542  0.1811E+03  0.7632E+03
      1.564  0.1768E+03  0.7672E+03
      1.587  0.1654E+03  0.7710E+03
      1.610  0.1526E+03  0.7745E+03
      1.633  0.1549E+03  0.7781E+03
      1.656  0.1604E+03  0.7818E+03
      1.679  0.1519E+03  0.7853E+03
      1.702  0.1392E+03  0.7884E+03
      1.725  0.1406E+03  0.7917E+03
      1.748  0.1547E+03  0.7952E+03
      1.771  0.1683E+03  0.7991E+03
      1.794  0.1815E+03  0.8032E+03
      1.817  0.1947E+03  0.8077E+03
      1.840  0.2075E+03  0.8125E+03
      1.863  0.2221E+03  0.8176E+03
      1.886  0.2293E+03  0.8228E+03
      1.908  0.2334E+03  0.8282E+03
      1.931  0.2247E+03  0.8333E+03
      1.954  0.2061E+03  0.8381E+03
      1.977  0.1952E+03  0.8425E+03
      2.000  0.1963E+03  0.8470E+03
      2.023  0.1942E+03  0.8515E+03
      2.046  0.1947E+03  0.8560E+03
      2.069  0.1873E+03  0.8602E+03
      2.092  0.1640E+03  0.8640E+03
      2.115  0.1425E+03  0.8673E+03
      2.138  0.1452E+03  0.8706E+03
      2.161  0.1531E+03  0.8741E+03
      2.184  0.1541E+03  0.8777E+03
      2.207  0.1499E+03  0.8811E+03
      2.230  0.1425E+03  0.8844E+03
      2.252  0.1482E+03  0.8878E+03
      2.275  0.1632E+03  0.8915E+03
      2.298  0.1694E+03  0.8954E+03
      2.321  0.1671E+03  0.8992E+03
      2.344  0.1537E+03  0.9027E+03
      2.367  0.1317E+03  0.9058E+03
      2.390  0.1244E+03  0.9086E+03
      2.413  0.1358E+03  0.9117E+03
      2.436  0.1549E+03  0.9153E+03
      2.459  0.1584E+03  0.9189E+03
      2.482  0.1503E+03  0.9224E+03
      2.505  0.1495E+03  0.9258E+03
      2.528  0.1603E+03  0.9295E+03
      2.551  0.1616E+03  0.9332E+03
      2.574  0.1545E+03  0.9367E+03
      2.597  0.1445E+03  0.9400E+03
      2.619  0.1255E+03  0.9429E+03
      2.642  0.9963E+02  0.9452E+03
      2.665  0.9233E+02  0.9473E+03
      2.688  0.1097E+03  0.9498E+03
      2.711  0.1281E+03  0.9528E+03
      2.734  0.1448E+03  0.9561E+03
      2.757  0.1575E+03  0.9597E+03
      2.780  0.1653E+03  0.9635E+03
      2.803  0.1679E+03  0.9673E+03
      2.826  0.1662E+03  0.9712E+03
      2.849  0.1670E+03  0.9750E+03
      2.872  0.1648E+03  0.9788E+03
      2.895  0.1378E+03  0.9819E+03
      2.918  0.1089E+03  0.9844E+03
      2.941  0.8995E+02  0.9865E+03
      2.963  0.5635E+02  0.9878E+03
      2.986  0.3774E+02  0.9886E+03
      3.009  0.5490E+02  0.9899E+03
      3.032  0.7395E+02  0.9916E+03
      3.055  0.8513E+02  0.9935E+03
      3.078  0.9991E+02  0.9958E+03
      3.101  0.1112E+03  0.9984E+03
      3.124  0.9525E+02  0.1001E+04
      3.147  0.4832E+02  0.1002E+04
      3.170  0.1232E+02  0.1002E+04
      3.193  0.1407E+01  0.1002E+04
      3.216  0.6475E-01  0.1002E+04
      3.239  0.1099E-02  0.1002E+04
      3.262  0.6478E-05  0.1002E+04
      3.285  0.1274E-07  0.1002E+04
      3.307  0.8150E-11  0.1002E+04
      3.330  0.0000E+00  0.1002E+04
      3.353  0.0000E+00  0.1002E+04
      3.376  0.0000E+00  0.1002E+04
      3.399  0.0000E+00  0.1002E+04
      3.422  0.0000E+00  0.1002E+04
      3.445  0.0000E+00  0.1002E+04
