 running on   64 total cores
 distrk:  each k-point on   32 cores,    2 groups
 distr:  one band on   32 cores,    1 groups
 vasp.6.2.1 16May21 (build Nov 23 2021 15:40:41) complex                        
  
 POSCAR found type information on POSCAR Li
 POSCAR found :  1 types and     500 ions
 scaLAPACK will be used
 -----------------------------------------------------------------------------
|                                                                             |
|           W    W    AA    RRRRR   N    N  II  N    N   GGGG   !!!           |
|           W    W   A  A   R    R  NN   N  II  NN   N  G    G  !!!           |
|           W    W  A    A  R    R  N N  N  II  N N  N  G       !!!           |
|           W WW W  AAAAAA  RRRRR   N  N N  II  N  N N  G  GGG   !            |
|           WW  WW  A    A  R   R   N   NN  II  N   NN  G    G                |
|           W    W  A    A  R    R  N    N  II  N    N   GGGG   !!!           |
|                                                                             |
|     For optimal performance we recommend to set                             |
|       NCORE = 2 up to number-of-cores-per-socket                            |
|     NCORE specifies how many cores store one orbital (NPAR=cpu/NCORE).      |
|     This setting can greatly improve the performance of VASP for DFT.       |
|     The default, NCORE=1 might be grossly inefficient on modern             |
|     multi-core architectures or massively parallel machines. Do your        |
|     own testing! More info at https://www.vasp.at/wiki/index.php/NCORE      |
|     Unfortunately you need to use the default for GW and RPA                |
|     calculations (for HF NCORE is supported but not extensively tested      |
|     yet).                                                                   |
|                                                                             |
 -----------------------------------------------------------------------------

 -----------------------------------------------------------------------------
|                                                                             |
|               ----> ADVICE to this user running VASP <----                  |
|                                                                             |
|     You have a (more or less) 'large supercell' and for larger cells it     |
|     might be more efficient to use real-space projection operators.         |
|     Therefore, try LREAL= Auto in the INCAR file.                           |
|     Mind: If you want to do very accurate calculations, keep the            |
|     reciprocal projection scheme (i.e. LREAL=.FALSE.).                      |
|                                                                             |
 -----------------------------------------------------------------------------

 LDA part: xc-table for Pade appr. of Perdew
 POSCAR found type information on POSCAR Li
 POSCAR found :  1 types and     500 ions
 POSCAR, INCAR and KPOINTS ok, starting setup
 FFT: planning ...
 WAVECAR not read
 entering main loop
       N       E                     dE             d eps       ncg     rms          rms(c)
DAV:   1    -0.280879415752E+03   -0.28088E+03   -0.12133E+05  4008   0.656E+02
DAV:   2    -0.878831116074E+03   -0.59795E+03   -0.54737E+03  4604   0.673E+01
DAV:   3    -0.921753016786E+03   -0.42922E+02   -0.39145E+02  5192   0.142E+01
DAV:   4    -0.923219106010E+03   -0.14661E+01   -0.14435E+01  4680   0.287E+00
DAV:   5    -0.923253618883E+03   -0.34513E-01   -0.34454E-01  4840   0.463E-01    0.962E+00
DAV:   6    -0.915898225722E+03    0.73554E+01   -0.12038E+01  4560   0.426E+00    0.659E+00
DAV:   7    -0.913543248753E+03    0.23550E+01   -0.82239E+00  4760   0.397E+00    0.539E+00
DAV:   8    -0.909936459267E+03    0.36068E+01   -0.50729E+00  4608   0.264E+00    0.271E+00
DAV:   9    -0.909317746909E+03    0.61871E+00   -0.28215E+00  4560   0.137E+00    0.133E+00
DAV:  10    -0.909413878635E+03   -0.96132E-01   -0.70577E-01  4664   0.800E-01    0.121E+00
DAV:  11    -0.909265110320E+03    0.14877E+00   -0.29449E-01  4560   0.575E-01    0.649E-01
DAV:  12    -0.909244892221E+03    0.20218E-01   -0.68059E-02  4344   0.224E-01    0.301E-01
DAV:  13    -0.909248830169E+03   -0.39379E-02   -0.18941E-02  4808   0.154E-01    0.246E-01
DAV:  14    -0.909243429401E+03    0.54008E-02   -0.10108E-02  4696   0.122E-01    0.132E-01
DAV:  15    -0.909241984433E+03    0.14450E-02   -0.29097E-03  4576   0.602E-02    0.622E-02
DAV:  16    -0.909242009109E+03   -0.24675E-04   -0.11877E-03  4560   0.331E-02    0.417E-02
DAV:  17    -0.909241825604E+03    0.18350E-03   -0.43336E-04  4616   0.226E-02    0.219E-02
DAV:  18    -0.909241783513E+03    0.42091E-04   -0.97326E-05  4400   0.958E-03    0.109E-02
DAV:  19    -0.909241776143E+03    0.73702E-05   -0.30018E-05  3688   0.620E-03
   1 F= -.90924178E+03 E0= -.90919404E+03  d E =-.954787E-01
