Li                                      
           1
    21.650000    0.000000    0.000000
     0.000000   21.650000    0.000000
    -0.000000   -0.000000   21.650000
   Li
   500
Direct configuration=     1
   0.00459890  0.98745786  0.99929377
   0.98421277  0.08386459  0.09525970
   0.99410362  0.17233277  0.20994756
   0.99894168  0.28224624  0.29998417
   0.01458967  0.37531353  0.41667141
   0.98851958  0.50735708  0.48255737
   0.99944803  0.60256353  0.58387592
   0.98886089  0.70216794  0.69109614
   0.99551599  0.79319753  0.78833827
   0.00639304  0.88859806  0.89096880
   0.10721265  0.99121560  0.10283288
   0.10100662  0.08018428  0.20437100
   0.09674620  0.17509259  0.30109262
   0.09109488  0.27972135  0.43390473
   0.12613204  0.39696372  0.49773434
   0.10238085  0.48874602  0.59961617
   0.11657240  0.60218682  0.68299299
   0.08983276  0.69247088  0.79039185
   0.10210216  0.77333448  0.91091550
   0.09827981  0.89243725  0.00306495
   0.20296798  0.99347242  0.18656152
   0.22066082  0.09039794  0.29934893
   0.20956343  0.18987652  0.40074100
   0.20699199  0.28673279  0.49533862
   0.19475220  0.40947648  0.61351969
   0.21069960  0.50369027  0.69922670
   0.18008160  0.60055985  0.81855120
   0.21194761  0.69060079  0.87821629
   0.20987363  0.78799548  0.00016929
   0.21537150  0.90458201  0.07917845
   0.30899001  0.00273878  0.26894104
   0.33701723  0.10827764  0.39119018
   0.32913749  0.21082952  0.51140158
   0.29792269  0.31315580  0.61178869
   0.32172805  0.40825023  0.71630089
   0.28954108  0.48512896  0.80778405
   0.30197167  0.59027474  0.89514210
   0.29690886  0.67766393  0.00429055
   0.30464485  0.80259730  0.07990149
   0.31359152  0.89086077  0.19291988
   0.38653602  0.00265276  0.38955573
   0.41609013  0.10845187  0.51427265
   0.38851673  0.20570463  0.62938656
   0.40119716  0.30198355  0.71737864
   0.41694654  0.41534617  0.79253158
   0.40225885  0.49024042  0.89936394
   0.37891832  0.58674608  0.00166518
   0.38091491  0.68466739  0.08639640
   0.40680227  0.81299694  0.18781194
   0.39451518  0.89939169  0.28094855
   0.49501302  0.00078751  0.50283085
   0.49641308  0.09771837  0.60452048
   0.50482651  0.20786594  0.68423670
   0.50462024  0.30511789  0.81359073
   0.50195213  0.40156276  0.90274898
   0.50590265  0.50608944  0.01719363
   0.50147164  0.60544405  0.09257182
   0.47716305  0.71343530  0.21013384
   0.50774401  0.79689467  0.29957330
   0.50400626  0.88960994  0.39745673
   0.59727716  0.99360340  0.59952362
   0.61089469  0.09683383  0.70184940
   0.59632292  0.18941589  0.79879315
   0.60457519  0.28792081  0.90218994
   0.58708619  0.40328675  0.99502861
   0.60490932  0.48115800  0.08974286
   0.58317046  0.60336034  0.18593830
   0.60341636  0.70909150  0.29065411
   0.60867369  0.81481598  0.40579419
   0.58796911  0.90506369  0.51500558
   0.68525901  0.99898149  0.71259383
   0.71767770  0.10691663  0.79464468
   0.69263063  0.18845130  0.90621951
   0.70011355  0.31217481  0.02885173
   0.70121369  0.40765928  0.10698769
   0.68889045  0.49921533  0.19362551
   0.68433453  0.61494111  0.30682708
   0.68104205  0.72078076  0.39414718
   0.69169270  0.81023038  0.50938350
   0.69409220  0.89135527  0.60883773
   0.79522517  0.00123192  0.81190598
   0.80340995  0.11826953  0.90696291
   0.80354625  0.19356196  0.00645023
   0.79354933  0.29511168  0.12055815
   0.80421316  0.40158921  0.19927161
   0.77954488  0.50205759  0.28694552
   0.80658502  0.60471879  0.38919437
   0.77517237  0.68791759  0.49949828
   0.78862398  0.79404964  0.59475572
   0.80249535  0.90290840  0.70592910
   0.92119641  0.99985448  0.89933627
   0.92218034  0.10156179  0.97906022
   0.89812625  0.18509170  0.09861377
   0.93294501  0.30830435  0.19738709
   0.90660574  0.41189283  0.30678181
   0.88889116  0.49714841  0.39380442
   0.89123366  0.60447497  0.48801190
   0.89339696  0.70064614  0.60545495
   0.91906863  0.80583218  0.69825596
   0.87828346  0.90256002  0.79789984
   0.09526496  0.10174735  0.98101795
   0.09735225  0.16409283  0.09144009
   0.07650447  0.26697239  0.18895133
   0.10202869  0.38276182  0.31000155
   0.12178717  0.50460860  0.40185159
   0.09691274  0.60482999  0.49693229
   0.10314294  0.70497944  0.59463549
   0.10283805  0.78230066  0.71083217
   0.12309290  0.88872511  0.80148259
   0.11120156  0.99375808  0.89141633
   0.21788643  0.09352793  0.08471689
   0.20540149  0.20091741  0.20087197
   0.19005193  0.28462255  0.30358152
   0.19464807  0.37594315  0.40421830
   0.20315995  0.51624855  0.49676640
   0.19872074  0.59900407  0.58765204
   0.21898820  0.69117053  0.68119817
   0.20972141  0.80329825  0.79247155
   0.19915143  0.86809344  0.91303713
   0.18514943  0.99544903  0.99002626
   0.30779024  0.09289488  0.16551790
   0.30191484  0.19843733  0.27393567
   0.29285334  0.30885233  0.39131280
   0.28389041  0.42449574  0.51149318
   0.30547181  0.50633188  0.60656245
   0.27167192  0.59477118  0.68936109
   0.31357160  0.68752147  0.80618750
   0.29450460  0.77869498  0.89420925
   0.29946681  0.89439445  0.98247006
   0.29592277  0.99931490  0.07789368
   0.39098860  0.09557248  0.27363180
   0.40762459  0.20861390  0.39323294
   0.37549807  0.30290065  0.51414739
   0.39421133  0.40766384  0.60907799
   0.38781858  0.51040245  0.71836728
   0.39727441  0.57200261  0.80357810
   0.39475622  0.68059516  0.88552470
   0.40719789  0.78588750  0.98538984
   0.40464686  0.89273340  0.07838513
   0.40252605  0.00505164  0.18707169
   0.49507958  0.08579906  0.40857574
   0.49725370  0.20802796  0.51970621
   0.49436586  0.31305147  0.62239285
   0.49564400  0.40750432  0.72162356
   0.51884266  0.49250368  0.80029332
   0.49347608  0.59526374  0.89509317
   0.50982027  0.66539923  0.99612102
   0.50601957  0.77490924  0.09775910
   0.49899009  0.90261734  0.18502059
   0.49336415  0.97974284  0.30531382
   0.59640493  0.08673719  0.48841476
   0.59776135  0.18482921  0.60256609
   0.59543918  0.29623857  0.69989422
   0.60635833  0.40999537  0.79491071
   0.60079945  0.51045942  0.93175195
   0.61241487  0.60295435  0.02618271
   0.60297920  0.69304545  0.12943159
   0.58899354  0.79734505  0.20051858
   0.60664699  0.90148079  0.29581943
   0.60499756  0.97926634  0.40089401
   0.69807674  0.08167620  0.58304815
   0.70672925  0.19952783  0.69352551
   0.71627731  0.30154782  0.79547504
   0.71606123  0.40467174  0.91024332
   0.69862680  0.50016353  0.00763991
   0.70723748  0.59789657  0.10938523
   0.69337961  0.69171835  0.19431251
   0.70475787  0.80305636  0.30674300
   0.69993183  0.90258081  0.42292976
   0.71595984  0.99934099  0.49947052
   0.77877599  0.08699600  0.69901764
   0.80272124  0.22305653  0.80330694
   0.80371261  0.29891914  0.91570201
   0.80231593  0.40484232  0.99809254
   0.79129332  0.50443528  0.10507157
   0.78869578  0.60752718  0.22255679
   0.80160630  0.71490163  0.31743157
   0.78730810  0.81781006  0.43383789
   0.82205178  0.88986537  0.50399781
   0.80559298  0.98434896  0.61144241
   0.89403744  0.10718553  0.79436013
   0.91832490  0.21451270  0.89852148
   0.88236617  0.29770292  0.02374173
   0.88338119  0.39198217  0.09171026
   0.91497729  0.49847674  0.20725420
   0.90442948  0.60800942  0.29542658
   0.91633730  0.71655353  0.41163575
   0.92061316  0.80567547  0.50760369
   0.91387208  0.88029980  0.61026374
   0.91103475  0.99536465  0.69530888
   0.99045786  0.10064814  0.88975935
   0.98387469  0.20053443  0.00261079
   0.00882168  0.28450911  0.08673824
   0.00511298  0.40505309  0.20623923
   0.00756756  0.51308822  0.31604703
   0.99609131  0.61012397  0.39697640
   0.00003789  0.71975164  0.49732220
   0.02306994  0.78633119  0.60820161
   0.00738952  0.89671848  0.70827210
   0.00176284  0.01556299  0.81144570
   0.20275979  0.22207874  0.99382407
   0.18462923  0.30298943  0.09995916
   0.18767339  0.36702398  0.19781726
   0.19979454  0.50084507  0.29086761
   0.21888076  0.60145268  0.39359649
   0.21111533  0.69189708  0.48921696
   0.20418508  0.77944762  0.58329562
   0.21582145  0.89460184  0.69030355
   0.19666052  0.99998669  0.81758101
   0.20009196  0.12503384  0.89930017
   0.30055483  0.20014218  0.10023381
   0.27481342  0.30071582  0.19453302
   0.30849330  0.39941234  0.30639675
   0.30454799  0.49918715  0.38805150
   0.30474956  0.56632392  0.49174895
   0.32787509  0.68787126  0.57018054
   0.33015931  0.80186034  0.71126783
   0.29660708  0.90492953  0.81390556
   0.27802247  0.00163862  0.89956658
   0.27991632  0.10580853  0.99004313
   0.40137248  0.22004370  0.16914934
   0.38771016  0.31634098  0.28055413
   0.42239481  0.39108858  0.40544401
   0.41278421  0.49695394  0.50402697
   0.39670858  0.58908042  0.60389742
   0.40205344  0.67788326  0.70225558
   0.40254296  0.79772447  0.81007317
   0.39499651  0.90706169  0.88521035
   0.40615419  0.98981933  0.97009993
   0.41343841  0.09810771  0.07271969
   0.48917861  0.19985973  0.28130726
   0.48715995  0.29845679  0.39862540
   0.50298299  0.39242487  0.51334457
   0.49061503  0.50616024  0.62261490
   0.49012425  0.60451327  0.68652215
   0.50028530  0.68690406  0.80430488
   0.50632660  0.80435402  0.89003808
   0.50888620  0.89805314  0.00140883
   0.49424836  0.98929576  0.09164584
   0.50263455  0.11040929  0.18760897
   0.58402961  0.20215232  0.42820889
   0.59857124  0.30920699  0.50982862
   0.60860094  0.39665175  0.59537946
   0.60626651  0.50091417  0.68527183
   0.58970163  0.58863649  0.81004138
   0.59236516  0.66557130  0.89290226
   0.61868505  0.79223777  0.00876039
   0.60777500  0.91498448  0.09257846
   0.58850204  0.99262158  0.19547110
   0.57993365  0.09725052  0.30488936
   0.69118213  0.17566136  0.49595308
   0.69827453  0.29102980  0.59363578
   0.70223795  0.40227981  0.68358356
   0.70316174  0.50345694  0.80831242
   0.70651761  0.60785023  0.90763698
   0.69880023  0.70604104  0.01451815
   0.69720611  0.80173287  0.11515740
   0.68878956  0.90358502  0.21080439
   0.68095121  0.02327906  0.31330936
   0.70832091  0.09863723  0.41718052
   0.78517135  0.18467890  0.59927297
   0.79768563  0.31103702  0.69627799
   0.79974596  0.39038480  0.80155808
   0.80485720  0.49987177  0.90008193
   0.81889996  0.60551999  0.01313494
   0.79161395  0.70675149  0.10790565
   0.78598135  0.80896125  0.19773418
   0.78585715  0.90018735  0.30261771
   0.80858323  0.00450279  0.39839234
   0.80824632  0.08547327  0.50084344
   0.88200089  0.19943042  0.69078031
   0.90754816  0.31458665  0.80126816
   0.88502980  0.39208164  0.91462033
   0.90855454  0.51214309  0.01412472
   0.90101875  0.58512997  0.11612822
   0.89848866  0.70274452  0.20185112
   0.88200618  0.80204545  0.30967912
   0.91365363  0.90887235  0.40307680
   0.91078161  0.99484914  0.50989613
   0.88544950  0.09417596  0.62136195
   0.99848631  0.18269667  0.76230261
   0.98856222  0.31305328  0.89717776
   0.99199658  0.40959941  0.00037438
   0.00416974  0.50870518  0.12236979
   0.00066405  0.61275545  0.22117306
   0.99901014  0.71090888  0.29862353
   0.02388246  0.81795131  0.38692686
   0.02115619  0.88228708  0.51391442
   0.01871408  0.97567041  0.60037759
   0.99435410  0.06718221  0.67120023
   0.06505704  0.21486950  0.87944416
   0.08664069  0.29154106  0.98550726
   0.08541587  0.37973828  0.09836751
   0.11159298  0.50173772  0.20870687
   0.09825446  0.60835702  0.29884304
   0.10452914  0.69996576  0.40105119
   0.10598812  0.80027199  0.50461784
   0.13142854  0.88074299  0.58657474
   0.11481718  0.99559739  0.71185989
   0.08758905  0.09889622  0.79687192
   0.29100912  0.31844814  0.99659562
   0.27358393  0.40637237  0.10889224
   0.27335185  0.48999071  0.20065389
   0.30957054  0.58978535  0.29162097
   0.28934319  0.70352830  0.41872190
   0.30378840  0.82834372  0.50322690
   0.31358095  0.91659958  0.59751684
   0.29234275  0.02472849  0.71670960
   0.28264931  0.10542788  0.79539238
   0.29872952  0.21228970  0.87558782
   0.38767880  0.31326692  0.07976946
   0.39143065  0.39718628  0.18204502
   0.40114788  0.49653462  0.29347598
   0.41294449  0.59826990  0.38832007
   0.38946624  0.70277091  0.50257725
   0.40572631  0.80382561  0.57695106
   0.38955604  0.93107654  0.70006632
   0.37965186  0.00193614  0.79478572
   0.38087821  0.10166994  0.89236964
   0.39508546  0.20446256  0.01066130
   0.49399337  0.31036400  0.21112678
   0.50211394  0.40798140  0.29864148
   0.50029582  0.48950139  0.39303205
   0.49958452  0.59939511  0.51569036
   0.49322953  0.70590947  0.60674090
   0.49829103  0.80223530  0.70449271
   0.50147959  0.91289254  0.79468347
   0.51509673  0.00125896  0.89230827
   0.50843403  0.10646221  0.98295290
   0.50405226  0.20775361  0.09910392
   0.59326047  0.28324539  0.32421605
   0.60167188  0.40643987  0.42401464
   0.60142880  0.50629031  0.50496093
   0.59491310  0.61553452  0.60510790
   0.58370581  0.71883834  0.70613394
   0.59784294  0.80140867  0.79889838
   0.61495866  0.89594926  0.91052200
   0.61032699  0.01654413  0.00340283
   0.60930946  0.10481506  0.11515984
   0.60086677  0.22348987  0.20837375
   0.69770881  0.29671859  0.40158173
   0.70886833  0.39922808  0.50471797
   0.70840684  0.53088532  0.58698843
   0.68548446  0.59600327  0.69838535
   0.70518251  0.69342167  0.78793219
   0.71206391  0.76979957  0.87965367
   0.70613957  0.88633528  0.99111521
   0.71848879  0.01328228  0.08750854
   0.70300800  0.11318734  0.21348189
   0.70590897  0.20775704  0.31907381
   0.79131749  0.28975102  0.49980608
   0.80142651  0.41645564  0.59870479
   0.78028687  0.52358103  0.70467947
   0.80040953  0.61693716  0.82441019
   0.79712696  0.71485126  0.92252490
   0.78506140  0.80082251  0.02576497
   0.79791514  0.90170397  0.09779504
   0.77993725  0.00348394  0.20713138
   0.80199585  0.10628397  0.30670934
   0.80231273  0.19922969  0.40917324
   0.87990631  0.31907570  0.61451326
   0.89739931  0.41906531  0.69940667
   0.90229320  0.52091897  0.80649623
   0.92196751  0.60647459  0.90333429
   0.88944337  0.70124104  0.02539065
   0.89868080  0.82166833  0.10082490
   0.89379897  0.90294181  0.21230166
   0.90347975  0.01263063  0.27279971
   0.91665107  0.10538227  0.40902338
   0.89687837  0.21009677  0.51711453
   0.98768587  0.30600048  0.67739159
   0.98998977  0.39267059  0.81799551
   0.00234716  0.50057036  0.88838571
   0.99664435  0.58910852  0.00377699
   0.98905769  0.70575524  0.10296868
   0.00163586  0.80961015  0.21195344
   0.02019732  0.88487915  0.30527812
   0.99005207  0.01402617  0.39534443
   0.98163806  0.10196633  0.53120280
   0.97957416  0.18168975  0.62111857
   0.06380200  0.31338496  0.78524013
   0.08260511  0.40530678  0.89530113
   0.10697673  0.48764265  0.99054146
   0.10022982  0.61025981  0.10177099
   0.11345713  0.71710769  0.20761680
   0.13113935  0.81847665  0.28403243
   0.12756324  0.91843097  0.39740804
   0.08549288  0.99716555  0.49585818
   0.09408730  0.08384313  0.59609565
   0.09417578  0.19126635  0.68977744
   0.20644703  0.29806243  0.89722669
   0.18582805  0.39780364  0.98500981
   0.18498854  0.48902293  0.11700882
   0.20040644  0.61387258  0.23104584
   0.20720741  0.72064349  0.30324969
   0.21596318  0.81124356  0.38437231
   0.21180814  0.90906377  0.48998153
   0.20706789  0.01804501  0.58758762
   0.18915042  0.10244922  0.70384754
   0.18317849  0.22196249  0.79302023
   0.38981560  0.42140664  0.00442453
   0.40286329  0.48818871  0.09933693
   0.40280119  0.58691048  0.19077606
   0.39895587  0.68809949  0.30345659
   0.39637939  0.79136002  0.40373150
   0.40392479  0.90813735  0.50325165
   0.39424053  0.02735311  0.60802939
   0.37378119  0.09844394  0.70794893
   0.40959826  0.20160136  0.78466812
   0.39614854  0.30603514  0.89568515
   0.49932736  0.38263072  0.07858990
   0.52871435  0.48331967  0.17125362
   0.50690103  0.58275305  0.30494396
   0.50023930  0.70191717  0.39833880
   0.51665121  0.80267711  0.50493472
   0.49323768  0.89978994  0.61632907
   0.50906509  0.00564753  0.69352803
   0.50443419  0.10170890  0.80996825
   0.48816156  0.20372647  0.91604854
   0.48568242  0.29521798  0.98351195
   0.59148895  0.37880260  0.19975206
   0.61717296  0.49700311  0.28361192
   0.58299031  0.60124517  0.39621717
   0.59023131  0.73029958  0.50092123
   0.59286334  0.79739620  0.61773714
   0.60422752  0.89452938  0.70343749
   0.61543919  0.00478250  0.79198919
   0.59908636  0.11156853  0.90401035
   0.60526413  0.21539624  0.00495139
   0.58444180  0.30730431  0.10015062
   0.69376620  0.39578646  0.30258637
   0.69859436  0.49912206  0.38442949
   0.69800078  0.60755498  0.48210276
   0.68477189  0.72388625  0.60710857
   0.69555412  0.80955912  0.71861260
   0.69943696  0.89178853  0.81088221
   0.70711129  0.00579397  0.89594409
   0.70356871  0.10092173  0.01502610
   0.70091872  0.19620807  0.10558814
   0.68026899  0.30200788  0.20680639
   0.79618668  0.39191333  0.39646114
   0.80157010  0.51110229  0.49448601
   0.80296815  0.61998622  0.60464127
   0.81296667  0.70184732  0.70100705
   0.81309849  0.77383073  0.80442425
   0.79901465  0.88408999  0.90117699
   0.81075429  0.00009485  0.98932888
   0.82301307  0.09304681  0.09074473
   0.82966069  0.19978418  0.20457416
   0.81387036  0.30387614  0.28813775
   0.87278128  0.39880035  0.47872233
   0.87826554  0.49092176  0.57699908
   0.90688227  0.60853663  0.68920293
   0.89990565  0.69921434  0.78697135
   0.90060071  0.79191854  0.91867768
   0.91361373  0.90437187  0.98979898
   0.90965127  0.98905944  0.09915151
   0.90108679  0.09294587  0.20619900
   0.91623104  0.18868001  0.31338215
   0.88874828  0.28447003  0.39279839
   0.99667656  0.40236919  0.58500761
   0.99249272  0.52125074  0.69652377
   0.01822015  0.61623214  0.79202764
   0.99936029  0.68945625  0.91446320
   0.00317939  0.79147137  0.99566705
   0.99918362  0.89034507  0.11083721
   0.99451963  0.00581053  0.21265059
   0.99172463  0.11293277  0.29907576
   0.99383251  0.18910061  0.39298029
   0.99646391  0.29031957  0.51649693
   0.07925719  0.39367650  0.67617716
   0.09869846  0.51309432  0.78811304
   0.09534319  0.59870199  0.90431523
   0.10380860  0.67312113  0.01051495
   0.09566379  0.78826604  0.09638112
   0.11187781  0.88861409  0.19417608
   0.11844558  0.01833292  0.29720716
   0.09676810  0.09049435  0.41950116
   0.09098537  0.20152704  0.50969733
   0.06553245  0.28532176  0.58636420
   0.19268144  0.40909520  0.81780987
   0.18305972  0.48155995  0.88980736
   0.22888375  0.60090670  0.97772682
   0.21658556  0.69431958  0.09206349
   0.20098788  0.80169008  0.17374842
   0.20678806  0.89523736  0.29031178
   0.22687750  0.01408865  0.37717905
   0.20221028  0.11659420  0.48861687
   0.21376311  0.21933146  0.60468412
   0.18069714  0.33548553  0.69135566
   0.31406130  0.40111744  0.90172239
   0.28335721  0.48233798  0.98553364
   0.28317661  0.57020014  0.11820059
   0.31217624  0.70036557  0.19731374
   0.30640076  0.79760762  0.30180363
   0.30962924  0.90668279  0.37689760
   0.30080418  0.01070385  0.49477056
   0.28774990  0.11775236  0.61764716
   0.28622345  0.22263300  0.71192539
   0.30405973  0.33291130  0.79937630
