 432 432   0   0
  0.2035379E+02  0.2064000E-08  0.2064000E-08  0.2064000E-08  0.5000000E-15
  1.000000000000000E-004
  CAR 
 Li                                      
      3.68166563     -3.45371571  301      0.40639877      1.00000000
     -3.454  0.0000E+00  0.0000E+00
     -3.430  0.0000E+00  0.0000E+00
     -3.406  0.0000E+00  0.0000E+00
     -3.382  0.0000E+00  0.0000E+00
     -3.359  0.0000E+00  0.0000E+00
     -3.335  0.0000E+00  0.0000E+00
     -3.311  0.0000E+00  0.0000E+00
     -3.287  0.4159E-11  0.9892E-13
     -3.263  0.1092E-07  0.2597E-09
     -3.240  0.8374E-05  0.1994E-06
     -3.216  0.1896E-02  0.4530E-04
     -3.192  0.1285E+00  0.3102E-02
     -3.168  0.2658E+01  0.6633E-01
     -3.145  0.1717E+02  0.4746E+00
     -3.121  0.3535E+02  0.1315E+01
     -3.097  0.2346E+02  0.1873E+01
     -3.073  0.5086E+01  0.1994E+01
     -3.049  0.2976E+01  0.2065E+01
     -3.026  0.2383E+02  0.2632E+01
     -3.002  0.7820E+02  0.4492E+01
     -2.978  0.9622E+02  0.6780E+01
     -2.954  0.4382E+02  0.7823E+01
     -2.930  0.7517E+01  0.8001E+01
     -2.907  0.7909E+01  0.8189E+01
     -2.883  0.4472E+02  0.9253E+01
     -2.859  0.9676E+02  0.1155E+02
     -2.835  0.7764E+02  0.1340E+02
     -2.812  0.2285E+02  0.1394E+02
     -2.788  0.5012E+01  0.1406E+02
     -2.764  0.2638E+02  0.1469E+02
     -2.740  0.9499E+02  0.1695E+02
     -2.716  0.1305E+03  0.2005E+02
     -2.693  0.6799E+02  0.2167E+02
     -2.669  0.1378E+02  0.2200E+02
     -2.645  0.1455E+02  0.2235E+02
     -2.621  0.7990E+02  0.2425E+02
     -2.597  0.1786E+03  0.2849E+02
     -2.574  0.1616E+03  0.3234E+02
     -2.550  0.6036E+02  0.3377E+02
     -2.526  0.9900E+01  0.3401E+02
     -2.502  0.1359E+02  0.3433E+02
     -2.479  0.6447E+02  0.3587E+02
     -2.455  0.1053E+03  0.3837E+02
     -2.431  0.5750E+02  0.3974E+02
     -2.407  0.1116E+02  0.4000E+02
     -2.383  0.1322E+02  0.4032E+02
     -2.360  0.7310E+02  0.4206E+02
     -2.336  0.1677E+03  0.4604E+02
     -2.312  0.1664E+03  0.5000E+02
     -2.288  0.7147E+02  0.5170E+02
     -2.264  0.1785E+02  0.5213E+02
     -2.241  0.5107E+02  0.5334E+02
     -2.217  0.1704E+03  0.5739E+02
     -2.193  0.2584E+03  0.6354E+02
     -2.169  0.1924E+03  0.6812E+02
     -2.146  0.6832E+02  0.6974E+02
     -2.122  0.1369E+02  0.7007E+02
     -2.098  0.2673E+02  0.7070E+02
     -2.074  0.7868E+02  0.7257E+02
     -2.050  0.9328E+02  0.7479E+02
     -2.027  0.4313E+02  0.7582E+02
     -2.003  0.1109E+02  0.7608E+02
     -1.979  0.3738E+02  0.7697E+02
     -1.955  0.1372E+03  0.8023E+02
     -1.932  0.2120E+03  0.8528E+02
     -1.908  0.1471E+03  0.8878E+02
     -1.884  0.4608E+02  0.8987E+02
     -1.860  0.1690E+02  0.9027E+02
     -1.836  0.7807E+02  0.9213E+02
     -1.813  0.2139E+03  0.9722E+02
     -1.789  0.2607E+03  0.1034E+03
     -1.765  0.1498E+03  0.1070E+03
     -1.741  0.3930E+02  0.1079E+03
     -1.717  0.1555E+02  0.1083E+03
     -1.694  0.7302E+02  0.1100E+03
     -1.670  0.1735E+03  0.1142E+03
     -1.646  0.1672E+03  0.1181E+03
     -1.622  0.6810E+02  0.1197E+03
     -1.599  0.2536E+02  0.1203E+03
     -1.575  0.8859E+02  0.1225E+03
     -1.551  0.2175E+03  0.1276E+03
     -1.527  0.2507E+03  0.1336E+03
     -1.503  0.1436E+03  0.1370E+03
     -1.480  0.4117E+02  0.1380E+03
     -1.456  0.4027E+02  0.1389E+03
     -1.432  0.1484E+03  0.1425E+03
     -1.408  0.2615E+03  0.1487E+03
     -1.384  0.2132E+03  0.1538E+03
     -1.361  0.8025E+02  0.1557E+03
     -1.337  0.1768E+02  0.1561E+03
     -1.313  0.4172E+02  0.1571E+03
     -1.289  0.1354E+03  0.1603E+03
     -1.266  0.1844E+03  0.1647E+03
     -1.242  0.1091E+03  0.1673E+03
     -1.218  0.2823E+02  0.1680E+03
     -1.194  0.1583E+02  0.1683E+03
     -1.170  0.6882E+02  0.1700E+03
     -1.147  0.1487E+03  0.1735E+03
     -1.123  0.1600E+03  0.1773E+03
     -1.099  0.9415E+02  0.1796E+03
     -1.075  0.6852E+02  0.1812E+03
     -1.051  0.1725E+03  0.1853E+03
     -1.028  0.2992E+03  0.1924E+03
     -1.004  0.3341E+03  0.2003E+03
     -0.980  0.2622E+03  0.2066E+03
     -0.956  0.1221E+03  0.2095E+03
     -0.933  0.6813E+02  0.2111E+03
     -0.909  0.1565E+03  0.2148E+03
     -0.885  0.2354E+03  0.2204E+03
     -0.861  0.1962E+03  0.2251E+03
     -0.837  0.9782E+02  0.2274E+03
     -0.814  0.2863E+02  0.2281E+03
     -0.790  0.5001E+02  0.2293E+03
     -0.766  0.1540E+03  0.2330E+03
     -0.742  0.2122E+03  0.2380E+03
     -0.718  0.1304E+03  0.2411E+03
     -0.695  0.4305E+02  0.2421E+03
     -0.671  0.6713E+02  0.2437E+03
     -0.647  0.1991E+03  0.2485E+03
     -0.623  0.3111E+03  0.2559E+03
     -0.600  0.2750E+03  0.2624E+03
     -0.576  0.1444E+03  0.2658E+03
     -0.552  0.9800E+02  0.2682E+03
     -0.528  0.1030E+03  0.2706E+03
     -0.504  0.4961E+02  0.2718E+03
     -0.481  0.1080E+02  0.2720E+03
     -0.457  0.2764E+02  0.2727E+03
     -0.433  0.1186E+03  0.2755E+03
     -0.409  0.2387E+03  0.2812E+03
     -0.386  0.2754E+03  0.2878E+03
     -0.362  0.2253E+03  0.2931E+03
     -0.338  0.1546E+03  0.2968E+03
     -0.314  0.1434E+03  0.3002E+03
     -0.290  0.1660E+03  0.3041E+03
     -0.267  0.2084E+03  0.3091E+03
     -0.243  0.2442E+03  0.3149E+03
     -0.219  0.2497E+03  0.3209E+03
     -0.195  0.2386E+03  0.3265E+03
     -0.171  0.1719E+03  0.3306E+03
     -0.148  0.1016E+03  0.3330E+03
     -0.124  0.1079E+03  0.3356E+03
     -0.100  0.1183E+03  0.3384E+03
     -0.076  0.1250E+03  0.3414E+03
     -0.053  0.1184E+03  0.3442E+03
     -0.029  0.1509E+03  0.3478E+03
     -0.005  0.2566E+03  0.3539E+03
      0.019  0.3392E+03  0.3620E+03
      0.043  0.3491E+03  0.3703E+03
      0.066  0.2633E+03  0.3765E+03
      0.090  0.1233E+03  0.3795E+03
      0.114  0.6576E+02  0.3810E+03
      0.138  0.1440E+03  0.3844E+03
      0.162  0.2474E+03  0.3903E+03
      0.185  0.2709E+03  0.3968E+03
      0.209  0.2036E+03  0.4016E+03
      0.233  0.1022E+03  0.4041E+03
      0.257  0.8339E+02  0.4060E+03
      0.280  0.1164E+03  0.4088E+03
      0.304  0.1449E+03  0.4122E+03
      0.328  0.2016E+03  0.4170E+03
      0.352  0.2126E+03  0.4221E+03
      0.376  0.1786E+03  0.4263E+03
      0.399  0.1787E+03  0.4306E+03
      0.423  0.2133E+03  0.4357E+03
      0.447  0.2405E+03  0.4414E+03
      0.471  0.2504E+03  0.4473E+03
      0.495  0.2486E+03  0.4533E+03
      0.518  0.2152E+03  0.4584E+03
      0.542  0.1504E+03  0.4620E+03
      0.566  0.1179E+03  0.4648E+03
      0.590  0.1470E+03  0.4683E+03
      0.613  0.2005E+03  0.4730E+03
      0.637  0.2206E+03  0.4783E+03
      0.661  0.2088E+03  0.4832E+03
      0.685  0.2254E+03  0.4886E+03
      0.709  0.2597E+03  0.4948E+03
      0.732  0.2852E+03  0.5016E+03
      0.756  0.2971E+03  0.5086E+03
      0.780  0.2959E+03  0.5157E+03
      0.804  0.2771E+03  0.5223E+03
      0.828  0.2498E+03  0.5282E+03
      0.851  0.2326E+03  0.5337E+03
      0.875  0.2289E+03  0.5392E+03
      0.899  0.2420E+03  0.5449E+03
      0.923  0.2551E+03  0.5510E+03
      0.946  0.2450E+03  0.5568E+03
      0.970  0.2367E+03  0.5624E+03
      0.994  0.2353E+03  0.5680E+03
      1.018  0.2126E+03  0.5731E+03
      1.042  0.2097E+03  0.5781E+03
      1.065  0.2484E+03  0.5840E+03
      1.089  0.2709E+03  0.5904E+03
      1.113  0.2601E+03  0.5966E+03
      1.137  0.2470E+03  0.6025E+03
      1.160  0.2421E+03  0.6083E+03
      1.184  0.2238E+03  0.6136E+03
      1.208  0.1932E+03  0.6182E+03
      1.232  0.1559E+03  0.6219E+03
      1.256  0.1540E+03  0.6256E+03
      1.279  0.1956E+03  0.6302E+03
      1.303  0.2315E+03  0.6357E+03
      1.327  0.2315E+03  0.6412E+03
      1.351  0.1998E+03  0.6460E+03
      1.375  0.1465E+03  0.6494E+03
      1.398  0.8614E+02  0.6515E+03
      1.422  0.6025E+02  0.6529E+03
      1.446  0.1038E+03  0.6554E+03
      1.470  0.1495E+03  0.6590E+03
      1.493  0.1373E+03  0.6622E+03
      1.517  0.1030E+03  0.6647E+03
      1.541  0.1231E+03  0.6676E+03
      1.565  0.1687E+03  0.6716E+03
      1.589  0.1894E+03  0.6761E+03
      1.612  0.1989E+03  0.6808E+03
      1.636  0.1981E+03  0.6856E+03
      1.660  0.1805E+03  0.6898E+03
      1.684  0.1428E+03  0.6932E+03
      1.708  0.1159E+03  0.6960E+03
      1.731  0.1342E+03  0.6992E+03
      1.755  0.1598E+03  0.7030E+03
      1.779  0.1810E+03  0.7073E+03
      1.803  0.2062E+03  0.7122E+03
      1.826  0.2135E+03  0.7173E+03
      1.850  0.1852E+03  0.7217E+03
      1.874  0.1529E+03  0.7253E+03
      1.898  0.1706E+03  0.7294E+03
      1.922  0.2098E+03  0.7344E+03
      1.945  0.2352E+03  0.7400E+03
      1.969  0.2275E+03  0.7454E+03
      1.993  0.1773E+03  0.7496E+03
      2.017  0.1310E+03  0.7527E+03
      2.041  0.1339E+03  0.7559E+03
      2.064  0.1622E+03  0.7598E+03
      2.088  0.1743E+03  0.7639E+03
      2.112  0.1633E+03  0.7678E+03
      2.136  0.1495E+03  0.7713E+03
      2.159  0.1485E+03  0.7749E+03
      2.183  0.1503E+03  0.7784E+03
      2.207  0.1301E+03  0.7815E+03
      2.231  0.7872E+02  0.7834E+03
      2.255  0.4170E+02  0.7844E+03
      2.278  0.7619E+02  0.7862E+03
      2.302  0.1306E+03  0.7893E+03
      2.326  0.1334E+03  0.7925E+03
      2.350  0.9350E+02  0.7947E+03
      2.374  0.4290E+02  0.7957E+03
      2.397  0.1002E+02  0.7960E+03
      2.421  0.1894E+01  0.7960E+03
      2.445  0.1221E+02  0.7963E+03
      2.469  0.5540E+02  0.7976E+03
      2.492  0.9687E+02  0.7999E+03
      2.516  0.6697E+02  0.8015E+03
      2.540  0.1799E+02  0.8020E+03
      2.564  0.1786E+01  0.8020E+03
      2.588  0.6670E-01  0.8020E+03
      2.611  0.2550E+00  0.8020E+03
      2.635  0.4259E+01  0.8021E+03
      2.659  0.2617E+02  0.8027E+03
      2.683  0.6913E+02  0.8044E+03
      2.706  0.1000E+03  0.8068E+03
      2.730  0.1077E+03  0.8093E+03
      2.754  0.1037E+03  0.8118E+03
      2.778  0.9483E+02  0.8140E+03
      2.802  0.9290E+02  0.8162E+03
      2.825  0.8659E+02  0.8183E+03
      2.849  0.9621E+02  0.8206E+03
      2.873  0.1239E+03  0.8235E+03
      2.897  0.1382E+03  0.8268E+03
      2.921  0.1460E+03  0.8303E+03
      2.944  0.1647E+03  0.8342E+03
      2.968  0.1565E+03  0.8379E+03
      2.992  0.1118E+03  0.8406E+03
      3.016  0.8436E+02  0.8426E+03
      3.039  0.8789E+02  0.8447E+03
      3.063  0.7656E+02  0.8465E+03
      3.087  0.4534E+02  0.8476E+03
      3.111  0.1884E+02  0.8480E+03
      3.135  0.2270E+02  0.8486E+03
      3.158  0.4894E+02  0.8497E+03
      3.182  0.6107E+02  0.8512E+03
      3.206  0.6069E+02  0.8526E+03
      3.230  0.8378E+02  0.8546E+03
      3.254  0.1025E+03  0.8571E+03
      3.277  0.1041E+03  0.8596E+03
      3.301  0.8763E+02  0.8616E+03
      3.325  0.7062E+02  0.8633E+03
      3.349  0.6484E+02  0.8649E+03
      3.372  0.3723E+02  0.8657E+03
      3.396  0.9757E+01  0.8660E+03
      3.420  0.1039E+01  0.8660E+03
      3.444  0.4069E-01  0.8660E+03
      3.468  0.5368E-03  0.8660E+03
      3.491  0.2240E-05  0.8660E+03
      3.515  0.2839E-08  0.8660E+03
      3.539  0.1067E-11  0.8660E+03
      3.563  0.0000E+00  0.8660E+03
      3.587  0.0000E+00  0.8660E+03
      3.610  0.0000E+00  0.8660E+03
      3.634  0.0000E+00  0.8660E+03
      3.658  0.0000E+00  0.8660E+03
      3.682  0.0000E+00  0.8660E+03
