       N       E                     dE             d eps       ncg     rms          rms(c)
DAV:   1    -0.264624025634E+03   -0.26462E+03   -0.10471E+05  3464   0.655E+02
DAV:   2    -0.773736455656E+03   -0.50911E+03   -0.46565E+03  4004   0.668E+01
DAV:   3    -0.808871490737E+03   -0.35135E+02   -0.32047E+02  4352   0.139E+01
DAV:   4    -0.810015951825E+03   -0.11445E+01   -0.11288E+01  3896   0.277E+00
DAV:   5    -0.810040966497E+03   -0.25015E-01   -0.24990E-01  4056   0.439E-01    0.638E+00
DAV:   6    -0.810145998953E+03   -0.10503E+00   -0.52158E+00  3936   0.378E+00    0.586E+00
DAV:   7    -0.805038565452E+03    0.51074E+01   -0.48133E+00  3944   0.327E+00    0.301E+00
DAV:   8    -0.804257230258E+03    0.78134E+00   -0.21136E+00  3840   0.146E+00    0.175E+00
DAV:   9    -0.804080453135E+03    0.17678E+00   -0.10746E+00  3768   0.867E-01    0.965E-01
DAV:  10    -0.804100889198E+03   -0.20436E-01   -0.18639E-01  4032   0.526E-01    0.813E-01
DAV:  11    -0.804031743478E+03    0.69146E-01   -0.80533E-02  3920   0.369E-01    0.387E-01
DAV:  12    -0.804027909611E+03    0.38339E-02   -0.30229E-02  3712   0.149E-01    0.168E-01
DAV:  13    -0.804027862165E+03    0.47446E-04   -0.59938E-03  3840   0.853E-02    0.105E-01
DAV:  14    -0.804027249859E+03    0.61231E-03   -0.16302E-03  3808   0.581E-02    0.683E-02
DAV:  15    -0.804026765417E+03    0.48444E-03   -0.62351E-04  3800   0.323E-02    0.303E-02
DAV:  16    -0.804026700003E+03    0.65414E-04   -0.40553E-04  3664   0.166E-02    0.114E-02
DAV:  17    -0.804026699531E+03    0.47153E-06   -0.46417E-05  4024   0.858E-03
   1 F= -.80402670E+03 E0= -.80398036E+03  d E =-.926712E-01
