Li                                      
           1
    20.640000    0.000000    0.000000
     0.000000   20.640000    0.000000
     0.000000    0.000000   20.640000
   Li
   432
Direct configuration=     1
   0.00034929  0.00720037  0.01607247
   0.91603393  0.08617569  0.09578946
   0.80723010  0.16023910  0.16246545
   0.74759127  0.26636186  0.25772829
   0.64321825  0.33425466  0.33201407
   0.57624841  0.42408869  0.42658088
   0.50288229  0.50021564  0.50205025
   0.40201398  0.58083430  0.58984387
   0.31712510  0.67033448  0.66631953
   0.23845089  0.75743610  0.74337911
   0.14929265  0.83718379  0.83219831
   0.07063759  0.93126921  0.90946377
   0.09761776  0.91276768  0.09460607
   0.97905912  0.00246523  0.16586731
   0.91418678  0.06588181  0.23522308
   0.82498373  0.14573996  0.33324307
   0.75003985  0.24383534  0.41309291
   0.66418319  0.33338553  0.49468526
   0.59040841  0.42625557  0.58258665
   0.51221520  0.49007415  0.67123415
   0.40317218  0.58425801  0.74462466
   0.31046208  0.67900187  0.83286728
   0.23158416  0.75075414  0.90981500
   0.16749901  0.84570164  0.99928945
   0.17772645  0.80874416  0.18180270
   0.08546130  0.92355999  0.23520402
   0.00603397  0.99191354  0.32029494
   0.91446990  0.07252735  0.41393361
   0.82167916  0.15522448  0.50103937
   0.75151838  0.25146420  0.58831433
   0.68344291  0.34385156  0.66242969
   0.58918710  0.41188954  0.73796638
   0.49272775  0.50619586  0.81929332
   0.41144812  0.60072389  0.91278744
   0.33389606  0.67518478  0.99652849
   0.24864742  0.75769511  0.06232970
   0.25665048  0.74134635  0.26466889
   0.17563974  0.83917376  0.34039432
   0.08177036  0.91089909  0.40590677
   0.99392382  0.99452287  0.49695337
   0.90742902  0.08181749  0.57917431
   0.82979589  0.17340737  0.67103757
   0.75742251  0.25963294  0.74397542
   0.66899844  0.32479060  0.83796803
   0.57621467  0.41346827  0.89122607
   0.50621101  0.49263600  0.99630850
   0.41379590  0.59004288  0.08134196
   0.33901356  0.66939631  0.18223268
   0.32774743  0.66488626  0.33959956
   0.23610118  0.76080802  0.41116632
   0.17896372  0.84083074  0.49983635
   0.08412182  0.92527231  0.57744394
   0.99543361  0.00058264  0.65477357
   0.92671119  0.08641339  0.73729633
   0.82858710  0.15306714  0.82358190
   0.75891207  0.24734027  0.91568093
   0.66202588  0.34674375  0.98465725
   0.57953454  0.42407276  0.08839200
   0.49937734  0.50992964  0.15305205
   0.41809735  0.58483633  0.25105873
   0.42432534  0.59855420  0.42422472
   0.32494037  0.66106933  0.49622087
   0.24963928  0.75420782  0.58675248
   0.16853393  0.85995716  0.67014581
   0.07687103  0.92965663  0.74075869
   0.00935333  0.01325842  0.81952352
   0.91738568  0.07756931  0.91242948
   0.80534012  0.14917733  0.00988907
   0.74430749  0.26582148  0.09116001
   0.66097025  0.34727365  0.17994653
   0.56953853  0.43786609  0.25076035
   0.49919653  0.51461473  0.33072266
   0.07933909  0.09657620  0.93530952
   0.97953820  0.17623713  0.00598178
   0.88694258  0.23924261  0.09936961
   0.82122517  0.33840904  0.16509084
   0.76967705  0.41759452  0.26323798
   0.66435855  0.50504026  0.32333494
   0.57888689  0.59435268  0.40790703
   0.51083261  0.64637338  0.52604102
   0.40744786  0.74285649  0.57679612
   0.33973768  0.82632117  0.67942150
   0.25646963  0.92742273  0.74871142
   0.16178718  0.00154613  0.82910077
   0.14698003  0.99736464  0.00208731
   0.06882372  0.07717535  0.09095930
   0.99241082  0.17783524  0.16461167
   0.89807712  0.23807709  0.24833260
   0.83844656  0.33338261  0.35019662
   0.73430277  0.41626698  0.41025289
   0.66492406  0.50908074  0.48416056
   0.59360812  0.57637875  0.59007867
   0.50681685  0.66740041  0.65402799
   0.41298829  0.72914111  0.75393610
   0.31799534  0.83555562  0.83603696
   0.23533073  0.91620339  0.91916278
   0.25076232  0.92174007  0.09226434
   0.16611190  0.01665408  0.15964235
   0.09280231  0.09248612  0.24474843
   0.98289571  0.16178706  0.32789233
   0.91632596  0.23982231  0.43052473
   0.82948370  0.34420199  0.49669723
   0.74973681  0.41014353  0.58800711
   0.68001709  0.50548131  0.67275575
   0.57594111  0.58400773  0.75224853
   0.49851642  0.66792808  0.83413632
   0.42112540  0.75560684  0.91357426
   0.33765370  0.83619675  0.99364239
   0.33132271  0.82232236  0.16776082
   0.24530573  0.91724851  0.23932268
   0.16616905  0.99284855  0.33295034
   0.07005047  0.07294939  0.41968231
   0.98151136  0.15681256  0.50348803
   0.90929329  0.25610359  0.58391005
   0.84723318  0.34069550  0.65962789
   0.74893026  0.41629193  0.74600000
   0.67070280  0.49879589  0.83525488
   0.57995579  0.58734251  0.91200865
   0.49955525  0.68401625  0.99617107
   0.42171917  0.75040163  0.09707229
   0.41810940  0.75236947  0.26296568
   0.31674445  0.83403222  0.33408359
   0.25464275  0.93576606  0.41734360
   0.15752443  0.99358726  0.50951897
   0.06672324  0.10653630  0.58770806
   0.98661320  0.17352690  0.66791752
   0.92034771  0.25685715  0.75634125
   0.82273435  0.34479620  0.83448414
   0.74660469  0.42495841  0.91199378
   0.67118062  0.50404891  0.98988287
   0.58832383  0.61006471  0.07753255
   0.50786703  0.67707379  0.17531240
   0.50533301  0.68467910  0.32310977
   0.41647991  0.75493626  0.43416270
   0.32442676  0.85451756  0.50442799
   0.25246740  0.91539738  0.60161631
   0.16637104  0.01675732  0.66538322
   0.09668677  0.10163137  0.74680148
   0.00387032  0.17223171  0.84292207
   0.88436823  0.23367975  0.92625796
   0.82263598  0.34307392  0.00330010
   0.74595744  0.41660438  0.07663906
   0.65487182  0.49788482  0.16235807
   0.59377880  0.58565408  0.23544992
   0.16340982  0.17220806  0.83727858
   0.09212041  0.24751738  0.92651219
   0.98109207  0.32951044  0.01815919
   0.92270608  0.41848930  0.09110746
   0.84191904  0.49443890  0.16544645
   0.75102624  0.57337629  0.23816164
   0.67051727  0.66189896  0.32184708
   0.57695641  0.76075020  0.42713663
   0.49426087  0.83280784  0.51183135
   0.41984845  0.92119798  0.59003898
   0.34603811  0.00724103  0.66444802
   0.26186583  0.08653365  0.74215938
   0.23707628  0.08377705  0.90398058
   0.16841801  0.15573216  0.01064710
   0.07022225  0.25608257  0.09171140
   0.98218838  0.32334024  0.16845677
   0.90259511  0.41880530  0.26049400
   0.83316644  0.50597578  0.34095144
   0.74504348  0.58613574  0.41081262
   0.67667253  0.65789146  0.49966116
   0.58152762  0.75103697  0.57526463
   0.48203241  0.82806061  0.67162443
   0.40784331  0.91167553  0.76277471
   0.33625893  0.99413128  0.84248497
   0.32746162  0.99878800  0.97278939
   0.24883986  0.08278363  0.07980773
   0.15054759  0.15829853  0.15641927
   0.08846858  0.25843057  0.25002719
   0.99183645  0.32803588  0.33316736
   0.90354814  0.43327837  0.42323171
   0.82455166  0.50132418  0.51096402
   0.75748999  0.57435570  0.58810706
   0.67237761  0.65965121  0.66876426
   0.58640779  0.75220086  0.74361192
   0.50824070  0.82475424  0.82793435
   0.43276507  0.90895295  0.91759627
   0.40565587  0.92218084  0.09435873
   0.32262950  0.00702714  0.15478288
   0.26021905  0.07541611  0.26000743
   0.16228022  0.17373749  0.34413453
   0.07819601  0.25388816  0.41331169
   0.98346554  0.34031149  0.49294412
   0.92498917  0.42576432  0.56902674
   0.83006753  0.48443014  0.67042407
   0.76682090  0.58450841  0.75423864
   0.67189085  0.66704157  0.83598443
   0.58315282  0.74719485  0.92577024
   0.49587235  0.84290123  0.00327035
   0.50169216  0.82813713  0.17177722
   0.40207999  0.92621485  0.25492660
   0.33510635  0.00345005  0.33852143
   0.23802576  0.08149467  0.43637465
   0.15485977  0.16608548  0.50480136
   0.07170807  0.25641848  0.57685470
   0.00322445  0.34029550  0.67139818
   0.93841272  0.41285026  0.76696677
   0.84949147  0.50133155  0.82523639
   0.76904379  0.58267311  0.92518844
   0.67764541  0.65829092  0.99288207
   0.60505807  0.76270529  0.08115022
   0.60333158  0.77168199  0.25219264
   0.49857825  0.84389787  0.33899330
   0.40057613  0.92310119  0.41239168
   0.33142684  0.99247266  0.51503395
   0.24539620  0.08708521  0.57480948
   0.18075869  0.17840655  0.65682802
   0.09220110  0.25293578  0.75647242
   0.00057026  0.31818834  0.85872723
   0.90808988  0.42305885  0.91869362
   0.83783107  0.49291964  0.00164580
   0.75410913  0.58140244  0.07271052
   0.67164451  0.66325541  0.15484684
   0.26177257  0.24555075  0.74760836
   0.16935422  0.33959137  0.84106464
   0.07809081  0.42636808  0.91403768
   0.98581490  0.50120076  0.99708905
   0.93241726  0.58688550  0.09547697
   0.84032823  0.67520847  0.15481385
   0.73442898  0.75089402  0.24521583
   0.67658323  0.84783704  0.33849224
   0.57532364  0.91050413  0.42670091
   0.51327937  0.98643849  0.49824652
   0.44418213  0.07963581  0.58354610
   0.33781889  0.15843778  0.66897017
   0.32702836  0.16944970  0.84357614
   0.23745823  0.25008350  0.91325905
   0.15420276  0.32693144  0.99326611
   0.07507173  0.41535750  0.08294833
   0.00932773  0.48236776  0.17698895
   0.92182695  0.58186446  0.23286482
   0.82397613  0.65042317  0.31454203
   0.74313104  0.73916617  0.42026159
   0.67315904  0.83896984  0.49719861
   0.58431936  0.89575155  0.58863885
   0.52329241  0.98759194  0.67219176
   0.42307971  0.07594290  0.75819340
   0.41485070  0.09570138  0.89760668
   0.34163191  0.17119392  0.99816269
   0.25517111  0.25199450  0.08246626
   0.16530414  0.33754345  0.15700548
   0.08579281  0.40991791  0.24561853
   0.99319459  0.49707665  0.34474775
   0.90952823  0.57166789  0.42087832
   0.83954854  0.65754583  0.50288472
   0.74414917  0.73805874  0.59261366
   0.67432006  0.82859166  0.67378569
   0.58871042  0.90778669  0.76941883
   0.50927862  0.01057031  0.83801737
   0.50852535  0.01150566  0.98807063
   0.42735523  0.06668600  0.07593900
   0.33731185  0.16118839  0.16571702
   0.24242456  0.24261269  0.24549319
   0.16941532  0.33911537  0.33022276
   0.08509227  0.40364170  0.41362470
   0.00843095  0.49376866  0.49620263
   0.92124605  0.56931960  0.59782665
   0.84977958  0.66099824  0.65389990
   0.76390638  0.73638570  0.76380006
   0.67935590  0.80508681  0.83985476
   0.59523234  0.91118136  0.91197465
   0.58221455  0.91787387  0.07145161
   0.49869705  0.00736727  0.17464207
   0.41156925  0.08070538  0.25863238
   0.32885456  0.16696735  0.34613106
   0.23002808  0.25358957  0.43168006
   0.17030803  0.34472745  0.50652619
   0.09582058  0.40749136  0.58090014
   0.00547092  0.50006197  0.65827863
   0.92206509  0.59200785  0.74438357
   0.85450801  0.68314200  0.84511504
   0.76198907  0.73364619  0.92225679
   0.68099137  0.82641066  0.00176505
   0.68189291  0.85798261  0.15206647
   0.58675361  0.91451515  0.25590173
   0.50250554  0.99259247  0.33050994
   0.41788425  0.07706400  0.42605921
   0.33585298  0.16695681  0.49814719
   0.24888909  0.25262195  0.58723132
   0.16476120  0.33515136  0.67216794
   0.06311319  0.40763105  0.75787317
   0.99720644  0.50718564  0.84387527
   0.91001337  0.59544092  0.91350183
   0.84375541  0.66822715  0.99442307
   0.76740316  0.74242602  0.08553204
   0.32673575  0.33013458  0.65032500
   0.25626647  0.40397249  0.74145038
   0.16027334  0.48508116  0.83759505
   0.08397613  0.58662130  0.92823546
   0.00142332  0.67743509  0.00426213
   0.92955877  0.77691050  0.07133556
   0.82492433  0.83600845  0.16128069
   0.74136439  0.91824233  0.25183378
   0.66219816  0.98053027  0.35693024
   0.57353880  0.08779609  0.41512419
   0.51732823  0.16140581  0.51553050
   0.42119563  0.25354169  0.59833475
   0.41468808  0.25174701  0.74911663
   0.31924006  0.33253326  0.84488901
   0.24270747  0.42353046  0.93051395
   0.15667114  0.49038727  0.00737809
   0.09136110  0.57956924  0.09577847
   0.99279933  0.67988199  0.15318920
   0.91414151  0.73321356  0.24056293
   0.83524886  0.82806334  0.32508230
   0.76948500  0.91120582  0.43452489
   0.63413805  0.99138668  0.50006105
   0.58453678  0.07583998  0.60251833
   0.51200992  0.17146374  0.68573624
   0.52300273  0.16309061  0.81402221
   0.42912471  0.23492869  0.89683302
   0.34432790  0.33146639  0.97678759
   0.25328851  0.40069025  0.06509762
   0.17247939  0.49018619  0.15443579
   0.08345258  0.59355892  0.24087121
   0.98289025  0.66601925  0.32360104
   0.91056815  0.73026500  0.39821661
   0.84002477  0.82175863  0.49801867
   0.75676852  0.92249842  0.57175505
   0.68442563  0.97188801  0.66234432
   0.60067176  0.07757721  0.75736800
   0.60845800  0.08730584  0.92823929
   0.51645345  0.16789862  0.00390918
   0.42664429  0.24686203  0.08248604
   0.33615513  0.32328809  0.15383147
   0.26660317  0.41063894  0.23564562
   0.16366378  0.48667881  0.32489317
   0.08472844  0.58721276  0.40593569
   0.00428693  0.66466501  0.50584072
   0.91974816  0.75766033  0.58103874
   0.84372876  0.83109203  0.66091902
   0.75016035  0.91999665  0.76826196
   0.68224689  0.99646842  0.83889431
   0.67781121  0.97862069  0.00060867
   0.59332116  0.07895701  0.10015505
   0.49602573  0.15908402  0.16291792
   0.41828373  0.24066556  0.24684094
   0.32993110  0.32344315  0.34020495
   0.26723454  0.42031493  0.40610579
   0.16729681  0.49551379  0.49049142
   0.09620968  0.58670907  0.59021296
   0.00373052  0.67558109  0.65564373
   0.91904878  0.75415572  0.73243406
   0.83283282  0.83737821  0.83103448
   0.76612958  0.91562527  0.90668299
   0.76772148  0.90556863  0.07890275
   0.67645796  0.98201434  0.15571153
   0.59861862  0.07074932  0.26303736
   0.49214184  0.16032806  0.33659935
   0.41964709  0.25104060  0.41950846
   0.34696236  0.33808806  0.51231275
   0.26788201  0.41325802  0.59268531
   0.15629987  0.48843930  0.67185435
   0.07391723  0.57504027  0.75010145
   0.00609817  0.66774361  0.83255581
   0.93008985  0.77241353  0.92525331
   0.84457546  0.83126818  0.99349175
   0.41988179  0.42552760  0.59562160
   0.33740746  0.50161009  0.65972528
   0.25107094  0.56641548  0.74779375
   0.15842917  0.65357022  0.82686672
   0.07893546  0.75946140  0.90618310
   0.01660588  0.86076740  0.99802916
   0.91273469  0.92499770  0.07825773
   0.82777821  0.99770517  0.16520987
   0.74112118  0.06864307  0.26389987
   0.67534622  0.15210237  0.33912575
   0.57703002  0.24210388  0.41869825
   0.49374012  0.33277710  0.50819974
   0.49558678  0.33821539  0.66940025
   0.39567246  0.41988644  0.75057237
   0.31403493  0.49510620  0.83372761
   0.23511740  0.58953535  0.92889065
   0.14557597  0.67719277  0.00935565
   0.09254647  0.76938291  0.09043544
   0.99919986  0.83163474  0.17597909
   0.90423000  0.90614385  0.23904785
   0.83724510  0.98915915  0.33640811
   0.76014519  0.06949389  0.41152227
   0.67274264  0.14694098  0.49533657
   0.58707949  0.25030332  0.57872289
   0.59397159  0.26598732  0.74817102
   0.49955087  0.32897231  0.82918933
   0.40459477  0.42614164  0.91181666
   0.33475635  0.50142430  0.99608511
   0.24842455  0.58363377  0.07864375
   0.18204449  0.66223076  0.16404124
   0.07961399  0.76029681  0.25649832
   0.98624552  0.83589447  0.33102765
   0.91750627  0.90837383  0.41064066
   0.84004476  0.00294112  0.49407095
   0.75068458  0.07840739  0.58584604
   0.67481918  0.16754667  0.66041592
   0.67719957  0.16601471  0.82639754
   0.57637656  0.24811696  0.90927371
   0.49927175  0.32764572  0.98431329
   0.42384803  0.40606757  0.06943217
   0.33241131  0.50883362  0.15117516
   0.24864658  0.57556014  0.24995863
   0.16571612  0.66830183  0.33139642
   0.07987281  0.74547894  0.41236843
   0.99860630  0.81191379  0.49339308
   0.92999887  0.90541660  0.57270674
   0.83697030  0.98791254  0.66239002
   0.74565240  0.07577603  0.74449560
   0.74736527  0.07700307  0.92841228
   0.67351699  0.17335903  0.00697766
   0.58509451  0.26457116  0.09031663
   0.48714006  0.33630449  0.17053383
   0.40989749  0.42413558  0.24232140
   0.35456447  0.51056451  0.31877392
   0.24455974  0.57204909  0.40196746
   0.16796871  0.65445891  0.50071949
   0.08634279  0.74682200  0.57264035
   0.00514285  0.84505031  0.65449617
   0.92085132  0.91897591  0.76072586
   0.84194898  0.01766965  0.83231127
   0.82477687  0.00654156  0.00384750
   0.73815492  0.06687116  0.08462060
   0.67903708  0.16927416  0.17257115
   0.58613697  0.25806070  0.24417813
   0.49821630  0.33905666  0.33372398
   0.41311677  0.41357575  0.41993623
   0.33736731  0.50528634  0.48932634
   0.24888034  0.57441276  0.59167218
   0.16408359  0.66479233  0.67024477
   0.06748299  0.75832447  0.72976029
   0.99008062  0.83002714  0.82623850
   0.91305848  0.92943273  0.91931316
