 432 432   0   0
  0.1915683E+02  0.2022720E-08  0.2022720E-08  0.2022720E-08  0.5000000E-15
  1.000000000000000E-004
  CAR 
 Li                                      
      3.86495546     -3.36671878  301      0.54863275      1.00000000
     -3.367  0.0000E+00  0.0000E+00
     -3.343  0.0000E+00  0.0000E+00
     -3.319  0.0000E+00  0.0000E+00
     -3.294  0.0000E+00  0.0000E+00
     -3.270  0.0000E+00  0.0000E+00
     -3.246  0.0000E+00  0.0000E+00
     -3.222  0.0000E+00  0.0000E+00
     -3.198  0.1865E-11  0.4496E-13
     -3.174  0.6060E-08  0.1461E-09
     -3.150  0.5561E-05  0.1342E-06
     -3.126  0.1456E-02  0.3524E-04
     -3.102  0.1104E+00  0.2697E-02
     -3.077  0.2473E+01  0.6232E-01
     -3.053  0.1678E+02  0.4668E+00
     -3.029  0.3528E+02  0.1317E+01
     -3.005  0.2325E+02  0.1878E+01
     -2.981  0.4913E+01  0.1996E+01
     -2.957  0.3513E+01  0.2081E+01
     -2.933  0.2499E+02  0.2683E+01
     -2.909  0.7510E+02  0.4494E+01
     -2.885  0.9271E+02  0.6728E+01
     -2.861  0.4471E+02  0.7806E+01
     -2.836  0.8298E+01  0.8006E+01
     -2.812  0.9688E+01  0.8240E+01
     -2.788  0.4641E+02  0.9358E+01
     -2.764  0.9261E+02  0.1159E+02
     -2.740  0.7477E+02  0.1339E+02
     -2.716  0.2286E+02  0.1394E+02
     -2.692  0.5772E+01  0.1408E+02
     -2.668  0.2807E+02  0.1476E+02
     -2.644  0.9012E+02  0.1693E+02
     -2.619  0.1237E+03  0.1991E+02
     -2.595  0.7050E+02  0.2161E+02
     -2.571  0.1714E+02  0.2203E+02
     -2.547  0.2044E+02  0.2252E+02
     -2.523  0.7953E+02  0.2444E+02
     -2.499  0.1575E+03  0.2823E+02
     -2.475  0.1541E+03  0.3195E+02
     -2.451  0.7060E+02  0.3365E+02
     -2.427  0.1471E+02  0.3400E+02
     -2.402  0.1514E+02  0.3437E+02
     -2.378  0.6109E+02  0.3584E+02
     -2.354  0.9646E+02  0.3817E+02
     -2.330  0.5995E+02  0.3961E+02
     -2.306  0.1597E+02  0.4000E+02
     -2.282  0.1621E+02  0.4039E+02
     -2.258  0.6921E+02  0.4206E+02
     -2.234  0.1461E+03  0.4558E+02
     -2.210  0.1606E+03  0.4945E+02
     -2.186  0.8593E+02  0.5152E+02
     -2.161  0.2832E+02  0.5220E+02
     -2.137  0.5675E+02  0.5357E+02
     -2.113  0.1427E+03  0.5701E+02
     -2.089  0.2124E+03  0.6213E+02
     -2.065  0.1995E+03  0.6694E+02
     -2.041  0.1017E+03  0.6939E+02
     -2.017  0.2639E+02  0.7003E+02
     -1.993  0.2545E+02  0.7064E+02
     -1.969  0.6887E+02  0.7230E+02
     -1.944  0.9115E+02  0.7450E+02
     -1.920  0.5131E+02  0.7574E+02
     -1.896  0.1533E+02  0.7611E+02
     -1.872  0.3723E+02  0.7700E+02
     -1.848  0.1130E+03  0.7973E+02
     -1.824  0.1758E+03  0.8396E+02
     -1.800  0.1585E+03  0.8779E+02
     -1.776  0.7651E+02  0.8963E+02
     -1.752  0.2962E+02  0.9034E+02
     -1.728  0.7473E+02  0.9215E+02
     -1.703  0.1700E+03  0.9624E+02
     -1.679  0.2164E+03  0.1015E+03
     -1.655  0.1705E+03  0.1056E+03
     -1.631  0.8055E+02  0.1075E+03
     -1.607  0.3021E+02  0.1082E+03
     -1.583  0.6028E+02  0.1097E+03
     -1.559  0.1353E+03  0.1130E+03
     -1.535  0.1596E+03  0.1168E+03
     -1.511  0.1009E+03  0.1192E+03
     -1.486  0.4470E+02  0.1203E+03
     -1.462  0.7830E+02  0.1222E+03
     -1.438  0.1711E+03  0.1263E+03
     -1.414  0.2213E+03  0.1317E+03
     -1.390  0.1729E+03  0.1358E+03
     -1.366  0.7705E+02  0.1377E+03
     -1.342  0.3941E+02  0.1386E+03
     -1.318  0.1013E+03  0.1411E+03
     -1.294  0.2072E+03  0.1461E+03
     -1.270  0.2321E+03  0.1517E+03
     -1.245  0.1377E+03  0.1550E+03
     -1.221  0.4254E+02  0.1560E+03
     -1.197  0.3746E+02  0.1569E+03
     -1.173  0.1010E+03  0.1593E+03
     -1.149  0.1500E+03  0.1630E+03
     -1.125  0.1298E+03  0.1661E+03
     -1.101  0.6466E+02  0.1676E+03
     -1.077  0.2496E+02  0.1683E+03
     -1.053  0.5317E+02  0.1695E+03
     -1.028  0.1152E+03  0.1723E+03
     -1.004  0.1432E+03  0.1758E+03
     -0.980  0.1179E+03  0.1786E+03
     -0.956  0.9317E+02  0.1808E+03
     -0.932  0.1508E+03  0.1845E+03
     -0.908  0.2395E+03  0.1903E+03
     -0.884  0.2732E+03  0.1968E+03
     -0.860  0.2604E+03  0.2031E+03
     -0.836  0.1895E+03  0.2077E+03
     -0.812  0.1096E+03  0.2103E+03
     -0.787  0.1295E+03  0.2135E+03
     -0.763  0.1961E+03  0.2182E+03
     -0.739  0.1904E+03  0.2228E+03
     -0.715  0.1340E+03  0.2260E+03
     -0.691  0.7041E+02  0.2277E+03
     -0.667  0.4763E+02  0.2288E+03
     -0.643  0.9773E+02  0.2312E+03
     -0.619  0.1670E+03  0.2352E+03
     -0.595  0.1680E+03  0.2393E+03
     -0.570  0.9896E+02  0.2417E+03
     -0.546  0.8246E+02  0.2436E+03
     -0.522  0.1583E+03  0.2475E+03
     -0.498  0.2286E+03  0.2530E+03
     -0.474  0.2406E+03  0.2588E+03
     -0.450  0.1981E+03  0.2636E+03
     -0.426  0.1259E+03  0.2666E+03
     -0.402  0.1050E+03  0.2691E+03
     -0.378  0.8384E+02  0.2711E+03
     -0.354  0.3400E+02  0.2720E+03
     -0.329  0.3014E+02  0.2727E+03
     -0.305  0.9869E+02  0.2751E+03
     -0.281  0.1865E+03  0.2796E+03
     -0.257  0.2241E+03  0.2850E+03
     -0.233  0.2141E+03  0.2901E+03
     -0.209  0.1822E+03  0.2945E+03
     -0.185  0.1595E+03  0.2984E+03
     -0.161  0.1733E+03  0.3025E+03
     -0.137  0.1942E+03  0.3072E+03
     -0.112  0.2084E+03  0.3122E+03
     -0.088  0.2168E+03  0.3175E+03
     -0.064  0.2243E+03  0.3229E+03
     -0.040  0.2058E+03  0.3278E+03
     -0.016  0.1531E+03  0.3315E+03
      0.008  0.1189E+03  0.3344E+03
      0.032  0.1268E+03  0.3375E+03
      0.056  0.1376E+03  0.3408E+03
      0.080  0.1350E+03  0.3440E+03
      0.104  0.1574E+03  0.3478E+03
      0.129  0.2173E+03  0.3531E+03
      0.153  0.2557E+03  0.3592E+03
      0.177  0.2655E+03  0.3656E+03
      0.201  0.2519E+03  0.3717E+03
      0.225  0.2053E+03  0.3766E+03
      0.249  0.1396E+03  0.3800E+03
      0.273  0.1374E+03  0.3833E+03
      0.297  0.1974E+03  0.3881E+03
      0.321  0.2235E+03  0.3935E+03
      0.346  0.2025E+03  0.3983E+03
      0.370  0.1549E+03  0.4021E+03
      0.394  0.1200E+03  0.4050E+03
      0.418  0.1280E+03  0.4081E+03
      0.442  0.1568E+03  0.4118E+03
      0.466  0.1800E+03  0.4162E+03
      0.490  0.1937E+03  0.4208E+03
      0.514  0.1933E+03  0.4255E+03
      0.538  0.1886E+03  0.4301E+03
      0.562  0.1919E+03  0.4347E+03
      0.587  0.1999E+03  0.4395E+03
      0.611  0.2035E+03  0.4444E+03
      0.635  0.1999E+03  0.4492E+03
      0.659  0.1909E+03  0.4538E+03
      0.683  0.1660E+03  0.4578E+03
      0.707  0.1600E+03  0.4617E+03
      0.731  0.1686E+03  0.4657E+03
      0.755  0.1733E+03  0.4699E+03
      0.779  0.1937E+03  0.4746E+03
      0.804  0.2057E+03  0.4796E+03
      0.828  0.2074E+03  0.4846E+03
      0.852  0.2227E+03  0.4899E+03
      0.876  0.2384E+03  0.4957E+03
      0.900  0.2469E+03  0.5016E+03
      0.924  0.2549E+03  0.5078E+03
      0.948  0.2582E+03  0.5140E+03
      0.972  0.2468E+03  0.5199E+03
      0.996  0.2331E+03  0.5256E+03
      1.020  0.2326E+03  0.5312E+03
      1.045  0.2319E+03  0.5368E+03
      1.069  0.2276E+03  0.5422E+03
      1.093  0.2203E+03  0.5475E+03
      1.117  0.1984E+03  0.5523E+03
      1.141  0.1904E+03  0.5569E+03
      1.165  0.2001E+03  0.5617E+03
      1.189  0.2156E+03  0.5669E+03
      1.213  0.2263E+03  0.5724E+03
      1.237  0.2307E+03  0.5780E+03
      1.262  0.2290E+03  0.5835E+03
      1.286  0.2186E+03  0.5887E+03
      1.310  0.2044E+03  0.5937E+03
      1.334  0.2004E+03  0.5985E+03
      1.358  0.2103E+03  0.6036E+03
      1.382  0.2111E+03  0.6087E+03
      1.406  0.1992E+03  0.6135E+03
      1.430  0.1892E+03  0.6180E+03
      1.454  0.1817E+03  0.6224E+03
      1.479  0.1760E+03  0.6266E+03
      1.503  0.1815E+03  0.6310E+03
      1.527  0.1806E+03  0.6354E+03
      1.551  0.1757E+03  0.6396E+03
      1.575  0.1719E+03  0.6438E+03
      1.599  0.1450E+03  0.6473E+03
      1.623  0.1229E+03  0.6502E+03
      1.647  0.1128E+03  0.6529E+03
      1.671  0.1225E+03  0.6559E+03
      1.695  0.1433E+03  0.6593E+03
      1.720  0.1515E+03  0.6630E+03
      1.744  0.1495E+03  0.6666E+03
      1.768  0.1553E+03  0.6703E+03
      1.792  0.1591E+03  0.6742E+03
      1.816  0.1513E+03  0.6778E+03
      1.840  0.1491E+03  0.6814E+03
      1.864  0.1517E+03  0.6851E+03
      1.888  0.1607E+03  0.6889E+03
      1.912  0.1653E+03  0.6929E+03
      1.937  0.1653E+03  0.6969E+03
      1.961  0.1667E+03  0.7009E+03
      1.985  0.1687E+03  0.7050E+03
      2.009  0.1789E+03  0.7093E+03
      2.033  0.1799E+03  0.7137E+03
      2.057  0.1799E+03  0.7180E+03
      2.081  0.1794E+03  0.7223E+03
      2.105  0.1750E+03  0.7265E+03
      2.129  0.1746E+03  0.7307E+03
      2.153  0.1727E+03  0.7349E+03
      2.178  0.1707E+03  0.7390E+03
      2.202  0.1739E+03  0.7432E+03
      2.226  0.1680E+03  0.7473E+03
      2.250  0.1507E+03  0.7509E+03
      2.274  0.1476E+03  0.7545E+03
      2.298  0.1496E+03  0.7581E+03
      2.322  0.1521E+03  0.7617E+03
      2.346  0.1449E+03  0.7652E+03
      2.370  0.1190E+03  0.7681E+03
      2.395  0.1080E+03  0.7707E+03
      2.419  0.1282E+03  0.7738E+03
      2.443  0.1397E+03  0.7771E+03
      2.467  0.1195E+03  0.7800E+03
      2.491  0.1054E+03  0.7826E+03
      2.515  0.9768E+02  0.7849E+03
      2.539  0.9774E+02  0.7873E+03
      2.563  0.1042E+03  0.7898E+03
      2.587  0.8671E+02  0.7919E+03
      2.611  0.6552E+02  0.7935E+03
      2.636  0.5487E+02  0.7948E+03
      2.660  0.3706E+02  0.7957E+03
      2.684  0.1555E+02  0.7960E+03
      2.708  0.2570E+02  0.7967E+03
      2.732  0.6386E+02  0.7982E+03
      2.756  0.7530E+02  0.8000E+03
      2.780  0.5323E+02  0.8013E+03
      2.804  0.2403E+02  0.8019E+03
      2.828  0.9908E+01  0.8021E+03
      2.853  0.2258E+02  0.8027E+03
      2.877  0.4274E+02  0.8037E+03
      2.901  0.5407E+02  0.8050E+03
      2.925  0.7151E+02  0.8067E+03
      2.949  0.8405E+02  0.8088E+03
      2.973  0.8003E+02  0.8107E+03
      2.997  0.8747E+02  0.8128E+03
      3.021  0.1083E+03  0.8154E+03
      3.045  0.1183E+03  0.8183E+03
      3.069  0.1247E+03  0.8213E+03
      3.094  0.1206E+03  0.8242E+03
      3.118  0.1253E+03  0.8272E+03
      3.142  0.1353E+03  0.8304E+03
      3.166  0.1369E+03  0.8337E+03
      3.190  0.1294E+03  0.8369E+03
      3.214  0.1119E+03  0.8396E+03
      3.238  0.1046E+03  0.8421E+03
      3.262  0.1072E+03  0.8447E+03
      3.286  0.8538E+02  0.8467E+03
      3.311  0.4835E+02  0.8479E+03
      3.335  0.3691E+02  0.8488E+03
      3.359  0.4571E+02  0.8499E+03
      3.383  0.5940E+02  0.8513E+03
      3.407  0.7093E+02  0.8530E+03
      3.431  0.8808E+02  0.8551E+03
      3.455  0.1090E+03  0.8578E+03
      3.479  0.1096E+03  0.8604E+03
      3.503  0.9699E+02  0.8628E+03
      3.527  0.7884E+02  0.8647E+03
      3.552  0.4319E+02  0.8657E+03
      3.576  0.1145E+02  0.8660E+03
      3.600  0.1182E+01  0.8660E+03
      3.624  0.4198E-01  0.8660E+03
      3.648  0.4777E-03  0.8660E+03
      3.672  0.1663E-05  0.8660E+03
      3.696  0.1714E-08  0.8660E+03
      3.720  0.5112E-12  0.8660E+03
      3.744  0.0000E+00  0.8660E+03
      3.769  0.0000E+00  0.8660E+03
      3.793  0.0000E+00  0.8660E+03
      3.817  0.0000E+00  0.8660E+03
      3.841  0.0000E+00  0.8660E+03
      3.865  0.0000E+00  0.8660E+03
