Li                                      
           1
    20.227200    0.000000    0.000000
     0.000000   20.227200    0.000000
     0.000000    0.000000   20.227200
   Li
   432
Direct configuration=     1
   0.99192539  0.01384286  0.00375255
   0.92602441  0.06562585  0.08214547
   0.85955674  0.14424084  0.17929049
   0.75580767  0.23948886  0.24174145
   0.66880434  0.30133886  0.31478470
   0.59811252  0.39809896  0.40501203
   0.49816086  0.48443445  0.47728165
   0.40012471  0.58243570  0.58842032
   0.33610313  0.65836613  0.65512845
   0.24312387  0.73793330  0.72939899
   0.14798587  0.81705954  0.82475537
   0.06927362  0.90469572  0.92505718
   0.08150236  0.94857354  0.06968356
   0.01170363  0.01479122  0.17928204
   0.91599427  0.08021332  0.24893706
   0.84319790  0.18149836  0.34173802
   0.74947887  0.27485390  0.41818630
   0.67480886  0.35005060  0.50152640
   0.59143401  0.41948238  0.59845679
   0.49209459  0.51044953  0.67416254
   0.41859565  0.59005989  0.73494472
   0.33334677  0.66011582  0.83918543
   0.23605030  0.76433415  0.90817361
   0.17241847  0.84509956  0.99785033
   0.14611707  0.86304074  0.13959092
   0.09136220  0.91472356  0.26857062
   0.99551847  0.02152958  0.33536046
   0.91361587  0.11200013  0.43431493
   0.84292875  0.18192976  0.49959509
   0.73512747  0.27524563  0.58862362
   0.64710269  0.32144457  0.66877084
   0.56852984  0.41817998  0.74625915
   0.49286904  0.51198383  0.85071279
   0.40186899  0.60188272  0.93839102
   0.32121564  0.68464954  0.00783583
   0.25767950  0.76116007  0.08535716
   0.23593927  0.75701886  0.25124614
   0.15444153  0.81759659  0.32960213
   0.07431895  0.91797256  0.40912371
   0.00594055  0.00368448  0.49372334
   0.92203598  0.10025977  0.58825958
   0.82504151  0.16485716  0.67031337
   0.75316479  0.25080288  0.75411177
   0.64977751  0.31949739  0.82425623
   0.60743358  0.41137431  0.90234239
   0.49754015  0.46980070  0.00772354
   0.41293911  0.58282010  0.08948814
   0.32533992  0.65438612  0.16458285
   0.32772365  0.66526781  0.31085941
   0.23810452  0.76437376  0.42636569
   0.14681457  0.83605377  0.50193405
   0.08176657  0.89740029  0.59574554
   0.99802545  0.00821883  0.67657558
   0.90453242  0.08861196  0.73742076
   0.84939697  0.15965971  0.83532554
   0.73521150  0.25119009  0.91531262
   0.69761244  0.33955484  0.00049493
   0.59428182  0.40144932  0.07330197
   0.49127007  0.46190427  0.15318427
   0.42947162  0.56009145  0.22356624
   0.43375966  0.58423651  0.39786621
   0.32935355  0.66453879  0.48768085
   0.27337197  0.74627607  0.57869164
   0.15329546  0.84030869  0.67487100
   0.08354643  0.91302711  0.76316155
   0.99983796  0.03333536  0.84069472
   0.90180996  0.09243422  0.93317015
   0.83200377  0.18059590  0.01552257
   0.75082743  0.24075192  0.12710128
   0.67002421  0.33892489  0.21235784
   0.60032912  0.41250539  0.25059967
   0.51778760  0.51572296  0.32908783
   0.09052921  0.09153397  0.92139224
   0.98782029  0.16952944  0.00884194
   0.90528070  0.25538869  0.11734813
   0.84543551  0.34797703  0.19836287
   0.74154805  0.43795484  0.26304769
   0.69252620  0.52135807  0.33639054
   0.57050474  0.60892650  0.41210981
   0.48799729  0.66371096  0.49296433
   0.41823177  0.72097733  0.57709784
   0.34211845  0.82882511  0.67233787
   0.24619691  0.92846659  0.74392339
   0.17743505  0.00525305  0.86184322
   0.18692724  0.99729703  0.97939130
   0.09078483  0.08278219  0.10369388
   0.99613968  0.17793193  0.15934034
   0.93934771  0.27188738  0.25658628
   0.83718116  0.35151750  0.32694477
   0.76110887  0.41334012  0.40142175
   0.67624323  0.51949427  0.49540450
   0.56377365  0.57029868  0.56902851
   0.48496541  0.65535290  0.66944903
   0.41208850  0.72842614  0.74204319
   0.33468747  0.82800679  0.85416585
   0.27182195  0.90931745  0.88996454
   0.26564847  0.94629700  0.08273743
   0.18056109  0.01119035  0.19572285
   0.08762565  0.10340214  0.25460522
   0.01347821  0.16277974  0.31902986
   0.90981631  0.26748184  0.43308489
   0.84939740  0.34644463  0.51534544
   0.74609929  0.41632531  0.58522080
   0.66919900  0.50482541  0.65066419
   0.57750089  0.58251452  0.73143898
   0.48490672  0.65171823  0.82384071
   0.41031853  0.74585901  0.94094782
   0.30151840  0.84149379  0.98667855
   0.34520701  0.84758614  0.17232628
   0.25998430  0.91224981  0.24530293
   0.17022705  0.02317676  0.32138842
   0.09554394  0.09113596  0.42082177
   0.01828760  0.18137396  0.50802677
   0.93348369  0.25068472  0.59291801
   0.85453447  0.32934615  0.66945064
   0.75139804  0.38847660  0.73170634
   0.66840913  0.48891802  0.80352424
   0.60157948  0.58109635  0.92329103
   0.51847314  0.67795788  0.00186640
   0.42201938  0.75898692  0.09061796
   0.42265465  0.75571351  0.22683899
   0.33736714  0.83498588  0.32590474
   0.25222363  0.89794078  0.41653412
   0.14800634  0.98308116  0.50328763
   0.07501615  0.09192306  0.57181151
   0.01164784  0.16073321  0.67220902
   0.91300252  0.24734400  0.73732588
   0.82796449  0.32954563  0.81807246
   0.73947498  0.41136444  0.89597564
   0.67642324  0.49442692  0.98055267
   0.58092833  0.57182131  0.08228080
   0.51210510  0.67064306  0.15259409
   0.50036853  0.66752335  0.30298031
   0.43401198  0.74265811  0.39276004
   0.35224197  0.82253489  0.51616800
   0.22825456  0.90934809  0.59998977
   0.15467495  0.00736855  0.67725778
   0.07823730  0.09420837  0.77194800
   0.99801618  0.17240814  0.82946715
   0.89533556  0.25088695  0.92013549
   0.83380730  0.32408041  0.01716616
   0.74615526  0.40893173  0.09483809
   0.66174958  0.49219054  0.16934082
   0.58785170  0.56938960  0.23849258
   0.16763990  0.16231700  0.84871500
   0.07573564  0.26388945  0.91796725
   0.99762796  0.33383148  0.00658765
   0.93417187  0.39767419  0.08646966
   0.86674592  0.48013437  0.17565287
   0.74815199  0.59048838  0.21918769
   0.65552913  0.66757510  0.33674838
   0.57759785  0.76587376  0.41936770
   0.50239456  0.81652759  0.50187379
   0.41827070  0.90713807  0.57995367
   0.32752079  0.96121910  0.66544767
   0.23512281  0.08606054  0.75000962
   0.27430231  0.10213857  0.94100184
   0.15852148  0.18449510  0.00763901
   0.08007937  0.27238904  0.08632619
   0.98981113  0.33607150  0.18046795
   0.94519909  0.44220811  0.26862709
   0.84507539  0.52466221  0.33929302
   0.75554699  0.61867141  0.41434549
   0.66457663  0.67123923  0.51530633
   0.56653733  0.73803646  0.58899725
   0.49320783  0.81905948  0.65934256
   0.44552054  0.89645243  0.77971531
   0.31700469  0.99259117  0.83207632
   0.34257977  0.00198752  0.98097656
   0.24424049  0.09472521  0.07890736
   0.17399127  0.19316262  0.18594043
   0.07223520  0.25225262  0.26317258
   0.00442949  0.34194024  0.33361050
   0.90525794  0.41897042  0.41101703
   0.82629567  0.49269255  0.48008016
   0.76112189  0.57543786  0.57958293
   0.65919627  0.65105308  0.65465797
   0.57167333  0.73607196  0.75168699
   0.51017860  0.79229643  0.84446719
   0.42003807  0.91624551  0.91523472
   0.42347366  0.93233657  0.08525659
   0.32479709  0.00592374  0.17674192
   0.25479342  0.09417408  0.25990427
   0.16255654  0.17375888  0.34638141
   0.06581794  0.25122785  0.42777997
   0.00446334  0.33851446  0.51678709
   0.90738394  0.41503870  0.61857847
   0.82761450  0.49711751  0.66436976
   0.74584665  0.58740687  0.74624534
   0.66576098  0.65173899  0.81249392
   0.56642372  0.71367680  0.92135715
   0.48905865  0.84318317  0.02352702
   0.54778821  0.84265817  0.16733860
   0.43419109  0.91620316  0.23198862
   0.34158615  0.98831115  0.32172008
   0.26321027  0.06515145  0.41380764
   0.17214045  0.16020770  0.49515712
   0.10952032  0.27366338  0.58242668
   0.01355565  0.32791943  0.68155782
   0.91835866  0.42003238  0.75224604
   0.82695024  0.48671997  0.83534048
   0.75089397  0.55670169  0.90978866
   0.69504021  0.66044196  0.00915400
   0.60581134  0.75531311  0.07225531
   0.58836436  0.75080719  0.25433010
   0.50688714  0.83315315  0.31116010
   0.42300322  0.90241915  0.41651591
   0.32123821  0.97052939  0.50398028
   0.24071512  0.07226911  0.58717605
   0.16798171  0.16199800  0.65733432
   0.09739256  0.25236572  0.77463965
   0.98064930  0.33144184  0.85743051
   0.91673628  0.40087577  0.91664063
   0.81696532  0.46366104  0.01727260
   0.75711326  0.57395994  0.08986085
   0.66945837  0.67378065  0.14715854
   0.24570287  0.23637445  0.74519990
   0.18204569  0.32176307  0.83578323
   0.07573626  0.41925388  0.90734131
   0.99710610  0.48290922  0.00484309
   0.89639261  0.59173571  0.06761519
   0.84248714  0.68540773  0.14799533
   0.75280887  0.73400805  0.27039086
   0.65633561  0.83160500  0.34907745
   0.60856608  0.91735213  0.42022226
   0.50563152  0.98799761  0.51037069
   0.39702025  0.07280329  0.59822045
   0.31983878  0.16058847  0.65276838
   0.32850192  0.17135563  0.82559781
   0.25727917  0.22919451  0.92171153
   0.16380164  0.33039902  0.97999933
   0.05984111  0.41221048  0.08991828
   0.99788415  0.50965887  0.16615178
   0.91477666  0.60513861  0.25544450
   0.83015753  0.66674578  0.33909344
   0.74925282  0.74982098  0.42946901
   0.65356659  0.82718841  0.51926467
   0.57073739  0.90529970  0.59931950
   0.47982555  0.97824127  0.67398538
   0.42555647  0.06091220  0.75413502
   0.41232920  0.10681374  0.90266769
   0.34871374  0.17533923  0.02223386
   0.24397130  0.27738874  0.08318843
   0.16150181  0.34566100  0.17441270
   0.08080934  0.42589658  0.24470156
   0.01415504  0.51535708  0.33958563
   0.92486701  0.59671160  0.42827996
   0.84434501  0.66802331  0.50897780
   0.75129710  0.75217610  0.59628898
   0.66842117  0.81654205  0.66871736
   0.57886051  0.91330604  0.74101309
   0.51461662  0.99498951  0.83455775
   0.52861777  0.99779178  0.97670283
   0.40709198  0.05075705  0.06698487
   0.34395016  0.16762517  0.14631298
   0.25760317  0.24727276  0.26619634
   0.16934524  0.32506980  0.32970297
   0.04800897  0.41792875  0.39644712
   0.00843795  0.47897788  0.50251184
   0.91866149  0.56040155  0.57169564
   0.84620498  0.65865305  0.66839587
   0.76844098  0.74632348  0.74508066
   0.67036968  0.81253842  0.82692237
   0.59900313  0.89964711  0.90842121
   0.62474303  0.93187337  0.06605186
   0.53800706  0.98896446  0.17683800
   0.42878378  0.06780681  0.23571691
   0.34222339  0.15799879  0.32169873
   0.26152969  0.24590780  0.42515970
   0.17462131  0.34507529  0.47027240
   0.08983011  0.42760980  0.59341808
   0.00954093  0.49246591  0.65777309
   0.91654922  0.57808694  0.75236980
   0.84519523  0.66151188  0.84067470
   0.74227185  0.74430199  0.89855401
   0.67721361  0.82579561  0.99361485
   0.67449825  0.82433116  0.17294473
   0.61561515  0.93136480  0.27023076
   0.49114319  0.99626500  0.33229540
   0.41182964  0.04867129  0.40072271
   0.34536291  0.15279862  0.47411791
   0.25367417  0.26210414  0.56017903
   0.17089893  0.34981938  0.66534173
   0.07950666  0.39644664  0.76636030
   0.01350391  0.48623643  0.83429923
   0.90114742  0.56749081  0.93196648
   0.81881880  0.66280504  0.00304119
   0.74471665  0.77507305  0.09618863
   0.34073256  0.32864892  0.67047403
   0.25772361  0.43249460  0.75020747
   0.17512719  0.50402080  0.83563124
   0.10106243  0.56659682  0.91859666
   0.01455354  0.66439347  0.00206955
   0.90675092  0.77156560  0.07811944
   0.83298086  0.85799192  0.17756007
   0.74456331  0.92512548  0.26591392
   0.67445370  0.99538298  0.36681611
   0.59262213  0.06657624  0.41390858
   0.46956636  0.13872098  0.49736096
   0.38916540  0.23720357  0.56082872
   0.41260335  0.24771888  0.73600197
   0.31996553  0.33789168  0.82882398
   0.24765253  0.41755818  0.92094615
   0.14626842  0.49575849  0.00033207
   0.08001996  0.58587841  0.07947869
   0.99127817  0.66655339  0.13853367
   0.90342766  0.76120737  0.24945176
   0.84251673  0.85477305  0.33683886
   0.77609621  0.90053537  0.43277119
   0.67997933  0.00612374  0.51360468
   0.56513516  0.07520142  0.60147130
   0.46053589  0.18148176  0.66225704
   0.47853580  0.16762505  0.82259335
   0.39460535  0.23726596  0.91888582
   0.32083151  0.33886433  0.99661924
   0.23604862  0.41625792  0.09869476
   0.15679672  0.50757279  0.16180479
   0.07968392  0.60530084  0.24821146
   0.00263407  0.69102133  0.32097136
   0.90955178  0.75366135  0.41235389
   0.84612816  0.84027679  0.51426140
   0.74434459  0.91037308  0.60743122
   0.64949695  0.01401897  0.66127735
   0.56006774  0.06993280  0.74549102
   0.59168817  0.09356322  0.90387614
   0.49915111  0.17053005  0.00898282
   0.43036523  0.27247604  0.08873826
   0.33941371  0.31338427  0.18154591
   0.25352865  0.40325626  0.25050207
   0.15191325  0.49981229  0.32899533
   0.08033584  0.59882776  0.42151322
   0.00247619  0.67745428  0.50910345
   0.92003105  0.73819491  0.58586564
   0.82540195  0.85523321  0.68167638
   0.73025171  0.90125642  0.74586641
   0.64719139  0.99678888  0.84168686
   0.66756880  0.01135568  0.95658046
   0.59637740  0.09105333  0.09879723
   0.48134460  0.16308677  0.15393104
   0.42362343  0.26079606  0.26668227
   0.34195728  0.32229744  0.34614385
   0.25890346  0.42717276  0.38742085
   0.15435830  0.49620777  0.48606661
   0.07166562  0.59643620  0.57457657
   0.99730677  0.65869271  0.67494609
   0.92106112  0.75098567  0.75206237
   0.82795828  0.82345019  0.84345162
   0.73609486  0.92090255  0.89515903
   0.74728797  0.92679380  0.06844826
   0.68789259  0.99902268  0.18185584
   0.60780763  0.07410871  0.27642823
   0.48111556  0.14377668  0.34497708
   0.41353380  0.24017249  0.40721560
   0.34055515  0.34370825  0.48148210
   0.24738615  0.42929253  0.58259127
   0.15327369  0.50904995  0.67918007
   0.08173895  0.57095326  0.74126643
   0.98907566  0.66364469  0.83924202
   0.91789983  0.73607563  0.92159482
   0.81961647  0.81936291  0.98952810
   0.43067373  0.41098385  0.58180114
   0.34308567  0.50315922  0.68603434
   0.24710439  0.58792389  0.73343989
   0.16915608  0.66808819  0.81599127
   0.08681992  0.74060240  0.90836882
   0.99969190  0.83425074  0.98486611
   0.90658615  0.92938869  0.07339415
   0.83901200  0.00436283  0.17216280
   0.75456881  0.08644119  0.26251056
   0.67891209  0.17006612  0.33928186
   0.58377615  0.23936624  0.41688407
   0.51098673  0.34437804  0.48857007
   0.49196823  0.31296201  0.64787564
   0.42842703  0.41822247  0.76521759
   0.35054630  0.51677900  0.82677612
   0.25497868  0.59469087  0.91172357
   0.15223657  0.67074962  0.99772762
   0.07647467  0.77989916  0.07202984
   0.00092084  0.82838638  0.15915467
   0.92774746  0.93231419  0.24592503
   0.84022109  0.99536817  0.34392416
   0.77019395  0.07987861  0.42960574
   0.65598649  0.15630172  0.50982098
   0.55717123  0.23776747  0.55635681
   0.56592701  0.24340327  0.71958386
   0.49795814  0.33274445  0.82584085
   0.39926675  0.41385500  0.91530320
   0.32281285  0.48716204  0.02131862
   0.24120246  0.57688593  0.06866070
   0.16157319  0.65961193  0.14614980
   0.08368007  0.76489161  0.22950566
   0.99637868  0.83914947  0.31736070
   0.91917571  0.91650732  0.42796524
   0.83886111  0.99035410  0.50876989
   0.75468777  0.08768745  0.59307504
   0.66413895  0.17489604  0.66572006
   0.65737136  0.17340815  0.82582187
   0.57012146  0.25427015  0.91406723
   0.48894365  0.35250764  0.97835524
   0.38909494  0.39928323  0.10595302
   0.32412581  0.49053470  0.16450332
   0.22780228  0.57878143  0.25402818
   0.16349488  0.67634085  0.31692582
   0.07279068  0.75293509  0.39314656
   0.01220163  0.82964828  0.48569666
   0.93407510  0.92765602  0.59224533
   0.82230257  0.99483820  0.67467503
   0.72581197  0.09329569  0.75459670
   0.76608270  0.09487017  0.90590770
   0.66324746  0.16981926  0.01386703
   0.58240960  0.25868257  0.09522314
   0.49563572  0.34920758  0.18424093
   0.41957119  0.42039357  0.26201410
   0.33464714  0.52887140  0.31930586
   0.24453345  0.58903487  0.41453684
   0.16203578  0.68184803  0.49240964
   0.08418323  0.74733227  0.57208093
   0.99601832  0.83395063  0.65730531
   0.91247422  0.91351686  0.76144488
   0.81473786  0.00699540  0.82000889
   0.81597821  0.99604395  0.97920864
   0.76352675  0.10172296  0.10152796
   0.67944074  0.15940876  0.18249310
   0.56370279  0.22408290  0.24633284
   0.50271228  0.34139105  0.34209519
   0.40706338  0.44226245  0.41486529
   0.34459667  0.49773195  0.48160795
   0.23486597  0.56972673  0.57288787
   0.16121627  0.67277046  0.65041941
   0.07643573  0.72389864  0.74784180
   0.98928358  0.81255659  0.82285387
   0.92845902  0.92864329  0.91080400
