 504 504   0   0
  0.2235424E+02  0.2214114E-08  0.2191405E-08  0.2322030E-08  0.5000000E-15
  1.000000000000000E-004
  CAR 
 Li                                      
      2.93656584     -3.54196563  301      0.13928392      1.00000000
     -3.542  0.0000E+00  0.0000E+00
     -3.520  0.0000E+00  0.0000E+00
     -3.499  0.0000E+00  0.0000E+00
     -3.477  0.0000E+00  0.0000E+00
     -3.456  0.0000E+00  0.0000E+00
     -3.434  0.0000E+00  0.0000E+00
     -3.412  0.4113E-13  0.8882E-15
     -3.391  0.1017E-09  0.2198E-11
     -3.369  0.8941E-07  0.1933E-08
     -3.348  0.2855E-04  0.6185E-06
     -3.326  0.3337E-02  0.7268E-04
     -3.304  0.1441E+00  0.3184E-02
     -3.283  0.2327E+01  0.5344E-01
     -3.261  0.1424E+02  0.3610E+00
     -3.240  0.3345E+02  0.1083E+01
     -3.218  0.3038E+02  0.1739E+01
     -3.196  0.1166E+02  0.1991E+01
     -3.175  0.1054E+02  0.2219E+01
     -3.153  0.3417E+02  0.2957E+01
     -3.132  0.6641E+02  0.4391E+01
     -3.110  0.8254E+02  0.6174E+01
     -3.088  0.6045E+02  0.7479E+01
     -3.067  0.2388E+02  0.7995E+01
     -3.045  0.2199E+02  0.8469E+01
     -3.024  0.5638E+02  0.9687E+01
     -3.002  0.8533E+02  0.1153E+02
     -2.980  0.7337E+02  0.1311E+02
     -2.959  0.4132E+02  0.1401E+02
     -2.937  0.3709E+02  0.1481E+02
     -2.916  0.6173E+02  0.1614E+02
     -2.894  0.9227E+02  0.1813E+02
     -2.873  0.1003E+03  0.2030E+02
     -2.851  0.6525E+02  0.2171E+02
     -2.829  0.4840E+02  0.2275E+02
     -2.808  0.8539E+02  0.2460E+02
     -2.786  0.1207E+03  0.2720E+02
     -2.765  0.1266E+03  0.2994E+02
     -2.743  0.1072E+03  0.3225E+02
     -2.721  0.6514E+02  0.3366E+02
     -2.700  0.4264E+02  0.3458E+02
     -2.678  0.6363E+02  0.3595E+02
     -2.657  0.8782E+02  0.3785E+02
     -2.635  0.7754E+02  0.3952E+02
     -2.613  0.5892E+02  0.4080E+02
     -2.592  0.6782E+02  0.4226E+02
     -2.570  0.9074E+02  0.4422E+02
     -2.549  0.1121E+03  0.4664E+02
     -2.527  0.1230E+03  0.4930E+02
     -2.505  0.1176E+03  0.5184E+02
     -2.484  0.1081E+03  0.5417E+02
     -2.462  0.1123E+03  0.5660E+02
     -2.441  0.1371E+03  0.5956E+02
     -2.419  0.1629E+03  0.6308E+02
     -2.397  0.1567E+03  0.6646E+02
     -2.376  0.1201E+03  0.6905E+02
     -2.354  0.8120E+02  0.7081E+02
     -2.333  0.5863E+02  0.7207E+02
     -2.311  0.6028E+02  0.7338E+02
     -2.289  0.7253E+02  0.7494E+02
     -2.268  0.7808E+02  0.7663E+02
     -2.246  0.9499E+02  0.7868E+02
     -2.225  0.1209E+03  0.8129E+02
     -2.203  0.1374E+03  0.8426E+02
     -2.181  0.1420E+03  0.8732E+02
     -2.160  0.1345E+03  0.9023E+02
     -2.138  0.1261E+03  0.9295E+02
     -2.117  0.1242E+03  0.9563E+02
     -2.095  0.1355E+03  0.9856E+02
     -2.073  0.1615E+03  0.1020E+03
     -2.052  0.1750E+03  0.1058E+03
     -2.030  0.1538E+03  0.1091E+03
     -2.009  0.9994E+02  0.1113E+03
     -1.987  0.6472E+02  0.1127E+03
     -1.966  0.8831E+02  0.1146E+03
     -1.944  0.1280E+03  0.1174E+03
     -1.922  0.1414E+03  0.1204E+03
     -1.901  0.1359E+03  0.1234E+03
     -1.879  0.1384E+03  0.1264E+03
     -1.858  0.1526E+03  0.1296E+03
     -1.836  0.1672E+03  0.1333E+03
     -1.814  0.1767E+03  0.1371E+03
     -1.793  0.1647E+03  0.1406E+03
     -1.771  0.1400E+03  0.1437E+03
     -1.750  0.1368E+03  0.1466E+03
     -1.728  0.1484E+03  0.1498E+03
     -1.706  0.1590E+03  0.1532E+03
     -1.685  0.1542E+03  0.1566E+03
     -1.663  0.1274E+03  0.1593E+03
     -1.642  0.1015E+03  0.1615E+03
     -1.620  0.1030E+03  0.1637E+03
     -1.598  0.1181E+03  0.1663E+03
     -1.577  0.1218E+03  0.1689E+03
     -1.555  0.1238E+03  0.1716E+03
     -1.534  0.1378E+03  0.1746E+03
     -1.512  0.1537E+03  0.1779E+03
     -1.490  0.1647E+03  0.1814E+03
     -1.469  0.1698E+03  0.1851E+03
     -1.447  0.1716E+03  0.1888E+03
     -1.426  0.1695E+03  0.1925E+03
     -1.404  0.1698E+03  0.1961E+03
     -1.382  0.1866E+03  0.2002E+03
     -1.361  0.2070E+03  0.2046E+03
     -1.339  0.2141E+03  0.2093E+03
     -1.318  0.2157E+03  0.2139E+03
     -1.296  0.2009E+03  0.2183E+03
     -1.274  0.1727E+03  0.2220E+03
     -1.253  0.1523E+03  0.2253E+03
     -1.231  0.1417E+03  0.2283E+03
     -1.210  0.1286E+03  0.2311E+03
     -1.188  0.1198E+03  0.2337E+03
     -1.167  0.1347E+03  0.2366E+03
     -1.145  0.1622E+03  0.2401E+03
     -1.123  0.1726E+03  0.2438E+03
     -1.102  0.1690E+03  0.2475E+03
     -1.080  0.1741E+03  0.2513E+03
     -1.059  0.1917E+03  0.2554E+03
     -1.037  0.2036E+03  0.2598E+03
     -1.015  0.1952E+03  0.2640E+03
     -0.994  0.1713E+03  0.2677E+03
     -0.972  0.1482E+03  0.2709E+03
     -0.951  0.1495E+03  0.2741E+03
     -0.929  0.1669E+03  0.2777E+03
     -0.907  0.1733E+03  0.2815E+03
     -0.886  0.1628E+03  0.2850E+03
     -0.864  0.1509E+03  0.2883E+03
     -0.843  0.1631E+03  0.2918E+03
     -0.821  0.1969E+03  0.2960E+03
     -0.799  0.2259E+03  0.3009E+03
     -0.778  0.2332E+03  0.3059E+03
     -0.756  0.2226E+03  0.3108E+03
     -0.735  0.2131E+03  0.3154E+03
     -0.713  0.2157E+03  0.3200E+03
     -0.691  0.2227E+03  0.3248E+03
     -0.670  0.2266E+03  0.3297E+03
     -0.648  0.2181E+03  0.3344E+03
     -0.627  0.1988E+03  0.3387E+03
     -0.605  0.1747E+03  0.3425E+03
     -0.583  0.1673E+03  0.3461E+03
     -0.562  0.1738E+03  0.3499E+03
     -0.540  0.1761E+03  0.3537E+03
     -0.519  0.1847E+03  0.3576E+03
     -0.497  0.1987E+03  0.3619E+03
     -0.475  0.2065E+03  0.3664E+03
     -0.454  0.2071E+03  0.3709E+03
     -0.432  0.2003E+03  0.3752E+03
     -0.411  0.2001E+03  0.3795E+03
     -0.389  0.2120E+03  0.3841E+03
     -0.367  0.2206E+03  0.3889E+03
     -0.346  0.2279E+03  0.3938E+03
     -0.324  0.2351E+03  0.3989E+03
     -0.303  0.2363E+03  0.4040E+03
     -0.281  0.2400E+03  0.4091E+03
     -0.260  0.2400E+03  0.4143E+03
     -0.238  0.2287E+03  0.4193E+03
     -0.216  0.2219E+03  0.4241E+03
     -0.195  0.2159E+03  0.4287E+03
     -0.173  0.2091E+03  0.4332E+03
     -0.152  0.2048E+03  0.4377E+03
     -0.130  0.2058E+03  0.4421E+03
     -0.108  0.2123E+03  0.4467E+03
     -0.087  0.2088E+03  0.4512E+03
     -0.065  0.2080E+03  0.4557E+03
     -0.044  0.2118E+03  0.4603E+03
     -0.022  0.2130E+03  0.4649E+03
     -0.000  0.2252E+03  0.4697E+03
      0.021  0.2241E+03  0.4746E+03
      0.043  0.2164E+03  0.4792E+03
      0.064  0.2307E+03  0.4842E+03
      0.086  0.2523E+03  0.4897E+03
      0.108  0.2655E+03  0.4954E+03
      0.129  0.2711E+03  0.5013E+03
      0.151  0.2729E+03  0.5071E+03
      0.172  0.2710E+03  0.5130E+03
      0.194  0.2620E+03  0.5187E+03
      0.216  0.2695E+03  0.5245E+03
      0.237  0.2889E+03  0.5307E+03
      0.259  0.2884E+03  0.5369E+03
      0.280  0.2821E+03  0.5430E+03
      0.302  0.2752E+03  0.5490E+03
      0.324  0.2561E+03  0.5545E+03
      0.345  0.2492E+03  0.5599E+03
      0.367  0.2609E+03  0.5655E+03
      0.388  0.2659E+03  0.5713E+03
      0.410  0.2606E+03  0.5769E+03
      0.432  0.2465E+03  0.5822E+03
      0.453  0.2266E+03  0.5871E+03
      0.475  0.2125E+03  0.5917E+03
      0.496  0.2084E+03  0.5962E+03
      0.518  0.2123E+03  0.6008E+03
      0.540  0.2165E+03  0.6055E+03
      0.561  0.2247E+03  0.6103E+03
      0.583  0.2288E+03  0.6153E+03
      0.604  0.2230E+03  0.6201E+03
      0.626  0.2273E+03  0.6250E+03
      0.647  0.2326E+03  0.6300E+03
      0.669  0.2265E+03  0.6349E+03
      0.691  0.2239E+03  0.6397E+03
      0.712  0.2336E+03  0.6448E+03
      0.734  0.2429E+03  0.6500E+03
      0.755  0.2422E+03  0.6552E+03
      0.777  0.2398E+03  0.6604E+03
      0.799  0.2385E+03  0.6656E+03
      0.820  0.2355E+03  0.6707E+03
      0.842  0.2475E+03  0.6760E+03
      0.863  0.2512E+03  0.6814E+03
      0.885  0.2343E+03  0.6865E+03
      0.907  0.2278E+03  0.6914E+03
      0.928  0.2251E+03  0.6963E+03
      0.950  0.2198E+03  0.7010E+03
      0.971  0.2289E+03  0.7060E+03
      0.993  0.2331E+03  0.7110E+03
      1.015  0.2208E+03  0.7158E+03
      1.036  0.2186E+03  0.7205E+03
      1.058  0.2267E+03  0.7254E+03
      1.079  0.2210E+03  0.7302E+03
      1.101  0.2174E+03  0.7348E+03
      1.123  0.2150E+03  0.7395E+03
      1.144  0.2123E+03  0.7441E+03
      1.166  0.2165E+03  0.7487E+03
      1.187  0.2254E+03  0.7536E+03
      1.209  0.2356E+03  0.7587E+03
      1.231  0.2319E+03  0.7637E+03
      1.252  0.2233E+03  0.7685E+03
      1.274  0.2218E+03  0.7733E+03
      1.295  0.2203E+03  0.7781E+03
      1.317  0.2221E+03  0.7829E+03
      1.339  0.2237E+03  0.7877E+03
      1.360  0.2169E+03  0.7924E+03
      1.382  0.2167E+03  0.7971E+03
      1.403  0.2346E+03  0.8021E+03
      1.425  0.2406E+03  0.8073E+03
      1.447  0.2243E+03  0.8122E+03
      1.468  0.2079E+03  0.8167E+03
      1.490  0.1937E+03  0.8208E+03
      1.511  0.1979E+03  0.8251E+03
      1.533  0.2128E+03  0.8297E+03
      1.554  0.2144E+03  0.8343E+03
      1.576  0.2143E+03  0.8390E+03
      1.598  0.2181E+03  0.8437E+03
      1.619  0.2127E+03  0.8483E+03
      1.641  0.2025E+03  0.8527E+03
      1.662  0.1975E+03  0.8569E+03
      1.684  0.1962E+03  0.8612E+03
      1.706  0.2005E+03  0.8655E+03
      1.727  0.2020E+03  0.8698E+03
      1.749  0.1914E+03  0.8740E+03
      1.770  0.1844E+03  0.8780E+03
      1.792  0.1863E+03  0.8820E+03
      1.814  0.1876E+03  0.8860E+03
      1.835  0.1867E+03  0.8901E+03
      1.857  0.1866E+03  0.8941E+03
      1.878  0.1786E+03  0.8980E+03
      1.900  0.1676E+03  0.9016E+03
      1.922  0.1701E+03  0.9052E+03
      1.943  0.1830E+03  0.9092E+03
      1.965  0.1802E+03  0.9131E+03
      1.986  0.1599E+03  0.9165E+03
      2.008  0.1513E+03  0.9198E+03
      2.030  0.1587E+03  0.9232E+03
      2.051  0.1711E+03  0.9269E+03
      2.073  0.1796E+03  0.9308E+03
      2.094  0.1691E+03  0.9345E+03
      2.116  0.1546E+03  0.9378E+03
      2.138  0.1507E+03  0.9411E+03
      2.159  0.1541E+03  0.9444E+03
      2.181  0.1633E+03  0.9479E+03
      2.202  0.1698E+03  0.9516E+03
      2.224  0.1599E+03  0.9550E+03
      2.246  0.1484E+03  0.9582E+03
      2.267  0.1500E+03  0.9615E+03
      2.289  0.1519E+03  0.9648E+03
      2.310  0.1522E+03  0.9680E+03
      2.332  0.1520E+03  0.9713E+03
      2.353  0.1433E+03  0.9744E+03
      2.375  0.1420E+03  0.9775E+03
      2.397  0.1450E+03  0.9806E+03
      2.418  0.1432E+03  0.9837E+03
      2.440  0.1427E+03  0.9868E+03
      2.461  0.1344E+03  0.9897E+03
      2.483  0.1234E+03  0.9924E+03
      2.505  0.1195E+03  0.9949E+03
      2.526  0.1215E+03  0.9976E+03
      2.548  0.1292E+03  0.1000E+04
      2.569  0.1296E+03  0.1003E+04
      2.591  0.1213E+03  0.1006E+04
      2.613  0.9778E+02  0.1008E+04
      2.634  0.6237E+02  0.1009E+04
      2.656  0.2792E+02  0.1010E+04
      2.677  0.7128E+01  0.1010E+04
      2.699  0.8727E+00  0.1010E+04
      2.721  0.4596E-01  0.1010E+04
      2.742  0.9726E-03  0.1010E+04
      2.764  0.7921E-05  0.1010E+04
      2.785  0.2416E-07  0.1010E+04
      2.807  0.2712E-10  0.1010E+04
      2.829  0.1028E-13  0.1010E+04
      2.850  0.0000E+00  0.1010E+04
      2.872  0.0000E+00  0.1010E+04
      2.893  0.0000E+00  0.1010E+04
      2.915  0.0000E+00  0.1010E+04
      2.937  0.0000E+00  0.1010E+04
