       N       E                     dE             d eps       ncg     rms          rms(c)
DAV:   1    -0.284882230712E+03   -0.28488E+03   -0.11905E+05  4040   0.647E+02
DAV:   2    -0.867587831243E+03   -0.58271E+03   -0.53210E+03  4644   0.650E+01
DAV:   3    -0.911239246342E+03   -0.43651E+02   -0.40068E+02  5272   0.140E+01
DAV:   4    -0.912792553120E+03   -0.15533E+01   -0.15301E+01  4800   0.289E+00
DAV:   5    -0.912830710504E+03   -0.38157E-01   -0.38083E-01  5000   0.475E-01    0.114E+01
DAV:   6    -0.916285406725E+03   -0.34547E+01   -0.16148E+01  4928   0.675E+00    0.111E+01
DAV:   7    -0.896422421639E+03    0.19863E+02   -0.15436E+01  5224   0.588E+00    0.571E+00
DAV:   8    -0.893388844107E+03    0.30336E+01   -0.10038E+01  4848   0.314E+00    0.346E+00
DAV:   9    -0.893181787568E+03    0.20706E+00   -0.49860E+00  4776   0.223E+00    0.272E+00
DAV:  10    -0.892283184303E+03    0.89860E+00   -0.22478E+00  4760   0.148E+00    0.134E+00
DAV:  11    -0.892204797236E+03    0.78387E-01   -0.64546E-01  4448   0.641E-01    0.760E-01
DAV:  12    -0.892231623031E+03   -0.26826E-01   -0.15348E-01  4992   0.434E-01    0.688E-01
DAV:  13    -0.892177287651E+03    0.54335E-01   -0.75280E-02  4920   0.315E-01    0.314E-01
DAV:  14    -0.892176961651E+03    0.32600E-03   -0.27766E-02  4656   0.155E-01    0.199E-01
DAV:  15    -0.892177395820E+03   -0.43417E-03   -0.12093E-02  4808   0.120E-01    0.165E-01
DAV:  16    -0.892174179266E+03    0.32166E-02   -0.47396E-03  4800   0.769E-02    0.733E-02
DAV:  17    -0.892173992761E+03    0.18651E-03   -0.15442E-03  4448   0.335E-02    0.357E-02
DAV:  18    -0.892174000459E+03   -0.76984E-05   -0.35171E-04  4800   0.203E-02    0.273E-02
DAV:  19    -0.892173947921E+03    0.52538E-04   -0.14402E-04  4776   0.149E-02    0.177E-02
DAV:  20    -0.892173912571E+03    0.35350E-04   -0.57534E-05  4648   0.849E-03    0.792E-03
DAV:  21    -0.892173908870E+03    0.37011E-05   -0.29506E-05  3136   0.435E-03
   1 F= -.89217391E+03 E0= -.89211250E+03  d E =-.122820E+00
