 432 432   0   0
  0.2356206E+02  0.2167200E-08  0.2167200E-08  0.2167200E-08  0.5000000E-15
  1.000000000000000E-004
  CAR 
 Li                                      
      2.97171825     -3.59217235  301      0.04445014      1.00000000
     -3.592  0.0000E+00  0.0000E+00
     -3.570  0.0000E+00  0.0000E+00
     -3.548  0.0000E+00  0.0000E+00
     -3.527  0.0000E+00  0.0000E+00
     -3.505  0.0000E+00  0.0000E+00
     -3.483  0.0000E+00  0.0000E+00
     -3.461  0.8119E-13  0.1776E-14
     -3.439  0.2000E-09  0.4379E-11
     -3.417  0.1732E-06  0.3793E-08
     -3.395  0.5306E-04  0.1165E-05
     -3.373  0.5800E-02  0.1281E-03
     -3.351  0.2286E+00  0.5130E-02
     -3.330  0.3293E+01  0.7718E-01
     -3.308  0.1758E+02  0.4618E+00
     -3.286  0.3522E+02  0.1232E+01
     -3.264  0.2665E+02  0.1816E+01
     -3.242  0.7693E+01  0.1984E+01
     -3.220  0.3098E+01  0.2052E+01
     -3.198  0.2051E+02  0.2500E+01
     -3.176  0.7226E+02  0.4082E+01
     -3.155  0.1030E+03  0.6335E+01
     -3.133  0.6020E+02  0.7652E+01
     -3.111  0.1473E+02  0.7975E+01
     -3.089  0.6422E+01  0.8115E+01
     -3.067  0.3340E+02  0.8846E+01
     -3.045  0.8856E+02  0.1078E+02
     -3.023  0.9594E+02  0.1288E+02
     -3.001  0.4279E+02  0.1382E+02
     -2.980  0.9281E+01  0.1402E+02
     -2.958  0.1623E+02  0.1438E+02
     -2.936  0.6749E+02  0.1585E+02
     -2.914  0.1269E+03  0.1863E+02
     -2.892  0.1071E+03  0.2097E+02
     -2.870  0.4050E+02  0.2186E+02
     -2.848  0.1238E+02  0.2213E+02
     -2.826  0.4105E+02  0.2303E+02
     -2.805  0.1260E+03  0.2578E+02
     -2.783  0.1865E+03  0.2986E+02
     -2.761  0.1346E+03  0.3281E+02
     -2.739  0.4680E+02  0.3383E+02
     -2.717  0.1173E+02  0.3409E+02
     -2.695  0.2987E+02  0.3474E+02
     -2.673  0.8216E+02  0.3654E+02
     -2.651  0.9725E+02  0.3867E+02
     -2.629  0.4940E+02  0.3975E+02
     -2.608  0.1354E+02  0.4005E+02
     -2.586  0.2659E+02  0.4063E+02
     -2.564  0.9719E+02  0.4275E+02
     -2.542  0.1736E+03  0.4655E+02
     -2.520  0.1576E+03  0.5000E+02
     -2.498  0.7461E+02  0.5163E+02
     -2.476  0.3048E+02  0.5230E+02
     -2.454  0.6989E+02  0.5383E+02
     -2.433  0.1688E+03  0.5752E+02
     -2.411  0.2387E+03  0.6274E+02
     -2.389  0.2032E+03  0.6719E+02
     -2.367  0.9978E+02  0.6937E+02
     -2.345  0.2897E+02  0.7001E+02
     -2.323  0.2803E+02  0.7062E+02
     -2.301  0.7476E+02  0.7226E+02
     -2.279  0.9702E+02  0.7438E+02
     -2.258  0.5744E+02  0.7564E+02
     -2.236  0.2082E+02  0.7609E+02
     -2.214  0.3688E+02  0.7690E+02
     -2.192  0.1079E+03  0.7926E+02
     -2.170  0.1863E+03  0.8334E+02
     -2.148  0.1844E+03  0.8737E+02
     -2.126  0.9601E+02  0.8947E+02
     -2.104  0.3551E+02  0.9025E+02
     -2.082  0.6544E+02  0.9168E+02
     -2.061  0.1602E+03  0.9518E+02
     -2.039  0.2349E+03  0.1003E+03
     -2.017  0.2089E+03  0.1049E+03
     -1.995  0.1088E+03  0.1073E+03
     -1.973  0.3878E+02  0.1081E+03
     -1.951  0.5230E+02  0.1093E+03
     -1.929  0.1266E+03  0.1120E+03
     -1.907  0.1749E+03  0.1159E+03
     -1.886  0.1312E+03  0.1187E+03
     -1.864  0.5790E+02  0.1200E+03
     -1.842  0.5696E+02  0.1212E+03
     -1.820  0.1365E+03  0.1242E+03
     -1.798  0.2218E+03  0.1291E+03
     -1.776  0.2257E+03  0.1340E+03
     -1.754  0.1354E+03  0.1370E+03
     -1.732  0.5334E+02  0.1381E+03
     -1.711  0.6900E+02  0.1397E+03
     -1.689  0.1691E+03  0.1434E+03
     -1.667  0.2497E+03  0.1488E+03
     -1.645  0.2084E+03  0.1534E+03
     -1.623  0.9595E+02  0.1555E+03
     -1.601  0.3386E+02  0.1562E+03
     -1.579  0.5722E+02  0.1575E+03
     -1.557  0.1295E+03  0.1603E+03
     -1.535  0.1687E+03  0.1640E+03
     -1.514  0.1249E+03  0.1667E+03
     -1.492  0.5129E+02  0.1679E+03
     -1.470  0.2960E+02  0.1685E+03
     -1.448  0.7791E+02  0.1702E+03
     -1.426  0.1499E+03  0.1735E+03
     -1.404  0.1636E+03  0.1771E+03
     -1.382  0.1078E+03  0.1794E+03
     -1.360  0.8631E+02  0.1813E+03
     -1.339  0.1676E+03  0.1850E+03
     -1.317  0.2712E+03  0.1909E+03
     -1.295  0.3203E+03  0.1979E+03
     -1.273  0.2950E+03  0.2044E+03
     -1.251  0.1871E+03  0.2085E+03
     -1.229  0.9643E+02  0.2106E+03
     -1.207  0.1253E+03  0.2133E+03
     -1.185  0.2081E+03  0.2179E+03
     -1.164  0.2274E+03  0.2228E+03
     -1.142  0.1592E+03  0.2263E+03
     -1.120  0.6910E+02  0.2278E+03
     -1.098  0.4548E+02  0.2288E+03
     -1.076  0.1047E+03  0.2311E+03
     -1.054  0.1839E+03  0.2352E+03
     -1.032  0.1847E+03  0.2392E+03
     -1.010  0.1029E+03  0.2414E+03
     -0.988  0.5749E+02  0.2427E+03
     -0.967  0.1239E+03  0.2454E+03
     -0.945  0.2466E+03  0.2508E+03
     -0.923  0.3054E+03  0.2575E+03
     -0.901  0.2442E+03  0.2628E+03
     -0.879  0.1358E+03  0.2658E+03
     -0.857  0.9752E+02  0.2679E+03
     -0.835  0.1013E+03  0.2702E+03
     -0.813  0.6393E+02  0.2716E+03
     -0.792  0.2469E+02  0.2721E+03
     -0.770  0.4394E+02  0.2731E+03
     -0.748  0.1332E+03  0.2760E+03
     -0.726  0.2407E+03  0.2812E+03
     -0.704  0.2862E+03  0.2875E+03
     -0.682  0.2550E+03  0.2931E+03
     -0.660  0.1969E+03  0.2974E+03
     -0.638  0.1559E+03  0.3008E+03
     -0.617  0.1488E+03  0.3041E+03
     -0.595  0.1975E+03  0.3084E+03
     -0.573  0.2671E+03  0.3142E+03
     -0.551  0.3039E+03  0.3209E+03
     -0.529  0.2757E+03  0.3269E+03
     -0.507  0.1761E+03  0.3308E+03
     -0.485  0.1016E+03  0.3330E+03
     -0.463  0.1144E+03  0.3355E+03
     -0.442  0.1387E+03  0.3385E+03
     -0.420  0.1347E+03  0.3415E+03
     -0.398  0.1087E+03  0.3438E+03
     -0.376  0.1253E+03  0.3466E+03
     -0.354  0.2194E+03  0.3514E+03
     -0.332  0.3008E+03  0.3580E+03
     -0.310  0.3214E+03  0.3650E+03
     -0.288  0.3033E+03  0.3716E+03
     -0.266  0.2361E+03  0.3768E+03
     -0.245  0.1396E+03  0.3799E+03
     -0.223  0.1247E+03  0.3826E+03
     -0.201  0.1961E+03  0.3869E+03
     -0.179  0.2446E+03  0.3922E+03
     -0.157  0.2392E+03  0.3975E+03
     -0.135  0.1871E+03  0.4015E+03
     -0.113  0.1173E+03  0.4041E+03
     -0.091  0.1066E+03  0.4064E+03
     -0.070  0.1300E+03  0.4093E+03
     -0.048  0.1556E+03  0.4127E+03
     -0.026  0.2050E+03  0.4172E+03
     -0.004  0.2265E+03  0.4221E+03
      0.018  0.2114E+03  0.4268E+03
      0.040  0.1972E+03  0.4311E+03
      0.062  0.2093E+03  0.4357E+03
      0.084  0.2380E+03  0.4409E+03
      0.105  0.2556E+03  0.4465E+03
      0.127  0.2546E+03  0.4520E+03
      0.149  0.2335E+03  0.4571E+03
      0.171  0.1902E+03  0.4613E+03
      0.193  0.1506E+03  0.4646E+03
      0.215  0.1629E+03  0.4682E+03
      0.237  0.1972E+03  0.4725E+03
      0.259  0.2047E+03  0.4770E+03
      0.281  0.2164E+03  0.4817E+03
      0.302  0.2491E+03  0.4871E+03
      0.324  0.2809E+03  0.4933E+03
      0.346  0.3024E+03  0.4999E+03
      0.368  0.3049E+03  0.5066E+03
      0.390  0.2905E+03  0.5129E+03
      0.412  0.2862E+03  0.5192E+03
      0.434  0.2949E+03  0.5256E+03
      0.456  0.2972E+03  0.5321E+03
      0.477  0.2837E+03  0.5383E+03
      0.499  0.2718E+03  0.5443E+03
      0.521  0.2597E+03  0.5500E+03
      0.543  0.2441E+03  0.5553E+03
      0.565  0.2311E+03  0.5604E+03
      0.587  0.2253E+03  0.5653E+03
      0.609  0.2358E+03  0.5705E+03
      0.631  0.2467E+03  0.5759E+03
      0.652  0.2543E+03  0.5814E+03
      0.674  0.2517E+03  0.5869E+03
      0.696  0.2486E+03  0.5924E+03
      0.718  0.2596E+03  0.5980E+03
      0.740  0.2649E+03  0.6038E+03
      0.762  0.2572E+03  0.6095E+03
      0.784  0.2353E+03  0.6146E+03
      0.806  0.1926E+03  0.6188E+03
      0.828  0.1590E+03  0.6223E+03
      0.849  0.1712E+03  0.6261E+03
      0.871  0.2136E+03  0.6307E+03
      0.893  0.2418E+03  0.6360E+03
      0.915  0.2475E+03  0.6414E+03
      0.937  0.2270E+03  0.6464E+03
      0.959  0.1644E+03  0.6500E+03
      0.981  0.9064E+02  0.6520E+03
      1.003  0.8888E+02  0.6539E+03
      1.024  0.1461E+03  0.6571E+03
      1.046  0.1635E+03  0.6607E+03
      1.068  0.1286E+03  0.6635E+03
      1.090  0.1091E+03  0.6659E+03
      1.112  0.1427E+03  0.6690E+03
      1.134  0.1880E+03  0.6731E+03
      1.156  0.2112E+03  0.6778E+03
      1.178  0.2173E+03  0.6825E+03
      1.199  0.2191E+03  0.6873E+03
      1.221  0.2033E+03  0.6918E+03
      1.243  0.1695E+03  0.6955E+03
      1.265  0.1425E+03  0.6986E+03
      1.287  0.1476E+03  0.7018E+03
      1.309  0.1874E+03  0.7059E+03
      1.331  0.2287E+03  0.7109E+03
      1.353  0.2354E+03  0.7161E+03
      1.375  0.2050E+03  0.7206E+03
      1.396  0.1709E+03  0.7243E+03
      1.418  0.1815E+03  0.7283E+03
      1.440  0.2154E+03  0.7330E+03
      1.462  0.2263E+03  0.7379E+03
      1.484  0.2172E+03  0.7427E+03
      1.506  0.2053E+03  0.7472E+03
      1.528  0.1845E+03  0.7512E+03
      1.550  0.1613E+03  0.7547E+03
      1.571  0.1563E+03  0.7582E+03
      1.593  0.1651E+03  0.7618E+03
      1.615  0.1712E+03  0.7655E+03
      1.637  0.1652E+03  0.7691E+03
      1.659  0.1481E+03  0.7724E+03
      1.681  0.1416E+03  0.7755E+03
      1.703  0.1411E+03  0.7786E+03
      1.725  0.1231E+03  0.7812E+03
      1.746  0.8928E+02  0.7832E+03
      1.768  0.7273E+02  0.7848E+03
      1.790  0.1014E+03  0.7870E+03
      1.812  0.1263E+03  0.7898E+03
      1.834  0.1168E+03  0.7923E+03
      1.856  0.9146E+02  0.7943E+03
      1.878  0.5436E+02  0.7955E+03
      1.900  0.1884E+02  0.7959E+03
      1.921  0.5115E+01  0.7960E+03
      1.943  0.1743E+02  0.7964E+03
      1.965  0.6146E+02  0.7978E+03
      1.987  0.9810E+02  0.7999E+03
      2.009  0.7025E+02  0.8015E+03
      2.031  0.2197E+02  0.8019E+03
      2.053  0.2916E+01  0.8020E+03
      2.075  0.1137E+01  0.8020E+03
      2.097  0.8702E+01  0.8022E+03
      2.118  0.3430E+02  0.8030E+03
      2.140  0.6882E+02  0.8045E+03
      2.162  0.9231E+02  0.8065E+03
      2.184  0.1085E+03  0.8089E+03
      2.206  0.1114E+03  0.8113E+03
      2.228  0.1121E+03  0.8138E+03
      2.250  0.1244E+03  0.8165E+03
      2.272  0.1297E+03  0.8193E+03
      2.293  0.1320E+03  0.8222E+03
      2.315  0.1451E+03  0.8254E+03
      2.337  0.1571E+03  0.8288E+03
      2.359  0.1686E+03  0.8325E+03
      2.381  0.1712E+03  0.8362E+03
      2.403  0.1499E+03  0.8395E+03
      2.425  0.1113E+03  0.8420E+03
      2.447  0.9738E+02  0.8441E+03
      2.468  0.9333E+02  0.8461E+03
      2.490  0.6244E+02  0.8475E+03
      2.512  0.3408E+02  0.8482E+03
      2.534  0.4523E+02  0.8492E+03
      2.556  0.7559E+02  0.8509E+03
      2.578  0.9765E+02  0.8530E+03
      2.600  0.1252E+03  0.8558E+03
      2.622  0.1504E+03  0.8591E+03
      2.644  0.1402E+03  0.8621E+03
      2.665  0.1027E+03  0.8644E+03
      2.687  0.5517E+02  0.8656E+03
      2.709  0.1686E+02  0.8659E+03
      2.731  0.2360E+01  0.8660E+03
      2.753  0.1346E+00  0.8660E+03
      2.775  0.2952E-02  0.8660E+03
      2.797  0.2407E-04  0.8660E+03
      2.819  0.7155E-07  0.8660E+03
      2.840  0.7657E-10  0.8660E+03
      2.862  0.2537E-13  0.8660E+03
      2.884  0.0000E+00  0.8660E+03
      2.906  0.0000E+00  0.8660E+03
      2.928  0.0000E+00  0.8660E+03
      2.950  0.0000E+00  0.8660E+03
      2.972  0.0000E+00  0.8660E+03
