 running on   64 total cores
 distrk:  each k-point on   32 cores,    2 groups
 distr:  one band on   32 cores,    1 groups
 vasp.6.2.1 16May21 (build Nov 23 2021 15:40:41) complex                        
  
 POSCAR found type information on POSCAR Li
 POSCAR found :  1 types and     432 ions
 scaLAPACK will be used
 -----------------------------------------------------------------------------
|                                                                             |
|           W    W    AA    RRRRR   N    N  II  N    N   GGGG   !!!           |
|           W    W   A  A   R    R  NN   N  II  NN   N  G    G  !!!           |
|           W    W  A    A  R    R  N N  N  II  N N  N  G       !!!           |
|           W WW W  AAAAAA  RRRRR   N  N N  II  N  N N  G  GGG   !            |
|           WW  WW  A    A  R   R   N   NN  II  N   NN  G    G                |
|           W    W  A    A  R    R  N    N  II  N    N   GGGG   !!!           |
|                                                                             |
|     For optimal performance we recommend to set                             |
|       NCORE = 2 up to number-of-cores-per-socket                            |
|     NCORE specifies how many cores store one orbital (NPAR=cpu/NCORE).      |
|     This setting can greatly improve the performance of VASP for DFT.       |
|     The default, NCORE=1 might be grossly inefficient on modern             |
|     multi-core architectures or massively parallel machines. Do your        |
|     own testing! More info at https://www.vasp.at/wiki/index.php/NCORE      |
|     Unfortunately you need to use the default for GW and RPA                |
|     calculations (for HF NCORE is supported but not extensively tested      |
|     yet).                                                                   |
|                                                                             |
 -----------------------------------------------------------------------------

 -----------------------------------------------------------------------------
|                                                                             |
|               ----> ADVICE to this user running VASP <----                  |
|                                                                             |
|     You have a (more or less) 'large supercell' and for larger cells it     |
|     might be more efficient to use real-space projection operators.         |
|     Therefore, try LREAL= Auto in the INCAR file.                           |
|     Mind: If you want to do very accurate calculations, keep the            |
|     reciprocal projection scheme (i.e. LREAL=.FALSE.).                      |
|                                                                             |
 -----------------------------------------------------------------------------

 LDA part: xc-table for Pade appr. of Perdew
 POSCAR found type information on POSCAR Li
 POSCAR found :  1 types and     432 ions
 POSCAR, INCAR and KPOINTS ok, starting setup
 FFT: planning ...
 WAVECAR not read
 entering main loop
       N       E                     dE             d eps       ncg     rms          rms(c)
DAV:   1    -0.297637355615E+03   -0.29764E+03   -0.10036E+05  3464   0.641E+02
DAV:   2    -0.768702133670E+03   -0.47106E+03   -0.43081E+03  4012   0.627E+01
DAV:   3    -0.802288095055E+03   -0.33586E+02   -0.30794E+02  4400   0.133E+01
DAV:   4    -0.803432986466E+03   -0.11449E+01   -0.11296E+01  3920   0.271E+00
DAV:   5    -0.803458524693E+03   -0.25538E-01   -0.25511E-01  4104   0.434E-01    0.644E+00
DAV:   6    -0.801936086692E+03    0.15224E+01   -0.47735E+00  4016   0.335E+00    0.523E+00
DAV:   7    -0.798087125826E+03    0.38490E+01   -0.44534E+00  4024   0.311E+00    0.303E+00
DAV:   8    -0.797128029198E+03    0.95910E+00   -0.25361E+00  3832   0.145E+00    0.149E+00
DAV:   9    -0.797069364831E+03    0.58664E-01   -0.11957E+00  3784   0.874E-01    0.902E-01
DAV:  10    -0.797085387067E+03   -0.16022E-01   -0.21218E-01  4008   0.534E-01    0.739E-01
DAV:  11    -0.797031358489E+03    0.54029E-01   -0.72986E-02  3920   0.345E-01    0.393E-01
DAV:  12    -0.797027663760E+03    0.36947E-02   -0.28567E-02  3728   0.148E-01    0.174E-01
DAV:  13    -0.797029366915E+03   -0.17032E-02   -0.63945E-03  4096   0.105E-01    0.140E-01
DAV:  14    -0.797026849420E+03    0.25175E-02   -0.26571E-03  3960   0.728E-02    0.571E-02
DAV:  15    -0.797026724206E+03    0.12521E-03   -0.10348E-03  3816   0.323E-02    0.325E-02
DAV:  16    -0.797026672374E+03    0.51832E-04   -0.36250E-04  3832   0.191E-02    0.172E-02
DAV:  17    -0.797026644831E+03    0.27543E-04   -0.83409E-05  3824   0.111E-02    0.107E-02
DAV:  18    -0.797026631387E+03    0.13445E-04   -0.26963E-05  2952   0.527E-03    0.419E-03
DAV:  19    -0.797026630397E+03    0.98924E-06   -0.78945E-06  1936   0.314E-03
   1 F= -.79702663E+03 E0= -.79698122E+03  d E =-.908193E-01
