Li                                      
           1
    21.672000    0.000000    0.000000
     0.000000   21.672000    0.000000
     0.000000    0.000000   21.672000
   Li
   432
Direct configuration=     1
   0.98495726  0.99619504  0.01042728
   0.89812725  0.09367547  0.08225368
   0.82012948  0.16521706  0.19129591
   0.73746428  0.24956707  0.25033609
   0.66412329  0.34041262  0.33748795
   0.57785506  0.42682019  0.42033559
   0.48375244  0.52554526  0.50388713
   0.43079557  0.61455335  0.58308550
   0.34083077  0.67302102  0.66011062
   0.26826923  0.75487149  0.73378743
   0.18977006  0.83380805  0.83289771
   0.07982067  0.91911842  0.92397520
   0.08601200  0.92010648  0.08076173
   0.98618827  0.00135106  0.14908653
   0.90957994  0.08502585  0.25696078
   0.82749590  0.16181511  0.34730068
   0.75262906  0.25022250  0.40691590
   0.66934870  0.32979697  0.48705627
   0.57257962  0.40626645  0.57034257
   0.48713695  0.50941749  0.67093891
   0.41685032  0.61322616  0.74328733
   0.33388732  0.67292723  0.84346993
   0.25244634  0.76190311  0.91253593
   0.16218042  0.84672298  0.00154532
   0.17299029  0.83843133  0.17128101
   0.07628863  0.92758330  0.25231360
   0.99800120  0.99702261  0.33930042
   0.92393713  0.08648393  0.41137956
   0.82613541  0.16505280  0.49557676
   0.73208840  0.22848901  0.57354509
   0.65274545  0.33644343  0.67128639
   0.56267401  0.44183580  0.76192648
   0.49179766  0.52527811  0.84692038
   0.42246091  0.59014701  0.94290090
   0.31609144  0.67030901  0.00493077
   0.24917368  0.76728012  0.07236702
   0.24580183  0.75582534  0.26084789
   0.15577885  0.84833108  0.33278443
   0.09850867  0.91275012  0.41855833
   0.00787651  0.00509869  0.50401020
   0.91599510  0.08769290  0.60819361
   0.81479820  0.18066588  0.68397764
   0.74563538  0.26091902  0.75817300
   0.63801834  0.33816248  0.81759107
   0.57914379  0.43286266  0.90879511
   0.51948645  0.51259593  0.99849004
   0.41433551  0.59302155  0.08314906
   0.32105809  0.66695494  0.17011029
   0.33706655  0.68050560  0.33168498
   0.24764091  0.74112600  0.39908947
   0.16083468  0.82892519  0.49143380
   0.08467832  0.89944669  0.58613861
   0.01631220  0.99186137  0.67092379
   0.92568407  0.09124324  0.74517442
   0.82967309  0.17299152  0.81437502
   0.74293612  0.24839451  0.91268961
   0.66343438  0.32057633  0.01886433
   0.57987918  0.43177688  0.07843352
   0.49676695  0.51175621  0.16561610
   0.41189565  0.59006965  0.24377618
   0.40164887  0.58725189  0.41409278
   0.33466949  0.67109839  0.48698481
   0.25493223  0.75331851  0.56735509
   0.17820424  0.82364804  0.66035665
   0.08902768  0.90008966  0.75914602
   0.97664160  0.98240559  0.82810754
   0.92109161  0.08915507  0.92361359
   0.82366231  0.15288679  0.00280541
   0.74068888  0.22928729  0.10435485
   0.65126544  0.33608663  0.15944726
   0.56198318  0.41591813  0.25279027
   0.49577413  0.51162712  0.34068203
   0.08540575  0.07356023  0.90099908
   0.00946957  0.16031532  0.00074713
   0.89712198  0.23675221  0.08698242
   0.81545855  0.32747527  0.17000116
   0.74496038  0.43579582  0.25235583
   0.66873541  0.51264802  0.32654818
   0.57096100  0.57947452  0.41320648
   0.49774633  0.66564530  0.48482026
   0.41346427  0.75854721  0.56881474
   0.34142679  0.82692220  0.64225342
   0.27116647  0.89503124  0.74026422
   0.16717979  0.99807495  0.80855193
   0.18716515  0.01006841  0.99448451
   0.08580858  0.06547936  0.07969714
   0.00004191  0.16552706  0.16581620
   0.91670657  0.26126012  0.26991597
   0.83926810  0.33390740  0.33333570
   0.75475060  0.42224479  0.40120990
   0.66005993  0.50415077  0.51212813
   0.59112436  0.57439351  0.58928861
   0.50550614  0.69309681  0.66824306
   0.40657508  0.75583901  0.74223572
   0.33065683  0.82806151  0.84848564
   0.24684744  0.93672234  0.91759977
   0.26141293  0.91254470  0.09226362
   0.17510446  0.00087246  0.15708141
   0.07076730  0.05986338  0.23766953
   0.00158841  0.17174193  0.33096840
   0.93764036  0.25388764  0.42061251
   0.81221603  0.33322743  0.49746804
   0.74220062  0.42593598  0.57539746
   0.65394302  0.50199224  0.67337452
   0.57754505  0.58709085  0.75100974
   0.50824913  0.68360415  0.83862555
   0.42543187  0.75246986  0.92562875
   0.32981133  0.84943453  0.99278344
   0.33541697  0.83263687  0.17149481
   0.23988830  0.93142598  0.24392905
   0.16905862  0.01244984  0.33828086
   0.09625807  0.10707824  0.40925399
   0.00169670  0.15995107  0.51551256
   0.91001747  0.25863630  0.57970096
   0.81560411  0.33957717  0.65827046
   0.72735894  0.40900307  0.73671476
   0.67728100  0.51118493  0.82646377
   0.59686895  0.59191434  0.93184390
   0.51402817  0.67937606  0.01345566
   0.41271402  0.76847195  0.08006639
   0.41739724  0.74779839  0.25519460
   0.33897037  0.83835500  0.32412011
   0.24261796  0.92336205  0.42099688
   0.15763313  0.00124676  0.50113173
   0.09192533  0.06964570  0.60121844
   0.99578880  0.17661246  0.67412467
   0.90638803  0.24682138  0.75476048
   0.82206563  0.33039476  0.83466231
   0.73155782  0.39728671  0.90920805
   0.68318860  0.49113145  0.99966186
   0.59562752  0.58798543  0.06921540
   0.50303641  0.67349479  0.16298398
   0.49326260  0.66213996  0.32033929
   0.42452694  0.76288790  0.42180351
   0.32533136  0.84189901  0.49828392
   0.24427281  0.91342109  0.56886763
   0.16539919  0.99250047  0.68470054
   0.06734437  0.07986937  0.75624492
   0.99445180  0.17401928  0.84581161
   0.90902265  0.24463426  0.92052896
   0.82011640  0.33408003  0.01224103
   0.73839208  0.41692191  0.10834592
   0.66257874  0.50098039  0.17158812
   0.59092695  0.60629190  0.26181518
   0.17578123  0.17507194  0.82713258
   0.10363882  0.24673151  0.91833944
   0.99744309  0.32777537  0.00712989
   0.89610279  0.40405397  0.08659414
   0.83564182  0.50970245  0.16023047
   0.75330040  0.59501351  0.25761560
   0.65522800  0.66434829  0.35102126
   0.59738706  0.75081936  0.42623785
   0.49799625  0.83538258  0.50292406
   0.42315338  0.91723661  0.56675069
   0.34118440  0.99063197  0.67121597
   0.25016575  0.06405156  0.75267951
   0.24916192  0.08819478  0.89137764
   0.16560952  0.16448075  0.00346008
   0.09043714  0.24813502  0.08858691
   0.99585644  0.33426530  0.15364890
   0.91953761  0.42124300  0.24294311
   0.85172760  0.51297905  0.31134382
   0.75868208  0.57061006  0.40199565
   0.66860086  0.65731306  0.50848269
   0.58764798  0.74641743  0.58564791
   0.50367933  0.82544077  0.66377064
   0.40648980  0.89002321  0.74750449
   0.34305829  0.98764259  0.82179671
   0.34406120  0.99262862  0.98411185
   0.26933774  0.09131566  0.08591426
   0.16818910  0.15867695  0.17102625
   0.06633461  0.25027203  0.24344727
   0.01213603  0.34552164  0.33369882
   0.91176958  0.42643422  0.40507082
   0.82725359  0.50363325  0.50426716
   0.74651914  0.59220857  0.58575905
   0.67028454  0.65443932  0.67071598
   0.61296045  0.74343235  0.76627240
   0.52652979  0.82550831  0.84540443
   0.43799152  0.90029601  0.90393247
   0.41666651  0.90644136  0.07884470
   0.33701120  0.99173106  0.16793526
   0.25566000  0.08186637  0.26187176
   0.15643492  0.17614524  0.31933643
   0.09032797  0.27317716  0.41209446
   0.01036996  0.34779700  0.49818085
   0.91041987  0.41258965  0.58154469
   0.82350855  0.48549245  0.65477266
   0.74078314  0.57272321  0.73345232
   0.67967668  0.65172401  0.83431060
   0.59190524  0.75154457  0.93037669
   0.51809612  0.83326327  0.99478928
   0.50339916  0.83239070  0.17531499
   0.42862882  0.92099847  0.24176705
   0.33726738  0.00702642  0.34785187
   0.23890029  0.10374543  0.41543302
   0.16965224  0.18048714  0.52151917
   0.09633090  0.25535535  0.59218395
   0.00758762  0.32846904  0.68521355
   0.90296613  0.40199834  0.75077243
   0.80749308  0.48637316  0.83336833
   0.74640450  0.58793010  0.91513142
   0.69130451  0.67860366  0.00045872
   0.59167627  0.75550293  0.10004586
   0.59154353  0.77288064  0.26323773
   0.48848711  0.84827892  0.34230978
   0.41401357  0.91335910  0.42801286
   0.32656653  0.00080760  0.50014909
   0.25228915  0.07152574  0.59826781
   0.16163336  0.16751284  0.68176861
   0.08963021  0.24175830  0.75122865
   0.99607149  0.31298838  0.84499549
   0.90692485  0.41963654  0.92138852
   0.81140106  0.49336295  0.98903444
   0.76078049  0.59676523  0.09921865
   0.66227774  0.66985521  0.16714742
   0.23592281  0.24642630  0.75003703
   0.16660584  0.33514710  0.84072662
   0.08271003  0.41181819  0.90962830
   0.98107381  0.49273237  0.00566442
   0.90328068  0.59296607  0.06843260
   0.83724408  0.67123803  0.17752053
   0.74354882  0.75078627  0.25279060
   0.67963664  0.81764241  0.33913996
   0.59588421  0.89411089  0.41487357
   0.50680987  0.99723161  0.50075275
   0.41498361  0.08404350  0.58469337
   0.33069362  0.16384034  0.66416237
   0.33293934  0.16642469  0.81878756
   0.24775361  0.23833432  0.91546937
   0.17073419  0.32994728  0.00376835
   0.08000579  0.41021506  0.08613545
   0.99390169  0.49772962  0.16122785
   0.92504984  0.58467846  0.25326948
   0.83908408  0.66901630  0.33473272
   0.74608732  0.75554612  0.42983878
   0.66506749  0.83662197  0.49522532
   0.59363189  0.92371975  0.59579556
   0.49396804  0.98127677  0.67542603
   0.41829777  0.08737346  0.75376979
   0.42590036  0.07975783  0.89358869
   0.34424965  0.15299830  0.98096264
   0.25754072  0.24144214  0.08374311
   0.15871106  0.32593857  0.16462196
   0.08035814  0.41611971  0.24878214
   0.00562254  0.49603776  0.31422328
   0.92055247  0.57754835  0.40742594
   0.84132008  0.65874916  0.48955260
   0.76262769  0.73994744  0.56668388
   0.67879726  0.82564254  0.67797877
   0.59270253  0.90449217  0.73906323
   0.48723968  0.99025663  0.81342300
   0.50862009  0.98262987  0.01449818
   0.42626142  0.06445062  0.08867922
   0.32709719  0.15167612  0.18105118
   0.25727229  0.25573854  0.23803724
   0.17196167  0.34384706  0.32004985
   0.07752730  0.41330897  0.41748301
   0.99060393  0.49450709  0.49676465
   0.91299585  0.56385548  0.58179710
   0.82831378  0.67691565  0.65824525
   0.75205559  0.73337166  0.75221890
   0.67440299  0.82434799  0.82531081
   0.58396446  0.91832463  0.90818190
   0.59284566  0.91984711  0.08819237
   0.48303076  0.99385624  0.16304154
   0.42854927  0.06741868  0.24916781
   0.32968583  0.16297008  0.32685219
   0.26431286  0.24374420  0.40849967
   0.17228353  0.33327591  0.50867049
   0.10357354  0.42023614  0.59499154
   0.99140698  0.49154731  0.66270344
   0.89322502  0.58076356  0.73482784
   0.84195254  0.66033814  0.83037369
   0.76833671  0.75130174  0.90189181
   0.67052112  0.83970773  0.00698526
   0.65891720  0.85332115  0.18900307
   0.58169735  0.91695751  0.27366017
   0.49230684  0.99527069  0.34076854
   0.41365748  0.07717516  0.43530841
   0.32090626  0.17009490  0.51193275
   0.26076722  0.26998223  0.58963583
   0.16168607  0.34292882  0.68559118
   0.08217224  0.43054561  0.75974911
   0.00319307  0.52143575  0.83055078
   0.89985732  0.57510631  0.92436174
   0.82658129  0.68201328  0.00895928
   0.74328232  0.76804908  0.11215230
   0.32395022  0.34598551  0.67828678
   0.24497252  0.42167777  0.76153304
   0.17112833  0.49690015  0.82668778
   0.07612822  0.58168733  0.92051433
   0.99321550  0.68318300  0.98033257
   0.92417032  0.76363620  0.09408908
   0.84147497  0.84927726  0.19005883
   0.75409798  0.91075588  0.25665336
   0.65373082  0.00699793  0.33783321
   0.57823968  0.09081969  0.40365328
   0.50460593  0.18152915  0.49464469
   0.40460117  0.26630323  0.58642443
   0.42211752  0.24901151  0.75339300
   0.33567423  0.33103242  0.83973637
   0.26224358  0.40703467  0.91292108
   0.16304788  0.48311059  0.99119561
   0.09394772  0.58729258  0.07051180
   0.99453705  0.67453094  0.15327010
   0.92320648  0.75616971  0.25888697
   0.83199776  0.83654889  0.33985526
   0.75530214  0.91636158  0.42095283
   0.64441964  0.00761170  0.49369569
   0.58746318  0.08038724  0.59473002
   0.48826667  0.16655660  0.66340659
   0.50470977  0.15891321  0.82206692
   0.43676552  0.23001717  0.90805677
   0.33120913  0.32914607  0.99887001
   0.25957778  0.40094131  0.07738748
   0.16608481  0.48766866  0.15775987
   0.09465142  0.58614466  0.22039969
   0.00552030  0.65886951  0.32018729
   0.92008326  0.74340258  0.40253869
   0.84743393  0.83925532  0.49705609
   0.73478714  0.91112788  0.58656914
   0.66281966  0.99787690  0.67132196
   0.58355582  0.07943121  0.73291585
   0.58258531  0.07326478  0.90339411
   0.50859118  0.15722980  0.99749961
   0.41206886  0.24469257  0.07526109
   0.33306741  0.34403916  0.13720214
   0.25040281  0.41720796  0.23557699
   0.16756483  0.49492447  0.34115877
   0.08521474  0.57987858  0.41609744
   0.99411595  0.65900648  0.48839994
   0.92663657  0.73945387  0.58826273
   0.83570649  0.83597940  0.66881583
   0.74877916  0.90580830  0.76442605
   0.66756763  0.00118019  0.82223464
   0.66055492  0.00592138  0.00219292
   0.57690640  0.07496752  0.09149397
   0.49347406  0.16252207  0.15649257
   0.39918245  0.25790174  0.22628199
   0.32299163  0.33271235  0.33944650
   0.24638034  0.41225318  0.40977202
   0.17860270  0.49546830  0.49872674
   0.08514680  0.56756773  0.58607778
   0.99214954  0.64859890  0.66541419
   0.91889642  0.74948771  0.74607167
   0.83928007  0.82442458  0.83707809
   0.75311416  0.91298193  0.91475084
   0.75241863  0.92170973  0.10047747
   0.67452597  0.00341803  0.18205770
   0.57307753  0.06726219  0.25703831
   0.47449055  0.17216668  0.34220920
   0.39776184  0.24543948  0.42599445
   0.33918789  0.34060478  0.49876945
   0.26389645  0.41912144  0.59363762
   0.17359703  0.50738135  0.66471889
   0.09226411  0.56907088  0.73869395
   0.99491188  0.65559986  0.82116096
   0.91420570  0.75991813  0.91316719
   0.82883878  0.83207344  0.01100446
   0.43022062  0.41297729  0.59824545
   0.35320377  0.50834479  0.66395020
   0.24685735  0.58021058  0.74831308
   0.17902588  0.67781022  0.83984993
   0.07645622  0.76493484  0.91081839
   0.99966139  0.82750021  0.00364539
   0.91079178  0.90818614  0.09080290
   0.82986819  0.99591720  0.18007000
   0.74931648  0.08814090  0.26432482
   0.66114424  0.16461233  0.33224814
   0.58024999  0.25378316  0.40469502
   0.49440769  0.33449015  0.48589409
   0.50965422  0.32159985  0.67160301
   0.41365973  0.41647833  0.76670112
   0.34182484  0.50528002  0.84963757
   0.24146377  0.57961569  0.92134638
   0.17171675  0.68240352  0.99427243
   0.07908119  0.74852958  0.09859234
   0.01194587  0.84169576  0.16658511
   0.91009269  0.92704272  0.26596833
   0.82052773  0.01672044  0.34237897
   0.74594677  0.07012349  0.42980938
   0.66163140  0.16174080  0.49212146
   0.58886890  0.24944521  0.56653462
   0.58193837  0.24579434  0.74771844
   0.50067834  0.32163520  0.84774556
   0.41365573  0.41766459  0.93896357
   0.31973862  0.50803681  0.01166751
   0.24691613  0.58841503  0.07563070
   0.18376383  0.68324796  0.14969380
   0.10460207  0.74550208  0.24548272
   0.01201154  0.83851624  0.33594681
   0.91013246  0.91876452  0.41116310
   0.84161801  0.00548594  0.51722900
   0.73345085  0.08761247  0.58840780
   0.66832472  0.18210619  0.67785201
   0.67090795  0.17564140  0.82374785
   0.59540080  0.25305842  0.90635598
   0.51274957  0.32540770  0.99419087
   0.42752753  0.41493644  0.07054373
   0.33297905  0.49933138  0.16092972
   0.24132289  0.57520731  0.23804314
   0.19381125  0.64996649  0.31997210
   0.10288757  0.73522219  0.39960070
   0.01176511  0.81512356  0.47739236
   0.93412697  0.90059791  0.56312824
   0.83548583  0.99493808  0.66046377
   0.75872267  0.07151659  0.75659916
   0.75557160  0.07879891  0.91411522
   0.65615572  0.15544112  0.99690602
   0.59571063  0.23507551  0.08122247
   0.49261698  0.33033190  0.14494804
   0.40224408  0.41900914  0.24395071
   0.32248817  0.50013657  0.31101355
   0.26526884  0.56637609  0.41797113
   0.17586936  0.65017774  0.48323297
   0.09094191  0.73005342  0.57122613
   0.00956712  0.81163657  0.67335752
   0.92451294  0.90543444  0.74547733
   0.84488135  0.99767256  0.84224598
   0.82894677  0.01091169  0.00031139
   0.74026675  0.08531096  0.09515701
   0.64707122  0.15976397  0.18992935
   0.55876555  0.24540317  0.25365437
   0.48424512  0.32168774  0.32292598
   0.42453303  0.42489292  0.39587718
   0.34977651  0.49956431  0.50718649
   0.27554481  0.58719714  0.59757297
   0.17599040  0.66803660  0.66322794
   0.09401663  0.74222039  0.74409356
   0.98764575  0.83081400  0.84044189
   0.90503278  0.91019440  0.92400606
