       N       E                     dE             d eps       ncg     rms          rms(c)
DAV:   1    -0.315356559673E+03   -0.31536E+03   -0.11799E+05  4040   0.644E+02
DAV:   2    -0.879926216763E+03   -0.56457E+03   -0.51682E+03  4636   0.639E+01
DAV:   3    -0.921558659475E+03   -0.41632E+02   -0.38084E+02  5240   0.137E+01
DAV:   4    -0.923062063714E+03   -0.15034E+01   -0.14784E+01  4760   0.282E+00
DAV:   5    -0.923097739063E+03   -0.35675E-01   -0.35604E-01  4912   0.461E-01    0.918E+00
DAV:   6    -0.918052992939E+03    0.50447E+01   -0.10046E+01  4704   0.411E+00    0.704E+00
DAV:   7    -0.914011733553E+03    0.40413E+01   -0.88378E+00  4856   0.415E+00    0.520E+00
DAV:   8    -0.910962389396E+03    0.30493E+01   -0.51991E+00  4728   0.260E+00    0.305E+00
DAV:   9    -0.910550431663E+03    0.41196E+00   -0.30631E+00  4672   0.176E+00    0.221E+00
DAV:  10    -0.910008642137E+03    0.54179E+00   -0.15461E+00  4672   0.121E+00    0.115E+00
DAV:  11    -0.909953264038E+03    0.55378E-01   -0.51014E-01  4384   0.554E-01    0.664E-01
DAV:  12    -0.909978009916E+03   -0.24746E-01   -0.10222E-01  4960   0.355E-01    0.627E-01
DAV:  13    -0.909934166496E+03    0.43843E-01   -0.56214E-02  4800   0.276E-01    0.307E-01
DAV:  14    -0.909935706678E+03   -0.15402E-02   -0.19497E-02  4704   0.155E-01    0.233E-01
DAV:  15    -0.909931265955E+03    0.44407E-02   -0.12358E-02  4712   0.125E-01    0.133E-01
DAV:  16    -0.909929633042E+03    0.16329E-02   -0.41269E-03  4560   0.647E-02    0.624E-02
DAV:  17    -0.909929608888E+03    0.24154E-04   -0.12239E-03  4496   0.326E-02    0.399E-02
DAV:  18    -0.909929508016E+03    0.10087E-03   -0.40572E-04  4608   0.227E-02    0.265E-02
DAV:  19    -0.909929444513E+03    0.63503E-04   -0.12184E-04  4528   0.131E-02    0.154E-02
DAV:  20    -0.909929422328E+03    0.22184E-04   -0.64689E-05  4400   0.744E-03    0.649E-03
DAV:  21    -0.909929424497E+03   -0.21688E-05   -0.13686E-05  2856   0.453E-03
   1 F= -.90992942E+03 E0= -.90986233E+03  d E =-.134181E+00
