Li                                      
           1
   -11.179105   19.362778   -0.000000
   -19.164180  -11.064444   -0.000000
     0.000000   -0.000000   23.447950
   Li
   504
Direct configuration=     1
   0.99225918  0.99948218  0.02891879
   0.92224715  0.04820046  0.69065239
   0.85642443  0.09615185  0.36171231
   0.77285725  0.12959444  0.01413227
   0.70894174  0.16871879  0.63938015
   0.62722913  0.22610063  0.32733667
   0.56865063  0.25616274  0.00401930
   0.51297109  0.30404115  0.66063833
   0.41335399  0.33166769  0.33488032
   0.35909686  0.38006958  0.97604384
   0.28747693  0.41195666  0.67378433
   0.21893588  0.46110022  0.32318632
   0.07133481  0.05297575  0.65603356
   0.00731648  0.08027126  0.34187816
   0.92647929  0.11879447  0.03093963
   0.86517026  0.18292565  0.68480046
   0.77397432  0.22262650  0.33785837
   0.72217846  0.24853811  0.98933061
   0.65514664  0.30209966  0.67602135
   0.56400972  0.33833654  0.32455346
   0.49680114  0.36840588  0.00711928
   0.43207686  0.42210963  0.66687181
   0.36037659  0.44573283  0.31965439
   0.29675676  0.49938614  0.99292104
   0.14890048  0.07678581  0.31516365
   0.06477070  0.12430858  0.02720987
   0.00223251  0.16652678  0.66586273
   0.92097887  0.21213786  0.33031569
   0.83445891  0.25582951  0.00508866
   0.78771058  0.30116866  0.65230830
   0.70200449  0.33104910  0.34264755
   0.64605965  0.36160346  0.01504952
   0.57179877  0.43172536  0.64347744
   0.49573208  0.45730553  0.34015906
   0.43301231  0.49865876  0.98517515
   0.36694911  0.53280429  0.64920162
   0.22288774  0.12609848  0.00681568
   0.15087386  0.16756289  0.64830386
   0.05968152  0.21716743  0.33097802
   0.98582322  0.24804964  0.98195872
   0.94501234  0.30088176  0.67588473
   0.84400360  0.32941418  0.33393296
   0.77378122  0.37682754  0.01239598
   0.71932147  0.42313528  0.64509604
   0.63572472  0.44954633  0.31499003
   0.57054652  0.49602027  0.98526996
   0.50930008  0.55401613  0.64974862
   0.43584946  0.57690062  0.32033340
   0.29714391  0.16982353  0.66240050
   0.21146591  0.21479233  0.32796411
   0.14572253  0.24717382  0.98648747
   0.07050119  0.30177547  0.67953149
   0.98274674  0.33527494  0.32981000
   0.92152879  0.35939997  0.97692051
   0.86956001  0.40970824  0.64957339
   0.77093340  0.46253074  0.31537153
   0.70997297  0.48770088  0.98618390
   0.63747595  0.54984062  0.66492609
   0.57509407  0.58552889  0.34229422
   0.50629305  0.62185574  0.98720892
   0.35249237  0.21033305  0.33680163
   0.29957053  0.25610367  0.98780926
   0.21305517  0.28477568  0.65146011
   0.12931804  0.33143370  0.33955669
   0.06777536  0.36821718  0.99539945
   0.99920505  0.40521212  0.67100185
   0.91145723  0.45493561  0.32693182
   0.85847732  0.49700895  0.99733136
   0.78185890  0.53324761  0.65444960
   0.71492301  0.59150679  0.31724239
   0.64542546  0.64681556  0.97256560
   0.56570757  0.66380371  0.64968313
   0.42332687  0.25067683  0.01809150
   0.36630031  0.29747021  0.65921279
   0.28238065  0.33373106  0.33837681
   0.23161711  0.36954575  0.99918945
   0.15455991  0.41092310  0.66765492
   0.07290466  0.46364215  0.32733401
   0.00710270  0.49328066  0.97514776
   0.92679333  0.51703369  0.66456747
   0.85252862  0.59129601  0.34654898
   0.78448742  0.62412314  0.96986973
   0.71454648  0.66357447  0.63968454
   0.65565529  0.71329518  0.33602222
   0.16088192  0.49169139  0.97465438
   0.07899370  0.54611223  0.63539016
   0.00054154  0.58874346  0.34282936
   0.92394048  0.63499768  0.01973724
   0.86588719  0.65118376  0.67693089
   0.78636223  0.71220648  0.31301700
   0.72303179  0.75111940  0.00679431
   0.21546004  0.54044717  0.65448160
   0.12718356  0.57086225  0.30960489
   0.08137962  0.62932672  0.98252346
   0.00038706  0.66848372  0.67228000
   0.91783676  0.70569246  0.34262458
   0.84858373  0.75298997  0.01048558
   0.77444918  0.78047063  0.66468206
   0.28782440  0.56489774  0.31284309
   0.20570478  0.61197610  0.97583927
   0.14312612  0.66075864  0.65475999
   0.05303592  0.70258983  0.33077653
   0.99791541  0.74509513  0.00862043
   0.91991097  0.78140987  0.67440924
   0.85255450  0.83421453  0.34244130
   0.35760971  0.61558223  0.99568989
   0.28417030  0.66277836  0.67392888
   0.22859737  0.69599383  0.30915129
   0.15326614  0.73066570  0.00412696
   0.05186335  0.78583082  0.68918516
   0.99654128  0.83924344  0.36634228
   0.92884015  0.87327759  0.02134381
   0.42452957  0.66502303  0.64613331
   0.36300489  0.70186714  0.31513016
   0.28416181  0.74109121  0.99932690
   0.20065528  0.79064267  0.65077510
   0.15150503  0.82897783  0.32595988
   0.08459245  0.86924731  0.00671148
   0.98474054  0.91723623  0.67801557
   0.93416588  0.96065069  0.35820467
   0.84185819  0.00686932  0.02627655
   0.77685867  0.03330809  0.68855191
   0.70874110  0.10617004  0.36221408
   0.64242798  0.13471851  0.00176553
   0.56112275  0.18095465  0.66997957
   0.50443858  0.21548364  0.33079540
   0.07540995  0.95672411  0.32506768
   0.14457013  0.00104699  0.00750782
   0.21828938  0.04276240  0.66851018
   0.28551100  0.07957024  0.31747517
   0.35624129  0.12970341  0.00039997
   0.43640998  0.17642437  0.67498255
   0.84590688  0.91496043  0.66205993
   0.78613717  0.96675479  0.34034844
   0.73190365  0.99169217  0.02455810
   0.64582534  0.04700075  0.68131753
   0.58159445  0.10936931  0.33233920
   0.49538124  0.12835039  0.01528324
   0.13529385  0.92078394  0.70040177
   0.21675454  0.96728927  0.33795202
   0.28432548  0.99970899  0.99817609
   0.36491387  0.03899219  0.66451797
   0.42861773  0.09696597  0.33228523
   0.78822671  0.87464382  0.02824637
   0.70757826  0.92044036  0.69385562
   0.64726416  0.97232036  0.35403978
   0.57669079  0.98438134  0.00477838
   0.49363781  0.04532969  0.67292309
   0.21082889  0.87570836  0.01766264
   0.28276498  0.90710210  0.68048087
   0.36020836  0.97098473  0.32363022
   0.41750022  0.00810039  0.01094002
   0.72091817  0.82786621  0.35571447
   0.64880737  0.88561063  0.02008918
   0.56154014  0.91770401  0.67989376
   0.51157370  0.96949540  0.34697514
   0.29257983  0.82358428  0.34163566
   0.35178996  0.87659132  0.00922145
   0.42031486  0.90945664  0.66650656
   0.63043645  0.80299174  0.65485217
   0.57613145  0.83432631  0.33042742
   0.50178454  0.87736088  0.01030597
   0.34916683  0.78298378  0.67097082
   0.42890953  0.83557863  0.33008859
   0.56548068  0.75912250  0.99288659
   0.47819338  0.78285798  0.65833215
   0.43485093  0.75379429  0.00842717
   0.50511617  0.70427734  0.34301625
   0.98265753  0.00397897  0.78258447
   0.93219184  0.03048942  0.49204063
   0.86600245  0.08693143  0.14689107
   0.80993458  0.11728456  0.80842199
   0.71116161  0.18786652  0.45557807
   0.64480523  0.20085679  0.11632974
   0.59341201  0.25042407  0.79334054
   0.51097842  0.29661578  0.44032423
   0.42886956  0.33513493  0.09532652
   0.36553344  0.36883815  0.77374826
   0.29126630  0.43900610  0.43593368
   0.20826103  0.45725458  0.10367435
   0.06589889  0.05888790  0.44842767
   0.01056442  0.06503350  0.13370350
   0.92663148  0.12987283  0.79113500
   0.86677655  0.16567054  0.44647578
   0.78209678  0.20406686  0.13023963
   0.72199661  0.25785715  0.80204370
   0.64352400  0.27983338  0.45013086
   0.57224209  0.33477067  0.10074378
   0.50690373  0.37497147  0.75742455
   0.45774826  0.42520659  0.44254799
   0.36776043  0.46737876  0.10139276
   0.26919093  0.50829349  0.78047073
   0.16054269  0.07736818  0.12398322
   0.05701024  0.10519695  0.76375282
   0.01339797  0.17502186  0.44576902
   0.93618649  0.20009896  0.12868567
   0.82704706  0.24673122  0.77529525
   0.80728468  0.30910133  0.45447916
   0.70861650  0.34763614  0.10853952
   0.61765411  0.38799509  0.75460388
   0.60387586  0.40695203  0.41029033
   0.50824746  0.44923985  0.10646135
   0.41980225  0.50377008  0.77256268
   0.37706196  0.55425704  0.42803141
   0.19461617  0.11641266  0.77021380
   0.14161482  0.17501941  0.45975818
   0.08898400  0.19802230  0.12151107
   0.98734654  0.25214527  0.80798770
   0.92021105  0.31383871  0.43677664
   0.85817510  0.33605566  0.10731731
   0.76278119  0.39664602  0.76085188
   0.71589058  0.42180065  0.42344879
   0.64353796  0.45645898  0.08745052
   0.56591468  0.50625097  0.74924819
   0.52858964  0.54859323  0.41937183
   0.44906693  0.55789784  0.08974242
   0.28017776  0.15668218  0.42382248
   0.20793949  0.21918915  0.10440867
   0.11648313  0.24259737  0.76992718
   0.06328100  0.30012026  0.42213444
   0.99629714  0.31837961  0.09244576
   0.91324479  0.38668473  0.77562790
   0.84724329  0.43205616  0.44465133
   0.81234661  0.46853610  0.12268784
   0.69008927  0.52919189  0.75729250
   0.65643573  0.55256747  0.42004891
   0.57340644  0.57793241  0.10247246
   0.49211579  0.62356266  0.74932728
   0.33352296  0.21836306  0.11475073
   0.26160314  0.24595962  0.78301836
   0.20970387  0.31630449  0.42820751
   0.12604844  0.32902476  0.07931529
   0.05621007  0.37353770  0.77672231
   0.99427683  0.40052491  0.43674774
   0.94575519  0.47388447  0.10025584
   0.85583904  0.50939570  0.76391768
   0.78463849  0.54118254  0.43455336
   0.71394843  0.57552076  0.09418537
   0.63328479  0.63048635  0.75048300
   0.57760143  0.67015851  0.44558353
   0.41120378  0.25181774  0.76425418
   0.36606278  0.29450943  0.42515500
   0.27714352  0.34325572  0.11824433
   0.21531826  0.36174348  0.78033042
   0.15574687  0.41992096  0.44728139
   0.05921403  0.45315242  0.09669955
   0.98821931  0.51176442  0.76465986
   0.95102423  0.53059907  0.44955440
   0.85855972  0.58838109  0.11874878
   0.79636590  0.64329793  0.75913699
   0.73558510  0.67435127  0.42739505
   0.64544732  0.70500828  0.11553148
   0.13783355  0.49130965  0.75556561
   0.08838833  0.54352130  0.43658304
   0.00663601  0.58396090  0.11965135
   0.91991797  0.63788970  0.79306995
   0.87029780  0.65340347  0.45588247
   0.79025419  0.71267073  0.11897504
   0.70596356  0.76087655  0.77623562
   0.21679131  0.54752229  0.43822475
   0.14440270  0.57800556  0.08986873
   0.07521307  0.63466183  0.74757010
   0.00453147  0.66626109  0.45520561
   0.94950238  0.70842759  0.11621354
   0.84615343  0.77579279  0.77002161
   0.78764162  0.77849081  0.44364753
   0.29894806  0.58630351  0.11614169
   0.20315059  0.61383517  0.78737099
   0.16594111  0.66537855  0.42652459
   0.06246425  0.69276295  0.09711230
   0.00496070  0.74844954  0.78504292
   0.93389693  0.79183088  0.46398377
   0.87292125  0.82303482  0.11743082
   0.34675220  0.60905239  0.77795482
   0.30026705  0.64317705  0.42847868
   0.20703684  0.71166522  0.10559022
   0.14030421  0.74168802  0.76595421
   0.08127945  0.80746073  0.42415781
   0.01158225  0.83905859  0.13062232
   0.92843790  0.88628720  0.78342723
   0.44255672  0.67376725  0.44355745
   0.36029613  0.68989653  0.09596039
   0.25771307  0.74313553  0.78169118
   0.21918549  0.78804995  0.42153707
   0.14543406  0.82245963  0.10220549
   0.06176817  0.86813388  0.79816622
   0.00952891  0.92786120  0.47460197
   0.94170565  0.95688340  0.10871470
   0.85528618  0.99789537  0.81092235
   0.78700364  0.04833456  0.46287755
   0.72687486  0.08373351  0.14123528
   0.64681037  0.12964941  0.77926320
   0.58612449  0.16048308  0.44201337
   0.49285201  0.22375648  0.11556785
   0.09990019  0.96290208  0.12226274
   0.12780375  0.99272605  0.77948391
   0.20124452  0.03713562  0.43184708
   0.30102645  0.10037169  0.09843723
   0.35010184  0.12630274  0.76671960
   0.41836960  0.16495698  0.47035736
   0.83872135  0.89273942  0.43796669
   0.77997090  0.95978311  0.14718217
   0.73387205  0.00162779  0.79405231
   0.62970075  0.04421598  0.46402140
   0.56839582  0.08516216  0.11229001
   0.51278077  0.14257446  0.79438981
   0.14436936  0.92142284  0.41960552
   0.23498733  0.93880393  0.11883155
   0.28705990  0.99451228  0.79301928
   0.35952100  0.02122823  0.43454741
   0.43038864  0.08193784  0.13137071
   0.78595357  0.86686444  0.77705763
   0.70912921  0.91838453  0.45466637
   0.64981653  0.97286589  0.13417915
   0.59437798  0.99344703  0.77217099
   0.49907090  0.03885688  0.44597346
   0.19582523  0.86138198  0.77544672
   0.29082491  0.91118961  0.44701861
   0.37816876  0.95544931  0.12948107
   0.42391423  0.01824995  0.76898768
   0.72028575  0.83469365  0.13249525
   0.62114958  0.87412912  0.78503768
   0.56629280  0.91239614  0.47561806
   0.51543189  0.95007292  0.10007740
   0.26935948  0.81219396  0.10372223
   0.34787698  0.85595872  0.80105863
   0.41433039  0.89483552  0.46804047
   0.63511778  0.79672122  0.47049536
   0.57283758  0.82398296  0.11705479
   0.48715948  0.89194042  0.82117529
   0.34827152  0.78169504  0.44210415
   0.41192993  0.81033200  0.10559614
   0.56569489  0.76455484  0.78429016
   0.49706721  0.79193188  0.42553940
   0.42905562  0.73140116  0.77573956
   0.51135571  0.68032638  0.11369697
   0.98413941  0.99200114  0.23323157
   0.92450473  0.04759778  0.91957114
   0.84922094  0.08969329  0.59253243
   0.79985859  0.10884771  0.27164774
   0.73325666  0.16725353  0.86571995
   0.64997500  0.21537174  0.55196784
   0.56635256  0.25836526  0.21943481
   0.52262792  0.27737495  0.88552123
   0.41049175  0.31782013  0.56173074
   0.37179152  0.37675710  0.22294139
   0.29596929  0.39732019  0.88517101
   0.19527516  0.47058512  0.57075780
   0.06651840  0.03653322  0.87958937
   0.00585448  0.07458422  0.55295547
   0.93908962  0.11766935  0.24438715
   0.85995711  0.18518746  0.90781488
   0.78561876  0.22331888  0.56146308
   0.71043951  0.24909531  0.22659722
   0.64823355  0.31487612  0.89377256
   0.54327332  0.36018750  0.52947470
   0.50202231  0.37577735  0.23250765
   0.43319717  0.42107145  0.86366243
   0.36686619  0.47091240  0.53021382
   0.27200200  0.49877214  0.20843417
   0.15234156  0.07657763  0.55325121
   0.08567310  0.10831125  0.23218480
   0.99729733  0.16798426  0.89635768
   0.91706538  0.21249082  0.53401417
   0.86732028  0.25962445  0.23258344
   0.76741499  0.31718688  0.89653038
   0.71603371  0.34244788  0.53040247
   0.63698883  0.36837606  0.22332260
   0.57573974  0.42708081  0.87021245
   0.50763956  0.46208607  0.53460796
   0.41020804  0.49543683  0.20391532
   0.36490886  0.51210104  0.87164748
   0.24094372  0.11356833  0.19408808
   0.12685190  0.17319652  0.89569101
   0.05773800  0.19577639  0.56802570
   0.01360627  0.23607765  0.21364173
   0.92185766  0.29690068  0.87259041
   0.87546754  0.33190673  0.58093918
   0.79415464  0.37181704  0.22486386
   0.70166697  0.41859508  0.87373459
   0.63380604  0.46942962  0.52857942
   0.56712655  0.48469652  0.20596547
   0.50869000  0.55966061  0.87711943
   0.45033690  0.58135406  0.52262173
   0.28604166  0.17825533  0.89037642
   0.20536288  0.21787466  0.54959523
   0.15901152  0.24336589  0.21262046
   0.05699945  0.28466375  0.89680416
   0.00928197  0.32684551  0.57543687
   0.93229730  0.35843761  0.21815774
   0.84785030  0.42871156  0.88830220
   0.78722858  0.44565410  0.53108056
   0.73557674  0.48420053  0.19088022
   0.62581012  0.55442803  0.86487295
   0.57217231  0.59782635  0.52999971
   0.49720411  0.61064506  0.21040238
   0.35822764  0.20144987  0.55465010
   0.28255958  0.24267949  0.20079481
   0.21200857  0.29207686  0.88963601
   0.14025110  0.32542840  0.54750466
   0.07295257  0.34703214  0.18580541
   0.99180559  0.41713530  0.87880359
   0.91790157  0.45953927  0.55593334
   0.86416339  0.50646913  0.22036299
   0.77760728  0.53493234  0.85290413
   0.71924098  0.59139398  0.54613999
   0.63165995  0.63981935  0.23030420
   0.56552858  0.68082511  0.86609991
   0.41556895  0.25596800  0.22298284
   0.37087186  0.27387319  0.88097471
   0.28500416  0.32246935  0.55470571
   0.21981854  0.36490450  0.22058086
   0.14489952  0.41224904  0.87101852
   0.06047641  0.45229694  0.54826712
   0.00282608  0.49284845  0.21640793
   0.92828692  0.55915219  0.88581100
   0.85936022  0.58000249  0.56627730
   0.76868546  0.62786114  0.22758497
   0.70775293  0.67145327  0.87487606
   0.65138014  0.72103368  0.53154795
   0.14273142  0.49590067  0.21620188
   0.06152020  0.53814870  0.87725596
   0.99997241  0.57610068  0.54752791
   0.93827921  0.62473785  0.22196258
   0.85636757  0.66327566  0.90870489
   0.81043817  0.70086183  0.53590490
   0.68523138  0.74952219  0.24448237
   0.19569266  0.51746765  0.87201072
   0.16200580  0.58213473  0.54283545
   0.06141808  0.63528681  0.21080391
   0.97456514  0.68037703  0.87786031
   0.93268634  0.70473916  0.56830807
   0.83028366  0.76700884  0.24767877
   0.78730998  0.77919976  0.89399479
   0.31068514  0.59891447  0.55646442
   0.19391217  0.61887347  0.19792385
   0.14209041  0.65708253  0.88406352
   0.08846888  0.70070966  0.55432109
   0.98528624  0.75965410  0.22730678
   0.92551434  0.80646338  0.89335291
   0.87593119  0.84375539  0.55923551
   0.33604757  0.60387639  0.19352599
   0.30866825  0.62558192  0.89475727
   0.23708725  0.71610229  0.53890365
   0.13890003  0.75338562  0.20565746
   0.07604973  0.77591456  0.92259005
   0.03424208  0.83547608  0.56057341
   0.91923426  0.87092280  0.26131432
   0.43023140  0.66068181  0.87867160
   0.36792037  0.70572613  0.54715145
   0.28018956  0.74293071  0.21522420
   0.20255200  0.75984814  0.88557954
   0.17653389  0.84857364  0.55787952
   0.07431127  0.85932843  0.21225482
   0.98346418  0.93345672  0.92090991
   0.94021667  0.97165546  0.56519215
   0.84798947  0.99744515  0.25029598
   0.80207464  0.02830708  0.92636862
   0.71216409  0.08689244  0.56738667
   0.63720797  0.12895312  0.21402073
   0.59136928  0.16724386  0.90266421
   0.50443448  0.20083055  0.55395579
   0.08112270  0.94606913  0.55293527
   0.15221526  0.99601558  0.22062298
   0.21310387  0.04269398  0.91472756
   0.30220052  0.07921822  0.55571449
   0.35181860  0.13651947  0.22454291
   0.43103855  0.15282199  0.89535504
   0.84348075  0.92278795  0.88703072
   0.77845956  0.96047644  0.55786201
   0.71400565  0.00660705  0.24366406
   0.64987485  0.03342586  0.91504623
   0.58388444  0.08706881  0.57384586
   0.49875243  0.12199122  0.21986556
   0.12531642  0.90797991  0.90049328
   0.22085049  0.96054214  0.56524081
   0.28292254  0.99625640  0.20954588
   0.36388232  0.03232796  0.86913014
   0.43267965  0.07407473  0.56119017
   0.77343055  0.87592917  0.24592652
   0.71762715  0.92076022  0.90309430
   0.64038420  0.96523783  0.57431131
   0.56514945  0.00334052  0.24946884
   0.51349987  0.04207479  0.90571120
   0.20413213  0.87011031  0.23094968
   0.26668675  0.89245620  0.92540009
   0.35638052  0.94940732  0.55676760
   0.41813636  0.99223906  0.24797422
   0.72053514  0.82394462  0.56908667
   0.63826531  0.90631751  0.24200999
   0.58470657  0.92524633  0.90882100
   0.50459327  0.97536626  0.57779764
   0.29466647  0.84843349  0.54968550
   0.34160215  0.88182190  0.22381109
   0.41428085  0.90141621  0.92301675
   0.64057118  0.80741999  0.92076741
   0.56395190  0.85185154  0.55035093
   0.49325806  0.85695098  0.20925731
   0.35496654  0.77612847  0.89505479
   0.42543798  0.84312495  0.55648227
   0.56052695  0.75832817  0.22258056
   0.49102554  0.81439112  0.89639219
   0.42671494  0.73287804  0.21552632
   0.51367453  0.72342696  0.53574414
