 504 504   0   0
  0.2106490E+02  0.2170700E-08  0.2148436E-08  0.2276500E-08  0.5000000E-15
  1.000000000000000E-004
  CAR 
 Li                                      
      3.23493327     -3.47787618  301      0.29907560      1.00000000
     -3.478  0.0000E+00  0.0000E+00
     -3.456  0.0000E+00  0.0000E+00
     -3.433  0.0000E+00  0.0000E+00
     -3.411  0.0000E+00  0.0000E+00
     -3.388  0.0000E+00  0.0000E+00
     -3.366  0.0000E+00  0.0000E+00
     -3.344  0.3473E-13  0.7772E-15
     -3.321  0.1104E-09  0.2471E-11
     -3.299  0.1196E-06  0.2680E-08
     -3.276  0.4375E-04  0.9816E-06
     -3.254  0.5444E-02  0.1228E-03
     -3.232  0.2332E+00  0.5342E-02
     -3.209  0.3492E+01  0.8348E-01
     -3.187  0.1857E+02  0.4990E+00
     -3.165  0.3558E+02  0.1295E+01
     -3.142  0.2476E+02  0.1849E+01
     -3.120  0.7303E+01  0.2013E+01
     -3.097  0.1163E+02  0.2273E+01
     -3.075  0.4597E+02  0.3302E+01
     -3.053  0.8737E+02  0.5257E+01
     -3.030  0.8089E+02  0.7066E+01
     -3.008  0.3536E+02  0.7858E+01
     -2.986  0.1309E+02  0.8151E+01
     -2.963  0.3666E+02  0.8971E+01
     -2.941  0.8187E+02  0.1080E+02
     -2.918  0.8610E+02  0.1273E+02
     -2.896  0.4619E+02  0.1376E+02
     -2.874  0.2286E+02  0.1427E+02
     -2.851  0.4332E+02  0.1524E+02
     -2.829  0.8195E+02  0.1708E+02
     -2.807  0.1073E+03  0.1948E+02
     -2.784  0.8189E+02  0.2131E+02
     -2.762  0.4025E+02  0.2221E+02
     -2.739  0.5805E+02  0.2351E+02
     -2.717  0.1107E+03  0.2599E+02
     -2.695  0.1359E+03  0.2903E+02
     -2.672  0.1226E+03  0.3177E+02
     -2.650  0.7512E+02  0.3345E+02
     -2.628  0.3776E+02  0.3430E+02
     -2.605  0.4824E+02  0.3537E+02
     -2.583  0.7513E+02  0.3706E+02
     -2.560  0.8044E+02  0.3886E+02
     -2.538  0.5891E+02  0.4017E+02
     -2.516  0.5603E+02  0.4143E+02
     -2.493  0.7931E+02  0.4320E+02
     -2.471  0.1095E+03  0.4565E+02
     -2.449  0.1272E+03  0.4850E+02
     -2.426  0.1162E+03  0.5110E+02
     -2.404  0.9958E+02  0.5333E+02
     -2.381  0.1126E+03  0.5585E+02
     -2.359  0.1353E+03  0.5887E+02
     -2.337  0.1642E+03  0.6255E+02
     -2.314  0.1687E+03  0.6632E+02
     -2.292  0.1224E+03  0.6906E+02
     -2.270  0.7256E+02  0.7068E+02
     -2.247  0.5067E+02  0.7182E+02
     -2.225  0.5297E+02  0.7300E+02
     -2.202  0.7147E+02  0.7460E+02
     -2.180  0.7157E+02  0.7620E+02
     -2.158  0.8340E+02  0.7807E+02
     -2.135  0.1129E+03  0.8060E+02
     -2.113  0.1387E+03  0.8370E+02
     -2.091  0.1500E+03  0.8705E+02
     -2.068  0.1368E+03  0.9011E+02
     -2.046  0.1125E+03  0.9263E+02
     -2.023  0.1072E+03  0.9503E+02
     -2.001  0.1236E+03  0.9780E+02
     -1.979  0.1627E+03  0.1014E+03
     -1.956  0.1957E+03  0.1058E+03
     -1.934  0.1677E+03  0.1096E+03
     -1.912  0.8661E+02  0.1115E+03
     -1.889  0.3993E+02  0.1124E+03
     -1.867  0.7178E+02  0.1140E+03
     -1.844  0.1322E+03  0.1170E+03
     -1.822  0.1499E+03  0.1203E+03
     -1.800  0.1340E+03  0.1233E+03
     -1.777  0.1415E+03  0.1265E+03
     -1.755  0.1571E+03  0.1300E+03
     -1.733  0.1681E+03  0.1338E+03
     -1.710  0.1750E+03  0.1377E+03
     -1.688  0.1460E+03  0.1409E+03
     -1.665  0.1188E+03  0.1436E+03
     -1.643  0.1287E+03  0.1465E+03
     -1.621  0.1435E+03  0.1497E+03
     -1.598  0.1618E+03  0.1533E+03
     -1.576  0.1645E+03  0.1570E+03
     -1.554  0.1284E+03  0.1599E+03
     -1.531  0.9599E+02  0.1620E+03
     -1.509  0.9676E+02  0.1642E+03
     -1.486  0.1104E+03  0.1667E+03
     -1.464  0.1102E+03  0.1691E+03
     -1.442  0.1184E+03  0.1718E+03
     -1.419  0.1443E+03  0.1750E+03
     -1.397  0.1491E+03  0.1783E+03
     -1.375  0.1469E+03  0.1816E+03
     -1.352  0.1619E+03  0.1852E+03
     -1.330  0.1685E+03  0.1890E+03
     -1.307  0.1597E+03  0.1926E+03
     -1.285  0.1681E+03  0.1963E+03
     -1.263  0.1982E+03  0.2008E+03
     -1.240  0.2212E+03  0.2057E+03
     -1.218  0.2212E+03  0.2107E+03
     -1.196  0.2078E+03  0.2153E+03
     -1.173  0.1889E+03  0.2196E+03
     -1.151  0.1654E+03  0.2233E+03
     -1.128  0.1425E+03  0.2264E+03
     -1.106  0.1303E+03  0.2294E+03
     -1.084  0.1160E+03  0.2320E+03
     -1.061  0.1132E+03  0.2345E+03
     -1.039  0.1445E+03  0.2377E+03
     -1.017  0.1746E+03  0.2416E+03
     -0.994  0.1657E+03  0.2453E+03
     -0.972  0.1534E+03  0.2488E+03
     -0.949  0.1658E+03  0.2525E+03
     -0.927  0.1888E+03  0.2567E+03
     -0.905  0.1972E+03  0.2611E+03
     -0.882  0.1810E+03  0.2652E+03
     -0.860  0.1555E+03  0.2687E+03
     -0.838  0.1310E+03  0.2716E+03
     -0.815  0.1334E+03  0.2746E+03
     -0.793  0.1680E+03  0.2783E+03
     -0.770  0.1684E+03  0.2821E+03
     -0.748  0.1518E+03  0.2855E+03
     -0.726  0.1595E+03  0.2891E+03
     -0.703  0.1816E+03  0.2931E+03
     -0.681  0.2131E+03  0.2979E+03
     -0.658  0.2367E+03  0.3032E+03
     -0.636  0.2227E+03  0.3082E+03
     -0.614  0.2021E+03  0.3127E+03
     -0.591  0.2033E+03  0.3172E+03
     -0.569  0.2213E+03  0.3222E+03
     -0.547  0.2381E+03  0.3275E+03
     -0.524  0.2263E+03  0.3326E+03
     -0.502  0.2006E+03  0.3371E+03
     -0.479  0.1733E+03  0.3409E+03
     -0.457  0.1518E+03  0.3443E+03
     -0.435  0.1662E+03  0.3481E+03
     -0.412  0.1811E+03  0.3521E+03
     -0.390  0.1746E+03  0.3560E+03
     -0.368  0.1666E+03  0.3598E+03
     -0.345  0.1762E+03  0.3637E+03
     -0.323  0.1922E+03  0.3680E+03
     -0.300  0.1969E+03  0.3724E+03
     -0.278  0.1966E+03  0.3768E+03
     -0.256  0.2036E+03  0.3814E+03
     -0.233  0.2058E+03  0.3860E+03
     -0.211  0.2103E+03  0.3907E+03
     -0.189  0.2375E+03  0.3960E+03
     -0.166  0.2634E+03  0.4019E+03
     -0.144  0.2738E+03  0.4080E+03
     -0.121  0.2592E+03  0.4138E+03
     -0.099  0.2173E+03  0.4187E+03
     -0.077  0.1863E+03  0.4228E+03
     -0.054  0.1943E+03  0.4272E+03
     -0.032  0.2174E+03  0.4320E+03
     -0.010  0.2179E+03  0.4369E+03
      0.013  0.2105E+03  0.4416E+03
      0.035  0.1994E+03  0.4461E+03
      0.058  0.1940E+03  0.4504E+03
      0.080  0.1962E+03  0.4548E+03
      0.102  0.1949E+03  0.4592E+03
      0.125  0.1966E+03  0.4636E+03
      0.147  0.2030E+03  0.4681E+03
      0.169  0.2132E+03  0.4729E+03
      0.192  0.2167E+03  0.4777E+03
      0.214  0.2229E+03  0.4827E+03
      0.237  0.2315E+03  0.4879E+03
      0.259  0.2421E+03  0.4933E+03
      0.281  0.2594E+03  0.4991E+03
      0.304  0.2748E+03  0.5053E+03
      0.326  0.2815E+03  0.5116E+03
      0.348  0.2839E+03  0.5179E+03
      0.371  0.2819E+03  0.5242E+03
      0.393  0.2853E+03  0.5306E+03
      0.416  0.2903E+03  0.5371E+03
      0.438  0.2874E+03  0.5435E+03
      0.460  0.2818E+03  0.5499E+03
      0.483  0.2720E+03  0.5559E+03
      0.505  0.2613E+03  0.5618E+03
      0.527  0.2469E+03  0.5673E+03
      0.550  0.2326E+03  0.5725E+03
      0.572  0.2277E+03  0.5776E+03
      0.595  0.2231E+03  0.5826E+03
      0.617  0.2185E+03  0.5875E+03
      0.639  0.2161E+03  0.5923E+03
      0.662  0.2095E+03  0.5970E+03
      0.684  0.2069E+03  0.6016E+03
      0.706  0.2113E+03  0.6064E+03
      0.729  0.2068E+03  0.6110E+03
      0.751  0.1998E+03  0.6155E+03
      0.774  0.2114E+03  0.6202E+03
      0.796  0.2213E+03  0.6252E+03
      0.818  0.2196E+03  0.6301E+03
      0.841  0.2093E+03  0.6347E+03
      0.863  0.2125E+03  0.6395E+03
      0.885  0.2294E+03  0.6446E+03
      0.908  0.2357E+03  0.6499E+03
      0.930  0.2383E+03  0.6552E+03
      0.953  0.2484E+03  0.6608E+03
      0.975  0.2454E+03  0.6663E+03
      0.997  0.2351E+03  0.6716E+03
      1.020  0.2329E+03  0.6768E+03
      1.042  0.2292E+03  0.6819E+03
      1.064  0.2325E+03  0.6871E+03
      1.087  0.2354E+03  0.6924E+03
      1.109  0.2323E+03  0.6976E+03
      1.132  0.2302E+03  0.7027E+03
      1.154  0.2215E+03  0.7077E+03
      1.176  0.2167E+03  0.7125E+03
      1.199  0.2166E+03  0.7174E+03
      1.221  0.2228E+03  0.7224E+03
      1.243  0.2293E+03  0.7275E+03
      1.266  0.2185E+03  0.7324E+03
      1.288  0.2042E+03  0.7369E+03
      1.311  0.2030E+03  0.7415E+03
      1.333  0.1994E+03  0.7459E+03
      1.355  0.2061E+03  0.7506E+03
      1.378  0.2239E+03  0.7556E+03
      1.400  0.2304E+03  0.7607E+03
      1.422  0.2240E+03  0.7657E+03
      1.445  0.2231E+03  0.7707E+03
      1.467  0.2278E+03  0.7758E+03
      1.490  0.2214E+03  0.7808E+03
      1.512  0.2156E+03  0.7856E+03
      1.534  0.2127E+03  0.7904E+03
      1.557  0.2144E+03  0.7952E+03
      1.579  0.2255E+03  0.8002E+03
      1.601  0.2254E+03  0.8052E+03
      1.624  0.2159E+03  0.8101E+03
      1.646  0.2146E+03  0.8149E+03
      1.669  0.2202E+03  0.8198E+03
      1.691  0.2206E+03  0.8247E+03
      1.713  0.2163E+03  0.8296E+03
      1.736  0.2104E+03  0.8343E+03
      1.758  0.2021E+03  0.8388E+03
      1.780  0.1987E+03  0.8433E+03
      1.803  0.2019E+03  0.8478E+03
      1.825  0.2125E+03  0.8525E+03
      1.848  0.2106E+03  0.8572E+03
      1.870  0.1967E+03  0.8616E+03
      1.892  0.1858E+03  0.8658E+03
      1.915  0.1848E+03  0.8699E+03
      1.937  0.1795E+03  0.8740E+03
      1.959  0.1730E+03  0.8778E+03
      1.982  0.1920E+03  0.8821E+03
      2.004  0.2038E+03  0.8867E+03
      2.027  0.1909E+03  0.8910E+03
      2.049  0.1734E+03  0.8948E+03
      2.071  0.1594E+03  0.8984E+03
      2.094  0.1612E+03  0.9020E+03
      2.116  0.1737E+03  0.9059E+03
      2.139  0.1767E+03  0.9098E+03
      2.161  0.1630E+03  0.9135E+03
      2.183  0.1538E+03  0.9169E+03
      2.206  0.1565E+03  0.9204E+03
      2.228  0.1541E+03  0.9239E+03
      2.250  0.1418E+03  0.9271E+03
      2.273  0.1381E+03  0.9302E+03
      2.295  0.1473E+03  0.9334E+03
      2.318  0.1528E+03  0.9369E+03
      2.340  0.1528E+03  0.9403E+03
      2.362  0.1466E+03  0.9436E+03
      2.385  0.1433E+03  0.9468E+03
      2.407  0.1444E+03  0.9500E+03
      2.429  0.1488E+03  0.9533E+03
      2.452  0.1536E+03  0.9568E+03
      2.474  0.1542E+03  0.9602E+03
      2.497  0.1465E+03  0.9635E+03
      2.519  0.1378E+03  0.9666E+03
      2.541  0.1391E+03  0.9697E+03
      2.564  0.1497E+03  0.9730E+03
      2.586  0.1499E+03  0.9764E+03
      2.608  0.1388E+03  0.9795E+03
      2.631  0.1342E+03  0.9825E+03
      2.653  0.1323E+03  0.9855E+03
      2.676  0.1242E+03  0.9882E+03
      2.698  0.1091E+03  0.9907E+03
      2.720  0.1005E+03  0.9929E+03
      2.743  0.1000E+03  0.9952E+03
      2.765  0.1003E+03  0.9974E+03
      2.787  0.1031E+03  0.9997E+03
      2.810  0.1046E+03  0.1002E+04
      2.832  0.9793E+02  0.1004E+04
      2.855  0.7011E+02  0.1006E+04
      2.877  0.4883E+02  0.1007E+04
      2.899  0.4542E+02  0.1008E+04
      2.922  0.4529E+02  0.1009E+04
      2.944  0.3334E+02  0.1010E+04
      2.966  0.1185E+02  0.1010E+04
      2.989  0.1698E+01  0.1010E+04
      3.011  0.9277E-01  0.1010E+04
      3.034  0.1874E-02  0.1010E+04
      3.056  0.1363E-04  0.1010E+04
      3.078  0.3493E-07  0.1010E+04
      3.101  0.3094E-10  0.1010E+04
      3.123  0.9923E-14  0.1010E+04
      3.145  0.0000E+00  0.1010E+04
      3.168  0.0000E+00  0.1010E+04
      3.190  0.0000E+00  0.1010E+04
      3.213  0.0000E+00  0.1010E+04
      3.235  0.0000E+00  0.1010E+04
