 500 500   0   0
  0.2153794E+02  0.2208300E-08  0.2208300E-08  0.2208300E-08  0.5000000E-15
  1.000000000000000E-004
  CAR 
 Li                                      
      3.14349695     -3.50141732  301      0.24215952      1.00000000
     -3.501  0.0000E+00  0.0000E+00
     -3.479  0.0000E+00  0.0000E+00
     -3.457  0.0000E+00  0.0000E+00
     -3.435  0.0000E+00  0.0000E+00
     -3.413  0.0000E+00  0.0000E+00
     -3.391  0.0000E+00  0.0000E+00
     -3.369  0.7017E-13  0.1554E-14
     -3.346  0.1898E-09  0.4206E-11
     -3.324  0.1785E-06  0.3958E-08
     -3.302  0.5792E-04  0.1287E-05
     -3.280  0.6537E-02  0.1461E-03
     -3.258  0.2596E+00  0.5897E-02
     -3.236  0.3679E+01  0.8739E-01
     -3.213  0.1890E+02  0.5059E+00
     -3.191  0.3564E+02  0.1295E+01
     -3.169  0.2485E+02  0.1846E+01
     -3.147  0.7011E+01  0.2001E+01
     -3.125  0.9049E+01  0.2201E+01
     -3.103  0.4400E+02  0.3176E+01
     -3.081  0.9398E+02  0.5258E+01
     -3.058  0.8514E+02  0.7143E+01
     -3.036  0.3330E+02  0.7881E+01
     -3.014  0.1030E+02  0.8109E+01
     -2.992  0.3102E+02  0.8796E+01
     -2.970  0.8174E+02  0.1061E+02
     -2.948  0.9506E+02  0.1271E+02
     -2.926  0.4793E+02  0.1377E+02
     -2.903  0.1551E+02  0.1412E+02
     -2.881  0.3301E+02  0.1485E+02
     -2.859  0.8647E+02  0.1676E+02
     -2.837  0.1200E+03  0.1942E+02
     -2.815  0.8485E+02  0.2130E+02
     -2.793  0.3166E+02  0.2200E+02
     -2.770  0.3340E+02  0.2274E+02
     -2.748  0.1002E+03  0.2496E+02
     -2.726  0.1684E+03  0.2869E+02
     -2.704  0.1511E+03  0.3204E+02
     -2.682  0.7143E+02  0.3362E+02
     -2.660  0.2164E+02  0.3410E+02
     -2.638  0.3716E+02  0.3492E+02
     -2.615  0.9030E+02  0.3692E+02
     -2.593  0.9322E+02  0.3899E+02
     -2.571  0.4026E+02  0.3988E+02
     -2.549  0.2070E+02  0.4034E+02
     -2.527  0.6545E+02  0.4179E+02
     -2.505  0.1392E+03  0.4487E+02
     -2.483  0.1620E+03  0.4846E+02
     -2.460  0.1130E+03  0.5096E+02
     -2.438  0.5830E+02  0.5225E+02
     -2.416  0.8092E+02  0.5404E+02
     -2.394  0.1612E+03  0.5761E+02
     -2.372  0.2156E+03  0.6239E+02
     -2.350  0.1960E+03  0.6673E+02
     -2.327  0.1109E+03  0.6919E+02
     -2.305  0.4055E+02  0.7009E+02
     -2.283  0.4434E+02  0.7107E+02
     -2.261  0.8768E+02  0.7301E+02
     -2.239  0.8698E+02  0.7494E+02
     -2.217  0.4389E+02  0.7591E+02
     -2.195  0.3762E+02  0.7674E+02
     -2.172  0.9526E+02  0.7885E+02
     -2.150  0.1628E+03  0.8246E+02
     -2.128  0.1754E+03  0.8634E+02
     -2.106  0.1194E+03  0.8899E+02
     -2.084  0.6278E+02  0.9038E+02
     -2.062  0.9202E+02  0.9241E+02
     -2.040  0.1781E+03  0.9636E+02
     -2.017  0.2228E+03  0.1013E+03
     -1.995  0.1842E+03  0.1054E+03
     -1.973  0.9582E+02  0.1075E+03
     -1.951  0.5060E+02  0.1086E+03
     -1.929  0.9696E+02  0.1108E+03
     -1.907  0.1595E+03  0.1143E+03
     -1.884  0.1513E+03  0.1177E+03
     -1.862  0.9351E+02  0.1197E+03
     -1.840  0.8106E+02  0.1215E+03
     -1.818  0.1433E+03  0.1247E+03
     -1.796  0.1999E+03  0.1291E+03
     -1.774  0.1982E+03  0.1335E+03
     -1.752  0.1393E+03  0.1366E+03
     -1.729  0.7866E+02  0.1383E+03
     -1.707  0.1036E+03  0.1406E+03
     -1.685  0.1909E+03  0.1449E+03
     -1.663  0.2283E+03  0.1499E+03
     -1.641  0.1741E+03  0.1538E+03
     -1.619  0.8732E+02  0.1557E+03
     -1.597  0.6226E+02  0.1571E+03
     -1.574  0.1148E+03  0.1596E+03
     -1.552  0.1606E+03  0.1632E+03
     -1.530  0.1393E+03  0.1663E+03
     -1.508  0.8204E+02  0.1681E+03
     -1.486  0.7650E+02  0.1698E+03
     -1.464  0.1190E+03  0.1724E+03
     -1.441  0.1405E+03  0.1755E+03
     -1.419  0.1195E+03  0.1782E+03
     -1.397  0.9064E+02  0.1802E+03
     -1.375  0.1214E+03  0.1829E+03
     -1.353  0.2170E+03  0.1877E+03
     -1.331  0.2969E+03  0.1943E+03
     -1.309  0.3055E+03  0.2010E+03
     -1.286  0.2403E+03  0.2063E+03
     -1.264  0.1530E+03  0.2097E+03
     -1.242  0.1376E+03  0.2128E+03
     -1.220  0.1914E+03  0.2170E+03
     -1.198  0.2143E+03  0.2218E+03
     -1.176  0.1728E+03  0.2256E+03
     -1.154  0.9991E+02  0.2278E+03
     -1.131  0.7873E+02  0.2296E+03
     -1.109  0.1296E+03  0.2324E+03
     -1.087  0.1802E+03  0.2364E+03
     -1.065  0.1691E+03  0.2402E+03
     -1.043  0.1318E+03  0.2431E+03
     -1.021  0.1531E+03  0.2465E+03
     -0.998  0.2142E+03  0.2512E+03
     -0.976  0.2533E+03  0.2568E+03
     -0.954  0.2307E+03  0.2619E+03
     -0.932  0.1379E+03  0.2650E+03
     -0.910  0.5781E+02  0.2663E+03
     -0.888  0.6104E+02  0.2676E+03
     -0.866  0.9300E+02  0.2697E+03
     -0.843  0.8282E+02  0.2715E+03
     -0.821  0.7918E+02  0.2733E+03
     -0.799  0.1499E+03  0.2766E+03
     -0.777  0.2381E+03  0.2819E+03
     -0.755  0.2800E+03  0.2881E+03
     -0.733  0.2807E+03  0.2943E+03
     -0.711  0.2598E+03  0.3000E+03
     -0.688  0.2314E+03  0.3052E+03
     -0.666  0.2098E+03  0.3098E+03
     -0.644  0.2361E+03  0.3150E+03
     -0.622  0.2818E+03  0.3213E+03
     -0.600  0.2729E+03  0.3273E+03
     -0.578  0.2121E+03  0.3320E+03
     -0.556  0.1494E+03  0.3353E+03
     -0.533  0.1229E+03  0.3381E+03
     -0.511  0.1312E+03  0.3410E+03
     -0.489  0.1401E+03  0.3441E+03
     -0.467  0.1471E+03  0.3473E+03
     -0.445  0.1811E+03  0.3513E+03
     -0.423  0.2099E+03  0.3560E+03
     -0.400  0.2028E+03  0.3605E+03
     -0.378  0.1809E+03  0.3645E+03
     -0.356  0.1632E+03  0.3681E+03
     -0.334  0.1816E+03  0.3721E+03
     -0.312  0.2402E+03  0.3774E+03
     -0.290  0.2785E+03  0.3836E+03
     -0.268  0.2707E+03  0.3896E+03
     -0.245  0.2311E+03  0.3947E+03
     -0.223  0.1964E+03  0.3991E+03
     -0.201  0.2019E+03  0.4036E+03
     -0.179  0.2139E+03  0.4083E+03
     -0.157  0.1875E+03  0.4124E+03
     -0.135  0.1446E+03  0.4157E+03
     -0.113  0.1422E+03  0.4188E+03
     -0.090  0.1880E+03  0.4230E+03
     -0.068  0.2368E+03  0.4282E+03
     -0.046  0.2648E+03  0.4341E+03
     -0.024  0.2542E+03  0.4397E+03
     -0.002  0.2265E+03  0.4447E+03
      0.020  0.2221E+03  0.4496E+03
      0.043  0.2325E+03  0.4548E+03
      0.065  0.2212E+03  0.4597E+03
      0.087  0.1818E+03  0.4637E+03
      0.109  0.1566E+03  0.4672E+03
      0.131  0.1990E+03  0.4716E+03
      0.153  0.2633E+03  0.4774E+03
      0.175  0.2774E+03  0.4836E+03
      0.198  0.2574E+03  0.4893E+03
      0.220  0.2408E+03  0.4946E+03
      0.242  0.2408E+03  0.4999E+03
      0.264  0.2439E+03  0.5053E+03
      0.286  0.2352E+03  0.5105E+03
      0.308  0.2338E+03  0.5157E+03
      0.330  0.2585E+03  0.5214E+03
      0.353  0.2841E+03  0.5277E+03
      0.375  0.2938E+03  0.5342E+03
      0.397  0.2997E+03  0.5409E+03
      0.419  0.3046E+03  0.5476E+03
      0.441  0.3021E+03  0.5543E+03
      0.463  0.3048E+03  0.5611E+03
      0.486  0.3156E+03  0.5681E+03
      0.508  0.3097E+03  0.5749E+03
      0.530  0.2859E+03  0.5813E+03
      0.552  0.2601E+03  0.5870E+03
      0.574  0.2407E+03  0.5924E+03
      0.596  0.2337E+03  0.5975E+03
      0.618  0.2328E+03  0.6027E+03
      0.641  0.2231E+03  0.6076E+03
      0.663  0.2068E+03  0.6122E+03
      0.685  0.1845E+03  0.6163E+03
      0.707  0.1664E+03  0.6200E+03
      0.729  0.1600E+03  0.6235E+03
      0.751  0.1611E+03  0.6271E+03
      0.773  0.1696E+03  0.6308E+03
      0.796  0.1800E+03  0.6348E+03
      0.818  0.1977E+03  0.6392E+03
      0.840  0.2145E+03  0.6440E+03
      0.862  0.2271E+03  0.6490E+03
      0.884  0.2381E+03  0.6543E+03
      0.906  0.2511E+03  0.6598E+03
      0.929  0.2642E+03  0.6657E+03
      0.951  0.2725E+03  0.6717E+03
      0.973  0.2790E+03  0.6779E+03
      0.995  0.2736E+03  0.6840E+03
      1.017  0.2644E+03  0.6898E+03
      1.039  0.2628E+03  0.6956E+03
      1.061  0.2654E+03  0.7015E+03
      1.084  0.2605E+03  0.7073E+03
      1.106  0.2394E+03  0.7126E+03
      1.128  0.2134E+03  0.7173E+03
      1.150  0.1926E+03  0.7216E+03
      1.172  0.1884E+03  0.7257E+03
      1.194  0.2047E+03  0.7303E+03
      1.216  0.2180E+03  0.7351E+03
      1.239  0.2163E+03  0.7399E+03
      1.261  0.2200E+03  0.7448E+03
      1.283  0.2273E+03  0.7498E+03
      1.305  0.2249E+03  0.7548E+03
      1.327  0.2237E+03  0.7597E+03
      1.349  0.2075E+03  0.7643E+03
      1.372  0.1761E+03  0.7682E+03
      1.394  0.1648E+03  0.7719E+03
      1.416  0.1651E+03  0.7756E+03
      1.438  0.1549E+03  0.7790E+03
      1.460  0.1427E+03  0.7821E+03
      1.482  0.1443E+03  0.7853E+03
      1.504  0.1512E+03  0.7887E+03
      1.527  0.1517E+03  0.7920E+03
      1.549  0.1501E+03  0.7954E+03
      1.571  0.1553E+03  0.7988E+03
      1.593  0.1753E+03  0.8027E+03
      1.615  0.2031E+03  0.8072E+03
      1.637  0.2283E+03  0.8122E+03
      1.659  0.2411E+03  0.8176E+03
      1.682  0.2420E+03  0.8229E+03
      1.704  0.2348E+03  0.8281E+03
      1.726  0.2273E+03  0.8332E+03
      1.748  0.2218E+03  0.8381E+03
      1.770  0.2123E+03  0.8428E+03
      1.792  0.2103E+03  0.8475E+03
      1.815  0.2072E+03  0.8520E+03
      1.837  0.1817E+03  0.8561E+03
      1.859  0.1590E+03  0.8596E+03
      1.881  0.1510E+03  0.8629E+03
      1.903  0.1515E+03  0.8663E+03
      1.925  0.1512E+03  0.8696E+03
      1.947  0.1432E+03  0.8728E+03
      1.970  0.1401E+03  0.8759E+03
      1.992  0.1440E+03  0.8791E+03
      2.014  0.1545E+03  0.8825E+03
      2.036  0.1724E+03  0.8863E+03
      2.058  0.1856E+03  0.8905E+03
      2.080  0.1859E+03  0.8946E+03
      2.102  0.1758E+03  0.8985E+03
      2.125  0.1574E+03  0.9020E+03
      2.147  0.1479E+03  0.9052E+03
      2.169  0.1406E+03  0.9084E+03
      2.191  0.1226E+03  0.9111E+03
      2.213  0.1145E+03  0.9136E+03
      2.235  0.1270E+03  0.9164E+03
      2.258  0.1537E+03  0.9198E+03
      2.280  0.1781E+03  0.9238E+03
      2.302  0.1835E+03  0.9278E+03
      2.324  0.1740E+03  0.9317E+03
      2.346  0.1590E+03  0.9352E+03
      2.368  0.1469E+03  0.9385E+03
      2.390  0.1326E+03  0.9414E+03
      2.413  0.1218E+03  0.9441E+03
      2.435  0.1192E+03  0.9467E+03
      2.457  0.1309E+03  0.9496E+03
      2.479  0.1498E+03  0.9530E+03
      2.501  0.1560E+03  0.9564E+03
      2.523  0.1519E+03  0.9598E+03
      2.545  0.1509E+03  0.9631E+03
      2.568  0.1545E+03  0.9665E+03
      2.590  0.1663E+03  0.9702E+03
      2.612  0.1692E+03  0.9740E+03
      2.634  0.1649E+03  0.9776E+03
      2.656  0.1596E+03  0.9812E+03
      2.678  0.1387E+03  0.9842E+03
      2.701  0.1038E+03  0.9865E+03
      2.723  0.7169E+02  0.9881E+03
      2.745  0.7156E+02  0.9897E+03
      2.767  0.9566E+02  0.9918E+03
      2.789  0.1157E+03  0.9944E+03
      2.811  0.1299E+03  0.9973E+03
      2.833  0.1177E+03  0.9999E+03
      2.856  0.7039E+02  0.1001E+04
      2.878  0.2256E+02  0.1002E+04
      2.900  0.3222E+01  0.1002E+04
      2.922  0.1833E+00  0.1002E+04
      2.944  0.3913E-02  0.1002E+04
      2.966  0.3035E-04  0.1002E+04
      2.988  0.8376E-07  0.1002E+04
      3.011  0.8118E-10  0.1002E+04
      3.033  0.2757E-13  0.1002E+04
      3.055  0.0000E+00  0.1002E+04
      3.077  0.0000E+00  0.1002E+04
      3.099  0.0000E+00  0.1002E+04
      3.121  0.0000E+00  0.1002E+04
      3.143  0.0000E+00  0.1002E+04
