Li                                      
           1
    22.083000   -0.000000    0.000000
    -0.000000   22.083000    0.000000
     0.000000    0.000000   22.083000
   Li
   500
Direct configuration=     1
   0.99716685  0.98786556  0.00586002
   0.98896299  0.11831509  0.09094617
   0.97220608  0.21886162  0.17497329
   0.97257992  0.28714904  0.30713561
   0.99884408  0.39767632  0.40470466
   0.00445051  0.48774780  0.50728975
   0.02795062  0.63243289  0.60872302
   0.99784710  0.72061424  0.72844180
   0.98832775  0.80039583  0.79345890
   0.01163306  0.88688257  0.90559265
   0.09004818  0.99543889  0.09027140
   0.08906986  0.09912349  0.18051863
   0.09750063  0.19780556  0.29093493
   0.10369846  0.29274256  0.40228750
   0.11027340  0.37136433  0.52280182
   0.11360576  0.49116525  0.60275412
   0.11362252  0.62624740  0.71029290
   0.10870736  0.71337063  0.81453481
   0.09914027  0.80935821  0.89293911
   0.11798219  0.88812994  0.00599868
   0.21051191  0.00440310  0.19818830
   0.17686545  0.10145771  0.30189459
   0.20753813  0.19278408  0.39840025
   0.20691135  0.28876571  0.50876906
   0.19854293  0.38766402  0.62361005
   0.19632346  0.50697441  0.69689644
   0.21997928  0.60244987  0.82083061
   0.19629391  0.69010399  0.90591984
   0.19837080  0.79269285  0.02427316
   0.22686413  0.89338988  0.09523473
   0.31649988  0.00126532  0.29060623
   0.32188678  0.08312686  0.38467088
   0.32264497  0.19329720  0.48473388
   0.29779342  0.28008470  0.60719531
   0.29502546  0.40959788  0.69858157
   0.30483875  0.50910248  0.79520199
   0.30133571  0.61336978  0.88271074
   0.28249864  0.68755092  0.01869118
   0.31028899  0.79266238  0.10863301
   0.30878404  0.90263162  0.20132644
   0.41014765  0.98891945  0.40904769
   0.39724015  0.11654762  0.49202918
   0.40686775  0.21449581  0.60067091
   0.40200858  0.30310084  0.71204599
   0.38993064  0.38955691  0.79452789
   0.40133344  0.50127575  0.88108740
   0.39397469  0.59741144  0.99414564
   0.41615390  0.70341142  0.08601248
   0.41904069  0.78899217  0.20268252
   0.42417561  0.88988728  0.29762544
   0.50762141  0.01462897  0.50885949
   0.51314258  0.11340386  0.60477707
   0.49741210  0.19411743  0.70423459
   0.49580434  0.30967623  0.79202168
   0.51464567  0.41793134  0.89707217
   0.48095040  0.50351201  0.00753231
   0.46792305  0.62112547  0.08673743
   0.51326014  0.69622972  0.18820211
   0.51579111  0.78467679  0.30382514
   0.50604970  0.88973731  0.39527307
   0.59279228  0.98963843  0.60223109
   0.60987960  0.09818653  0.72084985
   0.60301872  0.19687890  0.79911378
   0.60395966  0.31988601  0.89496116
   0.58356954  0.42128083  0.99325739
   0.59222336  0.53268146  0.09426709
   0.60479645  0.61602854  0.19915106
   0.60511671  0.70803954  0.29827716
   0.60492749  0.79883784  0.41274932
   0.60125782  0.89518086  0.49252855
   0.70512139  0.01215712  0.70756993
   0.70239884  0.09412342  0.80534262
   0.70682896  0.20363529  0.90522235
   0.68593928  0.32952103  0.00659654
   0.68117100  0.41641537  0.09713042
   0.72654318  0.51805606  0.22110197
   0.70067021  0.61018563  0.30678366
   0.71856825  0.69103019  0.39387009
   0.71020017  0.78472475  0.51357703
   0.68321266  0.88725971  0.62579688
   0.80297258  0.00642399  0.79302331
   0.78107795  0.07565930  0.91859124
   0.78372899  0.21167560  0.98809426
   0.79565025  0.31266815  0.08898984
   0.78420313  0.42156689  0.19765203
   0.79878711  0.51378996  0.29997787
   0.80296418  0.60008428  0.40928807
   0.80430295  0.68041599  0.49369676
   0.79585495  0.81091931  0.59184042
   0.78603897  0.89658475  0.71118238
   0.90558233  0.00154559  0.91343007
   0.88470370  0.09675758  0.99870124
   0.88917298  0.19584220  0.08616601
   0.88476293  0.31174298  0.19752748
   0.89015974  0.40521691  0.29412068
   0.88430417  0.49325635  0.40624222
   0.90398650  0.61842370  0.50456979
   0.91387670  0.70360746  0.58642753
   0.89989083  0.79566175  0.69552023
   0.89639914  0.89068176  0.80193859
   0.09326059  0.11593638  0.01009543
   0.12004343  0.21020942  0.09344256
   0.09810046  0.28835684  0.21643388
   0.09312160  0.40703614  0.29512062
   0.07895501  0.49815751  0.39908225
   0.07944928  0.60692364  0.49448376
   0.10615374  0.71387899  0.59413917
   0.10019889  0.81018904  0.71103198
   0.11488763  0.90899957  0.80615466
   0.10733127  0.00933455  0.92051869
   0.20064152  0.09085768  0.10362799
   0.20028913  0.20316154  0.19027069
   0.21669700  0.29691647  0.30056680
   0.19774625  0.40370914  0.40048660
   0.19366499  0.49039064  0.50505014
   0.18534369  0.61619131  0.61019712
   0.20046054  0.69712386  0.70329627
   0.19973132  0.80639593  0.78446098
   0.19696993  0.90235678  0.91964649
   0.19269978  0.02323141  0.02368405
   0.30659370  0.09836725  0.19883160
   0.30573803  0.18701124  0.31074638
   0.30470751  0.28515533  0.40724585
   0.27474455  0.38962533  0.49698572
   0.30049935  0.50473297  0.58155273
   0.29633800  0.60203767  0.70592534
   0.30488099  0.70797717  0.78572582
   0.28263758  0.77596288  0.88940627
   0.29653115  0.89541349  0.00429274
   0.32792454  0.99449841  0.10701888
   0.42035360  0.10503929  0.30585503
   0.42154381  0.20653103  0.37471184
   0.38950022  0.29931807  0.49123649
   0.38486413  0.39220555  0.59377962
   0.38206415  0.50479419  0.67998492
   0.39732147  0.60999682  0.78867158
   0.40823301  0.69646992  0.89137707
   0.40405083  0.76797010  0.00057118
   0.41496594  0.88009683  0.11639076
   0.41233505  0.99539890  0.18471386
   0.49203522  0.09946698  0.38871810
   0.51026219  0.21164995  0.48053489
   0.49315343  0.30282402  0.61477274
   0.50364999  0.38987709  0.68810399
   0.48006158  0.49273177  0.77664148
   0.48813008  0.57866981  0.87917086
   0.50415710  0.68184220  0.98673865
   0.52233896  0.78521518  0.09420955
   0.51712309  0.88422862  0.19500458
   0.50904515  0.00987068  0.29153538
   0.60189459  0.08666482  0.50237369
   0.59445262  0.18481545  0.62911371
   0.60289358  0.28587774  0.69997190
   0.60122293  0.41360838  0.77446400
   0.60904622  0.52481341  0.85188603
   0.57662998  0.60098826  0.99289821
   0.59412821  0.68168057  0.09628823
   0.60377179  0.78187712  0.20034195
   0.60756769  0.89878366  0.28440339
   0.57813389  0.01264582  0.41567527
   0.69672551  0.10224814  0.59763921
   0.69765949  0.20634661  0.72194531
   0.70944240  0.30310527  0.79155982
   0.68622386  0.40262786  0.88853334
   0.68276743  0.50785346  0.99749894
   0.71487555  0.59534268  0.09921129
   0.70744564  0.67170495  0.19501343
   0.70091157  0.76336670  0.29251578
   0.69593005  0.88241739  0.38420880
   0.67594196  0.99290286  0.50026352
   0.79375922  0.10196981  0.69021536
   0.79320073  0.17670681  0.82508016
   0.79097920  0.33343085  0.89368058
   0.79419764  0.40276765  0.01583235
   0.81362444  0.49404996  0.08018812
   0.82005811  0.62153456  0.18942370
   0.80471163  0.70388997  0.29554856
   0.81005903  0.80963645  0.41242491
   0.77395990  0.92124946  0.49922002
   0.78534304  0.99759706  0.58654629
   0.88098059  0.10469159  0.80727050
   0.88173092  0.19880133  0.91558832
   0.89284436  0.32129042  0.01196768
   0.91887197  0.40267215  0.08972857
   0.89937890  0.50810829  0.19968749
   0.88303680  0.59662758  0.30578820
   0.90788911  0.72726061  0.41237744
   0.88534078  0.82982645  0.51344141
   0.87881054  0.90894892  0.62964759
   0.87303593  0.01180921  0.70339115
   0.99703271  0.09587575  0.92590799
   0.98627382  0.21147966  0.97921804
   0.01784454  0.29960146  0.08931618
   0.99878459  0.40210787  0.20572803
   0.99072852  0.49812375  0.29237209
   0.97181640  0.59476409  0.40312516
   0.00483111  0.71544597  0.49913497
   0.00742250  0.80048592  0.61168665
   0.97638568  0.89769074  0.71608895
   0.00472858  0.00357483  0.82107902
   0.19734735  0.21009464  0.99341314
   0.17939015  0.29741256  0.09748853
   0.17865372  0.39508185  0.19721894
   0.18485527  0.47961514  0.28721467
   0.18553238  0.58824150  0.39830022
   0.19072472  0.70666506  0.47919872
   0.20274873  0.81077942  0.59115294
   0.21381096  0.91219569  0.69482006
   0.20373907  0.00479474  0.81920304
   0.19543566  0.11737510  0.91191500
   0.31726193  0.18378047  0.11708548
   0.30443618  0.30731697  0.19606340
   0.29713910  0.38844460  0.28453446
   0.29281421  0.49084186  0.37221398
   0.28687875  0.60734617  0.47601221
   0.28344721  0.67920082  0.58421785
   0.29445756  0.79196404  0.68899860
   0.29460726  0.89563247  0.79721190
   0.29156833  0.99806147  0.91524280
   0.29980753  0.10297043  0.01502658
   0.41081360  0.19481474  0.20525247
   0.38054754  0.29611434  0.30337866
   0.40430257  0.38619879  0.37426564
   0.38523175  0.47645496  0.48390670
   0.39272462  0.60444512  0.57117857
   0.38900380  0.70126897  0.68005600
   0.39934933  0.80324504  0.80055076
   0.38206252  0.89027086  0.90292348
   0.41546476  0.98433538  0.00982416
   0.42213634  0.10461278  0.11296339
   0.49434690  0.22330844  0.31277085
   0.50968834  0.31561667  0.38852387
   0.50682812  0.37961475  0.50607804
   0.49344249  0.50782503  0.59713719
   0.46978887  0.59414269  0.67364143
   0.49801525  0.68412019  0.77438631
   0.51140761  0.79755683  0.88638039
   0.51313196  0.89213381  0.99194013
   0.50818680  0.98588940  0.09622955
   0.50821595  0.10111196  0.21221731
   0.60926437  0.21933702  0.40295179
   0.59614448  0.29926038  0.52217946
   0.61177751  0.41622103  0.59449441
   0.58122816  0.49747743  0.71371782
   0.59300764  0.59376186  0.77126624
   0.59520964  0.69451119  0.89574772
   0.59829229  0.78567034  0.01232676
   0.61007977  0.91000010  0.10646830
   0.59385209  0.01046616  0.19893767
   0.59401640  0.10865405  0.32039685
   0.69070820  0.22708752  0.48682730
   0.69988707  0.31831213  0.59796022
   0.72512274  0.40226958  0.70307956
   0.70836419  0.54513079  0.77684568
   0.70244603  0.60792666  0.90574061
   0.69181985  0.69578389  0.01545999
   0.70554345  0.77554097  0.11534013
   0.69969117  0.90361185  0.21007203
   0.69450857  0.01840575  0.30310342
   0.69837031  0.10844459  0.40457079
   0.80451693  0.21495167  0.59011139
   0.81139605  0.29261843  0.70453026
   0.80820881  0.44548203  0.79591200
   0.79704506  0.50873992  0.90999652
   0.82829404  0.58687173  0.98935998
   0.82030780  0.68453019  0.09966651
   0.78316921  0.78239373  0.22130534
   0.79367099  0.89396430  0.29638322
   0.77688334  0.99781382  0.38670435
   0.78498755  0.09107097  0.50571838
   0.90667852  0.20516781  0.69981052
   0.89108806  0.30318263  0.79473067
   0.89885833  0.40399717  0.90701336
   0.90223574  0.49640000  0.98062382
   0.91704000  0.59380135  0.10932286
   0.90866583  0.69153601  0.19370892
   0.91782129  0.81149924  0.30982403
   0.89284192  0.90974862  0.41325441
   0.88049047  0.00028527  0.49285012
   0.88201136  0.09985009  0.61999898
   0.97610741  0.19233767  0.83033859
   0.99049500  0.31075075  0.89485740
   0.99608898  0.40405210  0.00486062
   0.99172810  0.49343077  0.10869445
   0.99575837  0.58834458  0.19732695
   0.00004485  0.69262876  0.28705289
   0.99815904  0.83642021  0.39516150
   0.99485796  0.91441449  0.49918610
   0.99828920  0.01313376  0.60944800
   0.99808639  0.09080622  0.70910837
   0.07867272  0.22722694  0.91067130
   0.09711513  0.31852529  0.98967984
   0.09942818  0.41547006  0.09643240
   0.08395348  0.49355329  0.19044896
   0.08103929  0.58832765  0.30942599
   0.06961857  0.70164067  0.39066196
   0.09568183  0.81084844  0.47994653
   0.08950410  0.90810526  0.60553939
   0.08920562  0.99803529  0.72260001
   0.06869041  0.10321323  0.81580687
   0.30789640  0.30739163  0.02062251
   0.30136100  0.42497298  0.14255459
   0.28802327  0.51688029  0.21181167
   0.28599248  0.59908512  0.28814258
   0.28981016  0.70256482  0.38664016
   0.29923702  0.80638803  0.48506211
   0.30235892  0.89680158  0.58917054
   0.31365750  0.01485622  0.71510741
   0.31016328  0.10914830  0.82716998
   0.30812680  0.20756634  0.90832157
   0.39181636  0.29215630  0.09341148
   0.40577436  0.41389102  0.21125120
   0.41413226  0.48967475  0.28027684
   0.39325063  0.61200296  0.39298447
   0.39633210  0.69929759  0.49543679
   0.39748053  0.77757084  0.60151484
   0.39193843  0.89505187  0.71862057
   0.40968663  0.98507555  0.81990328
   0.41754049  0.08696864  0.91993320
   0.43259407  0.18592298  0.99466839
   0.48160647  0.31337460  0.20851646
   0.51248314  0.39778400  0.28004254
   0.49096936  0.49314478  0.37958483
   0.47921903  0.59710170  0.48981256
   0.51883820  0.68532058  0.58638974
   0.51144773  0.80418737  0.70789838
   0.50151764  0.89835207  0.80820202
   0.51175576  0.98443270  0.90870627
   0.51408049  0.09615247  0.00808286
   0.51794506  0.18575096  0.09787575
   0.60461104  0.30276963  0.29355303
   0.61681921  0.37654243  0.39444589
   0.58541485  0.49792091  0.48409193
   0.58903252  0.58396743  0.59710113
   0.60034807  0.67406100  0.69119152
   0.59989024  0.79493385  0.78836015
   0.61131592  0.88833381  0.88819750
   0.60972336  0.97678660  0.99276411
   0.61263713  0.10582129  0.10288928
   0.58874698  0.19394667  0.20731353
   0.70491134  0.27729129  0.40350756
   0.70208724  0.38711566  0.49653868
   0.68961953  0.48878434  0.61603596
   0.71123450  0.60963560  0.67513190
   0.69761709  0.68969590  0.79382700
   0.70558865  0.77805125  0.89771508
   0.70391283  0.87159085  0.99598440
   0.69410825  0.97990107  0.10316104
   0.70113207  0.09046833  0.19971570
   0.70149015  0.20351108  0.30720569
   0.80422591  0.30633760  0.50986279
   0.80239980  0.39180189  0.60108212
   0.83576558  0.52591334  0.70136133
   0.81271210  0.60625486  0.79373319
   0.79774395  0.70960186  0.90818856
   0.81387143  0.80536815  0.00818478
   0.79140943  0.88997360  0.11887586
   0.78233352  0.99237663  0.19769756
   0.80559290  0.11172401  0.29899025
   0.80005176  0.18677934  0.39703722
   0.91161209  0.31039121  0.59648351
   0.89049853  0.41702522  0.69524769
   0.90474838  0.51777223  0.80889569
   0.91810827  0.62058972  0.89647478
   0.93003830  0.69446747  0.99604718
   0.90058403  0.78967087  0.10127449
   0.88226453  0.89672982  0.20227687
   0.89461476  0.00893310  0.29259340
   0.91743018  0.09297013  0.37998520
   0.89572201  0.17718616  0.51518340
   0.00476932  0.29771755  0.68726825
   0.99279216  0.40992755  0.78470539
   0.00988591  0.51398222  0.88430177
   0.02340010  0.58201380  0.01555820
   0.00277177  0.69782678  0.09350463
   0.99179536  0.80172592  0.19147332
   0.99319782  0.92410645  0.29326227
   0.00863890  0.01522578  0.39863010
   0.98476835  0.08375893  0.49020457
   0.98349908  0.15737358  0.61023822
   0.09711499  0.29356644  0.80428668
   0.09633175  0.39894439  0.89634089
   0.10059415  0.48376755  0.98945938
   0.09375678  0.57835097  0.11027779
   0.08723032  0.69625968  0.20363564
   0.08422206  0.80654310  0.29855860
   0.08187118  0.92713787  0.40542856
   0.11664097  0.01615680  0.47973115
   0.09134477  0.11164472  0.60837141
   0.10500883  0.20025601  0.72732247
   0.19894574  0.30669089  0.90959598
   0.19811033  0.41851738  0.02176619
   0.20275356  0.52065303  0.12147943
   0.18770520  0.60791872  0.22438722
   0.18659447  0.71259643  0.31047019
   0.19447201  0.81983347  0.37421668
   0.19844542  0.91960470  0.50027670
   0.20131503  0.01993811  0.61050951
   0.19978191  0.08918777  0.71943188
   0.20117686  0.19736221  0.82400367
   0.39429723  0.40994814  0.01347798
   0.38723033  0.49974476  0.10485412
   0.39704171  0.62778700  0.19012976
   0.39756346  0.69041693  0.27526386
   0.40533221  0.80240691  0.41125602
   0.42292396  0.89667680  0.50056547
   0.40395844  0.01171385  0.62324027
   0.41381852  0.10457843  0.71256507
   0.40594588  0.20662017  0.81441253
   0.42842216  0.31691258  0.92731426
   0.49069680  0.40473806  0.13066765
   0.49497333  0.53303684  0.19840738
   0.49709555  0.60206423  0.30547025
   0.48974675  0.69743768  0.37793759
   0.50952580  0.79864198  0.50953611
   0.48672021  0.89693193  0.61690665
   0.50276757  0.99937072  0.70071544
   0.50980805  0.07242619  0.81250635
   0.50933289  0.20649553  0.89880934
   0.52016633  0.31926245  0.00021700
   0.60228721  0.42112891  0.20036053
   0.60493537  0.51172749  0.30418819
   0.59691548  0.59876630  0.40630735
   0.61643157  0.68542980  0.49249524
   0.59488093  0.79431565  0.61519001
   0.61363397  0.91097768  0.71684879
   0.60326599  0.97517781  0.80048872
   0.60700970  0.09297836  0.89209698
   0.60403743  0.21610222  0.98699585
   0.59121708  0.31910124  0.10214144
   0.70027087  0.39228304  0.30063046
   0.70051396  0.49537813  0.40693614
   0.69046467  0.59093079  0.49636894
   0.69949160  0.69340962  0.58039214
   0.71118806  0.76855732  0.70958679
   0.70062386  0.89602958  0.80889010
   0.70863004  0.98980301  0.89104831
   0.69542395  0.10173036  0.99355337
   0.69281791  0.22250145  0.10754287
   0.69410244  0.30471620  0.21331542
   0.78658570  0.39150777  0.39829947
   0.78833981  0.49294355  0.49006824
   0.80054634  0.60438098  0.58733709
   0.81325430  0.68728834  0.68343772
   0.79456126  0.80596848  0.79289292
   0.80466527  0.89232901  0.88107240
   0.79162962  0.98021216  0.99907751
   0.78211599  0.08453046  0.08317335
   0.79921488  0.19144380  0.20441367
   0.78678462  0.28891062  0.30488899
   0.89698151  0.40567028  0.50345990
   0.91796319  0.49846572  0.59475929
   0.92774083  0.61487928  0.67024328
   0.89669298  0.70370788  0.78920851
   0.90039913  0.78383098  0.89286796
   0.89233622  0.88854799  0.98859956
   0.87568615  0.99106133  0.08978554
   0.88510017  0.09612375  0.19380372
   0.90837557  0.18629054  0.29615407
   0.90689268  0.29656552  0.39803382
   0.01369178  0.39246384  0.60097296
   0.00345126  0.49382307  0.69444325
   0.01204698  0.59286674  0.79112167
   0.02410422  0.68312383  0.89784813
   0.99309604  0.77754276  0.00084510
   0.99231483  0.88844728  0.08742120
   0.99475028  0.97636104  0.16736216
   0.99874187  0.09747637  0.26358744
   0.01163980  0.18861355  0.40188307
   0.00791689  0.29180291  0.48193558
   0.10394457  0.36799613  0.68718756
   0.11895686  0.50065328  0.76436870
   0.13722038  0.57666335  0.89894081
   0.10654183  0.69561203  0.00329887
   0.10359531  0.81300968  0.10373111
   0.11556374  0.90112958  0.20701918
   0.10142476  0.02336082  0.27983351
   0.09820605  0.10182261  0.40160084
   0.09743599  0.18455350  0.48973426
   0.10395109  0.25696622  0.60464824
   0.20952659  0.39190657  0.79339774
   0.22482904  0.48468771  0.87934323
   0.20935825  0.58289483  0.01807834
   0.19138853  0.68467860  0.11666082
   0.20675696  0.80502007  0.20327228
   0.18527482  0.90089168  0.30156576
   0.20248922  0.99978766  0.38372985
   0.21011213  0.11331843  0.51130493
   0.20780348  0.19210274  0.61577244
   0.20444369  0.28939513  0.70956626
   0.30030717  0.39551326  0.91396051
   0.30207035  0.51076387  0.00251629
   0.31773795  0.61004824  0.12071069
   0.27874859  0.70758452  0.19010771
   0.31481354  0.81266725  0.28053843
   0.30558548  0.91264965  0.39892088
   0.30932917  0.01207188  0.50678229
   0.29535421  0.11028228  0.61781750
   0.30077385  0.19299322  0.71614309
   0.31361124  0.28214812  0.81915079
