 504 504   0   0
  0.1982611E+02  0.2127286E-08  0.2105467E-08  0.2230970E-08  0.5000000E-15
  1.000000000000000E-004
  CAR 
 Li                                      
      3.62653302     -3.42086813  301      0.46321215      1.00000000
     -3.421  0.0000E+00  0.0000E+00
     -3.397  0.0000E+00  0.0000E+00
     -3.374  0.0000E+00  0.0000E+00
     -3.350  0.0000E+00  0.0000E+00
     -3.327  0.0000E+00  0.0000E+00
     -3.303  0.0000E+00  0.0000E+00
     -3.280  0.0000E+00  0.0000E+00
     -3.256  0.8407E-11  0.1975E-12
     -3.233  0.1825E-07  0.4290E-09
     -3.209  0.1195E-04  0.2811E-06
     -3.186  0.2379E-02  0.5618E-04
     -3.162  0.1462E+00  0.3490E-02
     -3.139  0.2821E+01  0.6975E-01
     -3.115  0.1747E+02  0.4801E+00
     -3.092  0.3540E+02  0.1312E+01
     -3.068  0.2371E+02  0.1869E+01
     -3.045  0.5666E+01  0.2002E+01
     -3.022  0.7889E+01  0.2187E+01
     -2.998  0.4449E+02  0.3232E+01
     -2.975  0.9722E+02  0.5516E+01
     -2.951  0.7938E+02  0.7381E+01
     -2.928  0.2402E+02  0.7945E+01
     -2.904  0.7652E+01  0.8125E+01
     -2.881  0.3588E+02  0.8968E+01
     -2.857  0.9092E+02  0.1110E+02
     -2.834  0.8726E+02  0.1315E+02
     -2.810  0.3317E+02  0.1393E+02
     -2.787  0.1779E+02  0.1435E+02
     -2.763  0.4982E+02  0.1552E+02
     -2.740  0.9765E+02  0.1781E+02
     -2.716  0.1097E+03  0.2039E+02
     -2.693  0.5784E+02  0.2175E+02
     -2.669  0.2751E+02  0.2240E+02
     -2.646  0.6844E+02  0.2401E+02
     -2.622  0.1332E+03  0.2713E+02
     -2.599  0.1566E+03  0.3081E+02
     -2.575  0.1026E+03  0.3322E+02
     -2.552  0.3341E+02  0.3401E+02
     -2.528  0.2680E+02  0.3464E+02
     -2.505  0.6443E+02  0.3615E+02
     -2.481  0.8868E+02  0.3823E+02
     -2.458  0.6686E+02  0.3980E+02
     -2.434  0.4806E+02  0.4093E+02
     -2.411  0.6039E+02  0.4235E+02
     -2.387  0.9309E+02  0.4454E+02
     -2.364  0.1289E+03  0.4757E+02
     -2.340  0.1262E+03  0.5053E+02
     -2.317  0.9644E+02  0.5280E+02
     -2.293  0.9922E+02  0.5513E+02
     -2.270  0.1231E+03  0.5802E+02
     -2.246  0.1676E+03  0.6195E+02
     -2.223  0.1846E+03  0.6629E+02
     -2.199  0.1262E+03  0.6926E+02
     -2.176  0.6421E+02  0.7077E+02
     -2.152  0.4473E+02  0.7182E+02
     -2.129  0.4819E+02  0.7295E+02
     -2.105  0.6846E+02  0.7456E+02
     -2.082  0.6390E+02  0.7606E+02
     -2.058  0.7346E+02  0.7778E+02
     -2.035  0.1098E+03  0.8036E+02
     -2.011  0.1421E+03  0.8370E+02
     -1.988  0.1593E+03  0.8744E+02
     -1.964  0.1336E+03  0.9058E+02
     -1.941  0.9256E+02  0.9276E+02
     -1.917  0.1001E+03  0.9511E+02
     -1.894  0.1322E+03  0.9821E+02
     -1.870  0.1835E+03  0.1025E+03
     -1.847  0.2102E+03  0.1075E+03
     -1.823  0.1413E+03  0.1108E+03
     -1.800  0.4817E+02  0.1119E+03
     -1.776  0.2854E+02  0.1126E+03
     -1.753  0.8156E+02  0.1145E+03
     -1.729  0.1439E+03  0.1179E+03
     -1.706  0.1446E+03  0.1213E+03
     -1.683  0.1264E+03  0.1242E+03
     -1.659  0.1404E+03  0.1275E+03
     -1.636  0.1602E+03  0.1313E+03
     -1.612  0.1818E+03  0.1356E+03
     -1.589  0.1718E+03  0.1396E+03
     -1.565  0.1224E+03  0.1425E+03
     -1.542  0.1120E+03  0.1451E+03
     -1.518  0.1354E+03  0.1483E+03
     -1.495  0.1591E+03  0.1520E+03
     -1.471  0.1729E+03  0.1561E+03
     -1.448  0.1389E+03  0.1594E+03
     -1.424  0.9481E+02  0.1616E+03
     -1.401  0.8875E+02  0.1637E+03
     -1.377  0.1003E+03  0.1660E+03
     -1.354  0.9955E+02  0.1684E+03
     -1.330  0.9331E+02  0.1706E+03
     -1.307  0.1282E+03  0.1736E+03
     -1.283  0.1546E+03  0.1772E+03
     -1.260  0.1378E+03  0.1804E+03
     -1.236  0.1467E+03  0.1839E+03
     -1.213  0.1683E+03  0.1878E+03
     -1.189  0.1614E+03  0.1916E+03
     -1.166  0.1639E+03  0.1955E+03
     -1.142  0.1942E+03  0.2000E+03
     -1.119  0.2308E+03  0.2055E+03
     -1.095  0.2341E+03  0.2110E+03
     -1.072  0.2030E+03  0.2157E+03
     -1.048  0.1744E+03  0.2198E+03
     -1.025  0.1613E+03  0.2236E+03
     -1.001  0.1423E+03  0.2270E+03
     -0.978  0.1211E+03  0.2298E+03
     -0.954  0.9649E+02  0.2321E+03
     -0.931  0.1071E+03  0.2346E+03
     -0.907  0.1559E+03  0.2383E+03
     -0.884  0.1638E+03  0.2421E+03
     -0.860  0.1414E+03  0.2454E+03
     -0.837  0.1533E+03  0.2490E+03
     -0.813  0.1738E+03  0.2531E+03
     -0.790  0.1944E+03  0.2577E+03
     -0.766  0.1924E+03  0.2622E+03
     -0.743  0.1648E+03  0.2661E+03
     -0.719  0.1392E+03  0.2693E+03
     -0.696  0.1143E+03  0.2720E+03
     -0.672  0.1368E+03  0.2752E+03
     -0.649  0.1817E+03  0.2795E+03
     -0.625  0.1571E+03  0.2832E+03
     -0.602  0.1373E+03  0.2864E+03
     -0.578  0.1526E+03  0.2900E+03
     -0.555  0.1806E+03  0.2942E+03
     -0.531  0.2252E+03  0.2995E+03
     -0.508  0.2497E+03  0.3054E+03
     -0.484  0.2247E+03  0.3107E+03
     -0.461  0.1920E+03  0.3152E+03
     -0.437  0.1911E+03  0.3197E+03
     -0.414  0.2179E+03  0.3248E+03
     -0.390  0.2359E+03  0.3303E+03
     -0.367  0.2132E+03  0.3354E+03
     -0.344  0.1695E+03  0.3393E+03
     -0.320  0.1307E+03  0.3424E+03
     -0.297  0.1412E+03  0.3457E+03
     -0.273  0.1888E+03  0.3502E+03
     -0.250  0.1935E+03  0.3547E+03
     -0.226  0.1530E+03  0.3583E+03
     -0.203  0.1469E+03  0.3617E+03
     -0.179  0.1808E+03  0.3660E+03
     -0.156  0.2011E+03  0.3707E+03
     -0.132  0.2037E+03  0.3755E+03
     -0.109  0.1965E+03  0.3801E+03
     -0.085  0.1805E+03  0.3844E+03
     -0.062  0.1765E+03  0.3885E+03
     -0.038  0.2081E+03  0.3934E+03
     -0.015  0.2642E+03  0.3996E+03
      0.009  0.2997E+03  0.4066E+03
      0.032  0.2856E+03  0.4134E+03
      0.056  0.2257E+03  0.4187E+03
      0.079  0.1825E+03  0.4229E+03
      0.103  0.1852E+03  0.4273E+03
      0.126  0.1949E+03  0.4319E+03
      0.150  0.1969E+03  0.4365E+03
      0.173  0.2004E+03  0.4412E+03
      0.197  0.2048E+03  0.4460E+03
      0.220  0.2061E+03  0.4509E+03
      0.244  0.1937E+03  0.4554E+03
      0.267  0.1770E+03  0.4596E+03
      0.291  0.1832E+03  0.4639E+03
      0.314  0.1949E+03  0.4685E+03
      0.338  0.1810E+03  0.4727E+03
      0.361  0.1828E+03  0.4770E+03
      0.385  0.2225E+03  0.4822E+03
      0.408  0.2579E+03  0.4883E+03
      0.432  0.2804E+03  0.4949E+03
      0.455  0.2893E+03  0.5017E+03
      0.479  0.2935E+03  0.5086E+03
      0.502  0.2935E+03  0.5155E+03
      0.526  0.2792E+03  0.5220E+03
      0.549  0.2739E+03  0.5285E+03
      0.573  0.2812E+03  0.5351E+03
      0.596  0.3071E+03  0.5423E+03
      0.620  0.3119E+03  0.5496E+03
      0.643  0.2821E+03  0.5562E+03
      0.667  0.2513E+03  0.5621E+03
      0.690  0.2314E+03  0.5676E+03
      0.714  0.2326E+03  0.5730E+03
      0.737  0.2438E+03  0.5788E+03
      0.761  0.2345E+03  0.5843E+03
      0.784  0.2003E+03  0.5890E+03
      0.808  0.1747E+03  0.5931E+03
      0.831  0.1970E+03  0.5977E+03
      0.855  0.2219E+03  0.6029E+03
      0.878  0.2284E+03  0.6083E+03
      0.902  0.2327E+03  0.6138E+03
      0.925  0.2279E+03  0.6191E+03
      0.949  0.1949E+03  0.6237E+03
      0.972  0.1696E+03  0.6277E+03
      0.996  0.1669E+03  0.6316E+03
      1.019  0.1728E+03  0.6356E+03
      1.042  0.2069E+03  0.6405E+03
      1.066  0.2486E+03  0.6463E+03
      1.089  0.2592E+03  0.6524E+03
      1.113  0.2470E+03  0.6582E+03
      1.136  0.2476E+03  0.6641E+03
      1.160  0.2527E+03  0.6700E+03
      1.183  0.2499E+03  0.6759E+03
      1.207  0.2297E+03  0.6813E+03
      1.230  0.2156E+03  0.6863E+03
      1.254  0.2185E+03  0.6914E+03
      1.277  0.2258E+03  0.6968E+03
      1.301  0.2273E+03  0.7021E+03
      1.324  0.2267E+03  0.7074E+03
      1.348  0.2358E+03  0.7130E+03
      1.371  0.2432E+03  0.7187E+03
      1.395  0.2297E+03  0.7241E+03
      1.418  0.2126E+03  0.7291E+03
      1.442  0.1952E+03  0.7336E+03
      1.465  0.1712E+03  0.7377E+03
      1.489  0.1741E+03  0.7418E+03
      1.512  0.1977E+03  0.7464E+03
      1.536  0.2177E+03  0.7515E+03
      1.559  0.2246E+03  0.7568E+03
      1.583  0.2177E+03  0.7619E+03
      1.606  0.1999E+03  0.7666E+03
      1.630  0.1917E+03  0.7711E+03
      1.653  0.2010E+03  0.7758E+03
      1.677  0.2194E+03  0.7810E+03
      1.700  0.2355E+03  0.7865E+03
      1.724  0.2366E+03  0.7921E+03
      1.747  0.2394E+03  0.7977E+03
      1.771  0.2376E+03  0.8033E+03
      1.794  0.2344E+03  0.8088E+03
      1.818  0.2345E+03  0.8143E+03
      1.841  0.2355E+03  0.8198E+03
      1.865  0.2382E+03  0.8254E+03
      1.888  0.2340E+03  0.8309E+03
      1.912  0.2171E+03  0.8360E+03
      1.935  0.2000E+03  0.8407E+03
      1.959  0.1905E+03  0.8452E+03
      1.982  0.1933E+03  0.8497E+03
      2.006  0.1967E+03  0.8544E+03
      2.029  0.1964E+03  0.8590E+03
      2.053  0.1987E+03  0.8636E+03
      2.076  0.1965E+03  0.8683E+03
      2.100  0.1963E+03  0.8729E+03
      2.123  0.2014E+03  0.8776E+03
      2.147  0.2036E+03  0.8824E+03
      2.170  0.1996E+03  0.8871E+03
      2.194  0.1874E+03  0.8915E+03
      2.217  0.1747E+03  0.8956E+03
      2.241  0.1635E+03  0.8994E+03
      2.264  0.1535E+03  0.9030E+03
      2.288  0.1497E+03  0.9065E+03
      2.311  0.1434E+03  0.9099E+03
      2.335  0.1346E+03  0.9131E+03
      2.358  0.1337E+03  0.9162E+03
      2.381  0.1385E+03  0.9195E+03
      2.405  0.1424E+03  0.9228E+03
      2.428  0.1522E+03  0.9264E+03
      2.452  0.1583E+03  0.9301E+03
      2.475  0.1441E+03  0.9335E+03
      2.499  0.1263E+03  0.9364E+03
      2.522  0.1210E+03  0.9393E+03
      2.546  0.1284E+03  0.9423E+03
      2.569  0.1416E+03  0.9456E+03
      2.593  0.1521E+03  0.9492E+03
      2.616  0.1501E+03  0.9527E+03
      2.640  0.1356E+03  0.9559E+03
      2.663  0.1283E+03  0.9589E+03
      2.687  0.1362E+03  0.9621E+03
      2.710  0.1456E+03  0.9656E+03
      2.734  0.1388E+03  0.9688E+03
      2.757  0.1212E+03  0.9717E+03
      2.781  0.1085E+03  0.9742E+03
      2.804  0.1080E+03  0.9767E+03
      2.828  0.1199E+03  0.9796E+03
      2.851  0.1256E+03  0.9825E+03
      2.875  0.1223E+03  0.9854E+03
      2.898  0.1203E+03  0.9882E+03
      2.922  0.1215E+03  0.9911E+03
      2.945  0.1224E+03  0.9939E+03
      2.969  0.1255E+03  0.9969E+03
      2.992  0.1218E+03  0.9998E+03
      3.016  0.9830E+02  0.1002E+04
      3.039  0.5867E+02  0.1003E+04
      3.063  0.2404E+02  0.1004E+04
      3.086  0.2178E+02  0.1005E+04
      3.110  0.3728E+02  0.1005E+04
      3.133  0.3599E+02  0.1006E+04
      3.157  0.3054E+02  0.1007E+04
      3.180  0.2640E+02  0.1008E+04
      3.204  0.1436E+02  0.1008E+04
      3.227  0.3853E+01  0.1008E+04
      3.251  0.4529E+01  0.1008E+04
      3.274  0.1692E+02  0.1009E+04
      3.298  0.2864E+02  0.1009E+04
      3.321  0.2411E+02  0.1010E+04
      3.345  0.9412E+01  0.1010E+04
      3.368  0.1402E+01  0.1010E+04
      3.392  0.7040E-01  0.1010E+04
      3.415  0.1125E-02  0.1010E+04
      3.439  0.5567E-05  0.1010E+04
      3.462  0.8389E-08  0.1010E+04
      3.486  0.3812E-11  0.1010E+04
      3.509  0.0000E+00  0.1010E+04
      3.533  0.0000E+00  0.1010E+04
      3.556  0.0000E+00  0.1010E+04
      3.580  0.0000E+00  0.1010E+04
      3.603  0.0000E+00  0.1010E+04
      3.627  0.0000E+00  0.1010E+04
