       N       E                     dE             d eps       ncg     rms          rms(c)
DAV:   1    -0.304109051844E+03   -0.30411E+03   -0.12303E+05  4040   0.658E+02
DAV:   2    -0.905465829707E+03   -0.60136E+03   -0.55152E+03  4604   0.677E+01
DAV:   3    -0.947383013748E+03   -0.41917E+02   -0.37938E+02  5120   0.141E+01
DAV:   4    -0.948824243190E+03   -0.14412E+01   -0.14157E+01  4640   0.282E+00
DAV:   5    -0.948855917917E+03   -0.31675E-01   -0.31609E-01  4768   0.452E-01    0.734E+00
DAV:   6    -0.961604198065E+03   -0.12748E+02   -0.87059E+00  4792   0.554E+00    0.102E+01
DAV:   7    -0.941697168016E+03    0.19907E+02   -0.84185E+00  4792   0.466E+00    0.345E+00
DAV:   8    -0.941649338335E+03    0.47830E-01   -0.41080E+00  4560   0.190E+00    0.288E+00
DAV:   9    -0.940967214807E+03    0.68212E+00   -0.20283E+00  4512   0.154E+00    0.182E+00
DAV:  10    -0.940654973760E+03    0.31224E+00   -0.71312E-01  4512   0.845E-01    0.997E-01
DAV:  11    -0.940644053632E+03    0.10920E-01   -0.22672E-01  4488   0.439E-01    0.711E-01
DAV:  12    -0.940615663878E+03    0.28390E-01   -0.90001E-02  4584   0.345E-01    0.497E-01
DAV:  13    -0.940599693725E+03    0.15970E-01   -0.25518E-02  4528   0.189E-01    0.265E-01
DAV:  14    -0.940600128006E+03   -0.43428E-03   -0.12163E-02  4576   0.137E-01    0.215E-01
DAV:  15    -0.940595465493E+03    0.46625E-02   -0.69589E-03  4552   0.993E-02    0.968E-02
DAV:  16    -0.940594918262E+03    0.54723E-03   -0.22106E-03  4456   0.470E-02    0.496E-02
DAV:  17    -0.940595014061E+03   -0.95799E-04   -0.58958E-04  4576   0.311E-02    0.470E-02
DAV:  18    -0.940594717182E+03    0.29688E-03   -0.33422E-04  4544   0.223E-02    0.184E-02
DAV:  19    -0.940594686692E+03    0.30491E-04   -0.11965E-04  4400   0.104E-02    0.106E-02
DAV:  20    -0.940594670478E+03    0.16214E-04   -0.40690E-05  3656   0.589E-03    0.538E-03
DAV:  21    -0.940594668457E+03    0.20202E-05   -0.83634E-06  2352   0.360E-03
   1 F= -.94059467E+03 E0= -.94052893E+03  d E =-.131487E+00
