 500 500   0   0
  0.2029568E+02  0.2165000E-08  0.2165000E-08  0.2165000E-08  0.5000000E-15
  1.000000000000000E-004
  CAR 
 Li                                      
      3.44593541     -3.43591902  301      0.39267987      1.00000000
     -3.436  0.0000E+00  0.0000E+00
     -3.413  0.0000E+00  0.0000E+00
     -3.390  0.0000E+00  0.0000E+00
     -3.367  0.0000E+00  0.0000E+00
     -3.344  0.0000E+00  0.0000E+00
     -3.321  0.0000E+00  0.0000E+00
     -3.298  0.4840E-14  0.1110E-15
     -3.275  0.3036E-10  0.6965E-12
     -3.252  0.4658E-07  0.1069E-08
     -3.229  0.2279E-04  0.5239E-06
     -3.207  0.3589E-02  0.8286E-04
     -3.184  0.1842E+00  0.4309E-02
     -3.161  0.3134E+01  0.7619E-01
     -3.138  0.1800E+02  0.4890E+00
     -3.115  0.3549E+02  0.1303E+01
     -3.092  0.2423E+02  0.1859E+01
     -3.069  0.6251E+01  0.2002E+01
     -3.046  0.8604E+01  0.2200E+01
     -3.023  0.4448E+02  0.3220E+01
     -3.000  0.9491E+02  0.5397E+01
     -2.977  0.8149E+02  0.7267E+01
     -2.954  0.2833E+02  0.7917E+01
     -2.931  0.8921E+01  0.8121E+01
     -2.908  0.3440E+02  0.8910E+01
     -2.885  0.8753E+02  0.1092E+02
     -2.862  0.9006E+02  0.1298E+02
     -2.839  0.3795E+02  0.1385E+02
     -2.817  0.1141E+02  0.1412E+02
     -2.794  0.3560E+02  0.1493E+02
     -2.771  0.9989E+02  0.1722E+02
     -2.748  0.1244E+03  0.2008E+02
     -2.725  0.6783E+02  0.2163E+02
     -2.702  0.2148E+02  0.2213E+02
     -2.679  0.4460E+02  0.2315E+02
     -2.656  0.1246E+03  0.2601E+02
     -2.633  0.1731E+03  0.2998E+02
     -2.610  0.1247E+03  0.3284E+02
     -2.587  0.4522E+02  0.3388E+02
     -2.564  0.2101E+02  0.3436E+02
     -2.541  0.5564E+02  0.3563E+02
     -2.518  0.9165E+02  0.3774E+02
     -2.495  0.7040E+02  0.3935E+02
     -2.472  0.2694E+02  0.3997E+02
     -2.450  0.2694E+02  0.4059E+02
     -2.427  0.9209E+02  0.4270E+02
     -2.404  0.1627E+03  0.4643E+02
     -2.381  0.1504E+03  0.4988E+02
     -2.358  0.7724E+02  0.5166E+02
     -2.335  0.4706E+02  0.5273E+02
     -2.312  0.1174E+03  0.5543E+02
     -2.289  0.2076E+03  0.6019E+02
     -2.266  0.2175E+03  0.6518E+02
     -2.243  0.1466E+03  0.6854E+02
     -2.220  0.5709E+02  0.6985E+02
     -2.197  0.3202E+02  0.7059E+02
     -2.174  0.7005E+02  0.7219E+02
     -2.151  0.9273E+02  0.7432E+02
     -2.128  0.5719E+02  0.7563E+02
     -2.105  0.2534E+02  0.7621E+02
     -2.082  0.5962E+02  0.7758E+02
     -2.060  0.1440E+03  0.8088E+02
     -2.037  0.1865E+03  0.8516E+02
     -2.014  0.1422E+03  0.8842E+02
     -1.991  0.6900E+02  0.9001E+02
     -1.968  0.7195E+02  0.9166E+02
     -1.945  0.1549E+03  0.9521E+02
     -1.922  0.2140E+03  0.1001E+03
     -1.899  0.1928E+03  0.1045E+03
     -1.876  0.1130E+03  0.1071E+03
     -1.853  0.5278E+02  0.1083E+03
     -1.830  0.7858E+02  0.1102E+03
     -1.807  0.1420E+03  0.1134E+03
     -1.784  0.1544E+03  0.1169E+03
     -1.761  0.1013E+03  0.1193E+03
     -1.738  0.6486E+02  0.1208E+03
     -1.715  0.1261E+03  0.1237E+03
     -1.693  0.2142E+03  0.1286E+03
     -1.670  0.2145E+03  0.1335E+03
     -1.647  0.1374E+03  0.1366E+03
     -1.624  0.6983E+02  0.1382E+03
     -1.601  0.9211E+02  0.1404E+03
     -1.578  0.1824E+03  0.1445E+03
     -1.555  0.2287E+03  0.1498E+03
     -1.532  0.1751E+03  0.1538E+03
     -1.509  0.8537E+02  0.1558E+03
     -1.486  0.6421E+02  0.1572E+03
     -1.463  0.1156E+03  0.1599E+03
     -1.440  0.1521E+03  0.1634E+03
     -1.417  0.1280E+03  0.1663E+03
     -1.394  0.7094E+02  0.1679E+03
     -1.371  0.6685E+02  0.1695E+03
     -1.348  0.1200E+03  0.1722E+03
     -1.325  0.1483E+03  0.1756E+03
     -1.303  0.1216E+03  0.1784E+03
     -1.280  0.7962E+02  0.1802E+03
     -1.257  0.1160E+03  0.1829E+03
     -1.234  0.2231E+03  0.1880E+03
     -1.211  0.2916E+03  0.1947E+03
     -1.188  0.2923E+03  0.2014E+03
     -1.165  0.2314E+03  0.2067E+03
     -1.142  0.1518E+03  0.2102E+03
     -1.119  0.1513E+03  0.2137E+03
     -1.096  0.2065E+03  0.2184E+03
     -1.073  0.2063E+03  0.2231E+03
     -1.050  0.1438E+03  0.2264E+03
     -1.027  0.8260E+02  0.2283E+03
     -1.004  0.7526E+02  0.2301E+03
     -0.981  0.1255E+03  0.2329E+03
     -0.958  0.1809E+03  0.2371E+03
     -0.936  0.1651E+03  0.2409E+03
     -0.913  0.1461E+03  0.2442E+03
     -0.890  0.1986E+03  0.2488E+03
     -0.867  0.2402E+03  0.2543E+03
     -0.844  0.2242E+03  0.2594E+03
     -0.821  0.1716E+03  0.2634E+03
     -0.798  0.9411E+02  0.2655E+03
     -0.775  0.4869E+02  0.2667E+03
     -0.752  0.6074E+02  0.2680E+03
     -0.729  0.7614E+02  0.2698E+03
     -0.706  0.7402E+02  0.2715E+03
     -0.683  0.9589E+02  0.2737E+03
     -0.660  0.1846E+03  0.2779E+03
     -0.637  0.2657E+03  0.2840E+03
     -0.614  0.2826E+03  0.2905E+03
     -0.591  0.2785E+03  0.2969E+03
     -0.568  0.2627E+03  0.3029E+03
     -0.546  0.2244E+03  0.3081E+03
     -0.523  0.2114E+03  0.3129E+03
     -0.500  0.2451E+03  0.3185E+03
     -0.477  0.2757E+03  0.3249E+03
     -0.454  0.2446E+03  0.3305E+03
     -0.431  0.1705E+03  0.3344E+03
     -0.408  0.1124E+03  0.3370E+03
     -0.385  0.1025E+03  0.3393E+03
     -0.362  0.1404E+03  0.3425E+03
     -0.339  0.1676E+03  0.3464E+03
     -0.316  0.1816E+03  0.3505E+03
     -0.293  0.1881E+03  0.3549E+03
     -0.270  0.1768E+03  0.3589E+03
     -0.247  0.1660E+03  0.3627E+03
     -0.224  0.1603E+03  0.3664E+03
     -0.201  0.1735E+03  0.3704E+03
     -0.179  0.2269E+03  0.3756E+03
     -0.156  0.2651E+03  0.3817E+03
     -0.133  0.2661E+03  0.3878E+03
     -0.110  0.2490E+03  0.3935E+03
     -0.087  0.2211E+03  0.3986E+03
     -0.064  0.2073E+03  0.4033E+03
     -0.041  0.2088E+03  0.4081E+03
     -0.018  0.1924E+03  0.4125E+03
      0.005  0.1337E+03  0.4156E+03
      0.028  0.1169E+03  0.4183E+03
      0.051  0.1804E+03  0.4224E+03
      0.074  0.2330E+03  0.4277E+03
      0.097  0.2506E+03  0.4335E+03
      0.120  0.2437E+03  0.4391E+03
      0.143  0.2269E+03  0.4443E+03
      0.166  0.2188E+03  0.4493E+03
      0.189  0.2174E+03  0.4543E+03
      0.211  0.2072E+03  0.4590E+03
      0.234  0.1902E+03  0.4634E+03
      0.257  0.1867E+03  0.4677E+03
      0.280  0.2091E+03  0.4725E+03
      0.303  0.2355E+03  0.4779E+03
      0.326  0.2432E+03  0.4835E+03
      0.349  0.2502E+03  0.4892E+03
      0.372  0.2564E+03  0.4951E+03
      0.395  0.2365E+03  0.5005E+03
      0.418  0.2240E+03  0.5057E+03
      0.441  0.2375E+03  0.5111E+03
      0.464  0.2497E+03  0.5168E+03
      0.487  0.2466E+03  0.5225E+03
      0.510  0.2472E+03  0.5282E+03
      0.533  0.2657E+03  0.5343E+03
      0.556  0.2945E+03  0.5410E+03
      0.578  0.3221E+03  0.5484E+03
      0.601  0.3208E+03  0.5558E+03
      0.624  0.3053E+03  0.5628E+03
      0.647  0.3001E+03  0.5696E+03
      0.670  0.2914E+03  0.5763E+03
      0.693  0.2734E+03  0.5826E+03
      0.716  0.2567E+03  0.5885E+03
      0.739  0.2418E+03  0.5940E+03
      0.762  0.2297E+03  0.5993E+03
      0.785  0.2185E+03  0.6043E+03
      0.808  0.2029E+03  0.6090E+03
      0.831  0.1799E+03  0.6131E+03
      0.854  0.1499E+03  0.6165E+03
      0.877  0.1478E+03  0.6199E+03
      0.900  0.1600E+03  0.6236E+03
      0.923  0.1593E+03  0.6273E+03
      0.946  0.1589E+03  0.6309E+03
      0.968  0.1757E+03  0.6349E+03
      0.991  0.2004E+03  0.6395E+03
      1.014  0.2223E+03  0.6446E+03
      1.037  0.2372E+03  0.6501E+03
      1.060  0.2451E+03  0.6557E+03
      1.083  0.2461E+03  0.6613E+03
      1.106  0.2476E+03  0.6670E+03
      1.129  0.2537E+03  0.6728E+03
      1.152  0.2667E+03  0.6790E+03
      1.175  0.2696E+03  0.6851E+03
      1.198  0.2490E+03  0.6909E+03
      1.221  0.2347E+03  0.6962E+03
      1.244  0.2386E+03  0.7017E+03
      1.267  0.2452E+03  0.7073E+03
      1.290  0.2320E+03  0.7127E+03
      1.313  0.2130E+03  0.7175E+03
      1.336  0.2070E+03  0.7223E+03
      1.358  0.2043E+03  0.7270E+03
      1.381  0.1970E+03  0.7315E+03
      1.404  0.2048E+03  0.7362E+03
      1.427  0.2284E+03  0.7414E+03
      1.450  0.2301E+03  0.7467E+03
      1.473  0.2148E+03  0.7516E+03
      1.496  0.2078E+03  0.7564E+03
      1.519  0.1952E+03  0.7609E+03
      1.542  0.1772E+03  0.7650E+03
      1.565  0.1635E+03  0.7687E+03
      1.588  0.1532E+03  0.7722E+03
      1.611  0.1491E+03  0.7756E+03
      1.634  0.1552E+03  0.7792E+03
      1.657  0.1529E+03  0.7827E+03
      1.680  0.1446E+03  0.7860E+03
      1.703  0.1402E+03  0.7892E+03
      1.725  0.1376E+03  0.7924E+03
      1.748  0.1506E+03  0.7959E+03
      1.771  0.1665E+03  0.7997E+03
      1.794  0.1805E+03  0.8038E+03
      1.817  0.2047E+03  0.8085E+03
      1.840  0.2189E+03  0.8135E+03
      1.863  0.2238E+03  0.8187E+03
      1.886  0.2301E+03  0.8239E+03
      1.909  0.2343E+03  0.8293E+03
      1.932  0.2303E+03  0.8346E+03
      1.955  0.2301E+03  0.8399E+03
      1.978  0.2299E+03  0.8451E+03
      2.001  0.2137E+03  0.8501E+03
      2.024  0.1926E+03  0.8545E+03
      2.047  0.1816E+03  0.8586E+03
      2.070  0.1731E+03  0.8626E+03
      2.093  0.1563E+03  0.8662E+03
      2.115  0.1392E+03  0.8694E+03
      2.138  0.1365E+03  0.8725E+03
      2.161  0.1439E+03  0.8758E+03
      2.184  0.1409E+03  0.8791E+03
      2.207  0.1311E+03  0.8821E+03
      2.230  0.1365E+03  0.8852E+03
      2.253  0.1443E+03  0.8885E+03
      2.276  0.1534E+03  0.8920E+03
      2.299  0.1673E+03  0.8959E+03
      2.322  0.1680E+03  0.8997E+03
      2.345  0.1595E+03  0.9034E+03
      2.368  0.1484E+03  0.9068E+03
      2.391  0.1328E+03  0.9098E+03
      2.414  0.1312E+03  0.9128E+03
      2.437  0.1440E+03  0.9161E+03
      2.460  0.1444E+03  0.9194E+03
      2.482  0.1351E+03  0.9225E+03
      2.505  0.1392E+03  0.9257E+03
      2.528  0.1529E+03  0.9292E+03
      2.551  0.1596E+03  0.9329E+03
      2.574  0.1534E+03  0.9364E+03
      2.597  0.1354E+03  0.9395E+03
      2.620  0.1220E+03  0.9423E+03
      2.643  0.1109E+03  0.9449E+03
      2.666  0.1031E+03  0.9472E+03
      2.689  0.1179E+03  0.9499E+03
      2.712  0.1426E+03  0.9532E+03
      2.735  0.1558E+03  0.9568E+03
      2.758  0.1502E+03  0.9602E+03
      2.781  0.1424E+03  0.9635E+03
      2.804  0.1459E+03  0.9668E+03
      2.827  0.1479E+03  0.9702E+03
      2.850  0.1527E+03  0.9737E+03
      2.872  0.1570E+03  0.9773E+03
      2.895  0.1509E+03  0.9808E+03
      2.918  0.1315E+03  0.9838E+03
      2.941  0.1027E+03  0.9862E+03
      2.964  0.6044E+02  0.9876E+03
      2.987  0.2840E+02  0.9882E+03
      3.010  0.2875E+02  0.9889E+03
      3.033  0.5796E+02  0.9902E+03
      3.056  0.1001E+03  0.9925E+03
      3.079  0.1222E+03  0.9953E+03
      3.102  0.1171E+03  0.9980E+03
      3.125  0.9705E+02  0.1000E+04
      3.148  0.5797E+02  0.1002E+04
      3.171  0.1762E+02  0.1002E+04
      3.194  0.2190E+01  0.1002E+04
      3.217  0.1007E+00  0.1002E+04
      3.239  0.1628E-02  0.1002E+04
      3.262  0.8978E-05  0.1002E+04
      3.285  0.1650E-07  0.1002E+04
      3.308  0.9936E-11  0.1002E+04
      3.331  0.0000E+00  0.1002E+04
      3.354  0.0000E+00  0.1002E+04
      3.377  0.0000E+00  0.1002E+04
      3.400  0.0000E+00  0.1002E+04
      3.423  0.0000E+00  0.1002E+04
      3.446  0.0000E+00  0.1002E+04
