Li                                      
           1
    21.650000    0.000000    0.000000
     0.000000   21.650000    0.000000
    -0.000000   -0.000000   21.650000
   Li
   500
Direct configuration=     1
   0.01494264  0.98767366  0.02755307
   0.00970253  0.10513100  0.11213513
   0.01673869  0.20546053  0.21632327
   0.99355582  0.32080362  0.30657869
   0.00588352  0.39603187  0.39248328
   0.99140714  0.51200157  0.48288941
   0.00531895  0.60215263  0.59439906
   0.01679810  0.70232698  0.68316075
   0.01277911  0.79935953  0.79521357
   0.00422199  0.91262117  0.90194433
   0.11301990  0.00955445  0.10984933
   0.10063587  0.11190900  0.21044895
   0.11297898  0.21102356  0.30432988
   0.10765913  0.32422544  0.39742684
   0.09978282  0.41146635  0.48928157
   0.08681132  0.49382040  0.57330152
   0.11160925  0.59326070  0.68110601
   0.11203759  0.69933409  0.79916994
   0.09521620  0.79722860  0.88994231
   0.09474381  0.88439993  0.99823326
   0.20266942  0.99632199  0.19679665
   0.19976885  0.07823718  0.27509964
   0.19586750  0.21123471  0.39086537
   0.17983107  0.31358002  0.51071786
   0.19241227  0.39811008  0.59505014
   0.17225248  0.49899112  0.69716943
   0.18270580  0.57224608  0.79007175
   0.22184523  0.67875413  0.89329388
   0.19602422  0.79954879  0.99694953
   0.18214234  0.88882541  0.11148296
   0.30172847  0.00478718  0.29996783
   0.29357309  0.10384088  0.40126163
   0.28182388  0.20650635  0.51378635
   0.28642048  0.29697888  0.61102623
   0.29749342  0.40641459  0.70082774
   0.29566028  0.48878469  0.80796808
   0.29765872  0.59778732  0.89924643
   0.28823482  0.70307916  0.98499253
   0.29520350  0.79304222  0.10186389
   0.28199025  0.90656289  0.20408597
   0.39088600  0.01236563  0.39680195
   0.40124555  0.11486263  0.51152248
   0.39507285  0.20794466  0.60157225
   0.40589944  0.30167520  0.68835413
   0.40896815  0.39815547  0.80393664
   0.40836377  0.48744128  0.90293234
   0.38875545  0.58800339  0.99774140
   0.38897238  0.68673545  0.10307085
   0.38920707  0.81107912  0.19352515
   0.39915475  0.90305999  0.29423766
   0.51013970  0.98824322  0.50086971
   0.48245632  0.09078687  0.59802979
   0.48199931  0.16937431  0.69840183
   0.49039662  0.28818468  0.79002336
   0.49466710  0.39452930  0.90673795
   0.47722569  0.50195730  0.01024286
   0.50142752  0.60002435  0.09608228
   0.49355018  0.71865690  0.19395730
   0.50923910  0.82389036  0.31166547
   0.50074750  0.90540257  0.40066245
   0.61080052  0.00115475  0.59451414
   0.61372246  0.08766909  0.70653333
   0.59475201  0.17972589  0.77085860
   0.58721415  0.30098199  0.87355528
   0.60700967  0.41379940  0.99826336
   0.60354773  0.50967431  0.09762928
   0.59471177  0.61483607  0.17651312
   0.59737421  0.71884385  0.30704410
   0.60585203  0.80975685  0.41140628
   0.61147893  0.91586214  0.49716922
   0.69023996  0.99854386  0.71850851
   0.69567538  0.09176409  0.79871451
   0.70020492  0.20482198  0.88238567
   0.70565477  0.30133916  0.99423444
   0.70499161  0.41608577  0.08875717
   0.68919611  0.51585759  0.19920120
   0.67767022  0.61792796  0.30348359
   0.69087355  0.70195857  0.41636587
   0.70544524  0.81001422  0.51358050
   0.68751833  0.90829952  0.59613431
   0.80742897  0.97036366  0.80724873
   0.81577580  0.08483243  0.91145243
   0.81597656  0.19414585  0.99348718
   0.79994526  0.29819818  0.09828198
   0.79106268  0.40632678  0.20651661
   0.78639962  0.49664630  0.29290745
   0.78467836  0.59077852  0.40476580
   0.77720767  0.70243075  0.50385121
   0.80234850  0.81814530  0.59351286
   0.80779172  0.88820252  0.71146732
   0.90778891  0.98829278  0.90648339
   0.90265273  0.10544842  0.02721537
   0.88552868  0.21529673  0.10694573
   0.88513743  0.30155618  0.20732653
   0.88926426  0.40911845  0.30562160
   0.88079524  0.50564069  0.41277154
   0.88046470  0.60651571  0.52065551
   0.88407517  0.71373999  0.60079862
   0.91261295  0.80752624  0.70956426
   0.90226991  0.88862430  0.82680984
   0.12664244  0.10232933  0.01355345
   0.09793816  0.20498405  0.12055231
   0.09621543  0.31584972  0.20400889
   0.09987510  0.40910961  0.28216391
   0.10992971  0.50120780  0.40834422
   0.12372520  0.60222989  0.48358359
   0.10702640  0.70969200  0.57762984
   0.11580772  0.79687309  0.71441328
   0.11891215  0.90132282  0.80401892
   0.09285056  0.99790876  0.89413528
   0.22538527  0.10932169  0.12520698
   0.20836903  0.22164875  0.21374709
   0.18984521  0.31194272  0.30303148
   0.21433734  0.40657685  0.40731286
   0.19921287  0.49785857  0.50242969
   0.20594857  0.59095007  0.61202236
   0.19959144  0.69871759  0.69178657
   0.21690244  0.79931478  0.80803136
   0.18684818  0.88926365  0.89937825
   0.18190514  0.97951959  0.99800096
   0.30915774  0.11389115  0.19325287
   0.28508645  0.21036046  0.30511126
   0.31058178  0.31529510  0.42162174
   0.30834574  0.42511436  0.50662897
   0.30242036  0.50231389  0.60014930
   0.29840849  0.59345584  0.70271561
   0.30107795  0.68254265  0.79147163
   0.30684587  0.78833035  0.89620580
   0.30065981  0.89962444  0.99582702
   0.30409123  0.99889503  0.09902385
   0.39477478  0.10393688  0.30043050
   0.39387131  0.19365653  0.42472305
   0.39639940  0.30821769  0.51572561
   0.38300861  0.39231709  0.58808583
   0.38258480  0.49148647  0.70904368
   0.38512691  0.59591736  0.79203102
   0.37430713  0.70029924  0.88755652
   0.39070978  0.79697015  0.98666529
   0.39699554  0.89960147  0.09773522
   0.40198291  0.00192372  0.20579163
   0.52338131  0.08767984  0.38953396
   0.52299179  0.18745189  0.51609939
   0.51433668  0.29190255  0.60277448
   0.49214378  0.40730250  0.69049246
   0.48577967  0.47659184  0.81174668
   0.48671045  0.58664511  0.91447460
   0.48509884  0.70460894  0.98920876
   0.47997370  0.80350692  0.07438280
   0.47406364  0.88835541  0.18369597
   0.50633770  0.98526866  0.29223291
   0.61890667  0.09229306  0.48551534
   0.61160393  0.18889636  0.60788403
   0.60375186  0.27492460  0.71732926
   0.60311044  0.40188528  0.78850185
   0.58435002  0.49449509  0.90238795
   0.58921831  0.59932792  0.99554750
   0.59068589  0.70608315  0.10331654
   0.59015481  0.82612236  0.19095748
   0.60053790  0.90937681  0.29848699
   0.59409955  0.03057390  0.38834621
   0.71161980  0.09118518  0.58845124
   0.71284158  0.18641908  0.68941529
   0.70336657  0.30496154  0.79283536
   0.70199177  0.40466284  0.89853649
   0.71607477  0.52916768  0.98709610
   0.70748742  0.60491858  0.07905664
   0.69538845  0.70596438  0.19348016
   0.69739689  0.81433277  0.30299730
   0.70860192  0.91423779  0.38052004
   0.72027660  0.01092762  0.49384643
   0.81234650  0.06962304  0.68405008
   0.80368614  0.18288037  0.79045094
   0.79746026  0.29246837  0.88601035
   0.81159050  0.40502243  0.99727307
   0.79895450  0.50602869  0.11330521
   0.79450352  0.60148204  0.19572376
   0.79987332  0.71038399  0.30493127
   0.77824000  0.80736048  0.42093847
   0.82020745  0.89898631  0.49109729
   0.79686522  0.98454967  0.62068708
   0.88963681  0.08513963  0.80419763
   0.89926647  0.19925141  0.87990759
   0.90979971  0.30205037  0.98907508
   0.90770576  0.40908492  0.09670214
   0.89673152  0.50921577  0.20095326
   0.89080475  0.59797644  0.30533408
   0.89625940  0.71606748  0.42265200
   0.90852198  0.80002897  0.50715712
   0.90377722  0.90942965  0.58766815
   0.90066379  0.97093715  0.69930913
   0.99621236  0.09400209  0.91745035
   0.99129297  0.19031198  0.00939116
   0.98499434  0.30869355  0.10630006
   0.99481568  0.40180824  0.20776441
   0.99106950  0.50382788  0.30436949
   0.99389475  0.62439992  0.41106867
   0.01228464  0.70535581  0.50008622
   0.01873302  0.80683997  0.59273189
   0.01223841  0.91534614  0.69894874
   0.00384492  0.99205394  0.80047866
   0.21415304  0.20935156  0.00542316
   0.21751743  0.29065596  0.10423587
   0.20784936  0.40595841  0.17790116
   0.20014106  0.49709031  0.29337943
   0.22198664  0.60554802  0.38531230
   0.22991589  0.69242833  0.48945766
   0.19708833  0.78510862  0.57984028
   0.20654725  0.88876702  0.70145972
   0.18537898  0.00616289  0.80224329
   0.21578906  0.09775567  0.91067816
   0.31966873  0.18722794  0.11880839
   0.31593278  0.31754336  0.21242469
   0.31177386  0.37892920  0.31120034
   0.29529899  0.49601315  0.37131353
   0.30270721  0.59425229  0.50010381
   0.30182108  0.72803121  0.60136850
   0.29225855  0.80526660  0.69225310
   0.30370535  0.90360302  0.80482734
   0.29436343  0.99848929  0.88725847
   0.29055343  0.10270673  0.99421480
   0.43139121  0.20506618  0.23599595
   0.41881708  0.29794218  0.32717256
   0.40226621  0.39521368  0.42680258
   0.40865683  0.51807138  0.49915871
   0.39945023  0.59838836  0.59230875
   0.41252542  0.69222807  0.69026727
   0.38452364  0.80163284  0.77777640
   0.38128739  0.89417447  0.90608359
   0.40851819  0.01374739  0.01014277
   0.41790652  0.10072850  0.10179237
   0.52399909  0.20490820  0.31955850
   0.51425789  0.29234868  0.41052542
   0.49355649  0.39480811  0.50964245
   0.49883565  0.49903122  0.61879631
   0.52497565  0.59154090  0.69856757
   0.50211709  0.70422374  0.80736784
   0.47623639  0.80123453  0.89232265
   0.49172446  0.91155850  0.98596086
   0.50834669  0.01809763  0.09317025
   0.52066172  0.10080174  0.21541141
   0.62285595  0.21419646  0.40361768
   0.62377878  0.30115382  0.51156337
   0.60954664  0.39992950  0.61764579
   0.59957660  0.48328759  0.71878028
   0.59383131  0.57229876  0.81666778
   0.59979414  0.70405622  0.89296062
   0.57300081  0.78905965  0.99131434
   0.57367198  0.89504847  0.07907210
   0.59526773  0.97359917  0.21082047
   0.62026789  0.09701201  0.27990725
   0.71659434  0.20522783  0.50326049
   0.69590318  0.29018757  0.59956159
   0.70130412  0.38052236  0.69574967
   0.70224426  0.48054118  0.79421479
   0.69941604  0.59444226  0.90597577
   0.67941667  0.71740658  0.99620875
   0.70500046  0.78774294  0.09800470
   0.70748851  0.89555089  0.20500025
   0.72058078  0.00168142  0.31045607
   0.71867396  0.08852845  0.38028056
   0.81177254  0.17964908  0.59046038
   0.81276276  0.30687893  0.69818823
   0.81782313  0.40816608  0.79338796
   0.80841833  0.50052744  0.90112667
   0.81487626  0.62158360  0.00296052
   0.80453158  0.70998498  0.11203111
   0.82370350  0.77885925  0.20921419
   0.80562754  0.88481031  0.30652043
   0.81917428  0.99449798  0.40048442
   0.80440921  0.07545580  0.50050332
   0.89850100  0.17604507  0.68107650
   0.91226836  0.28897789  0.79533512
   0.90280409  0.40023650  0.90236458
   0.88225480  0.51381554  0.99450962
   0.92732941  0.61451112  0.09886097
   0.89527121  0.69093051  0.19459453
   0.90926778  0.79878141  0.32095913
   0.91431657  0.89479211  0.40520819
   0.90016949  0.99259308  0.49178320
   0.92214366  0.06274620  0.58838245
   0.99146582  0.18261358  0.77885640
   0.00401744  0.29793252  0.88153197
   0.99797423  0.41806442  0.99674891
   0.00308052  0.48670785  0.10615887
   0.98911436  0.61162917  0.20767597
   0.00325573  0.71191033  0.30159949
   0.02358359  0.79790040  0.40724525
   0.01074068  0.92322447  0.48702576
   0.00934930  0.00040474  0.59997449
   0.01811821  0.07972248  0.69629099
   0.08410789  0.18830732  0.88100892
   0.09286990  0.28106788  0.99543462
   0.10545078  0.38237251  0.09512636
   0.09340225  0.49928735  0.18341645
   0.08702797  0.57250753  0.29993690
   0.11876376  0.70583321  0.40535381
   0.11581696  0.79363757  0.48603895
   0.10778255  0.89108026  0.59415877
   0.10377712  0.00573663  0.70642413
   0.09698962  0.11057544  0.80950654
   0.29887639  0.29132813  0.99439585
   0.30498039  0.37860616  0.08648370
   0.29648633  0.48125768  0.18962331
   0.32084676  0.59206526  0.27410444
   0.30669465  0.68913664  0.37335124
   0.29601213  0.81586369  0.49027817
   0.30764278  0.88623611  0.57663711
   0.28116034  0.98707470  0.69472847
   0.28037775  0.07820592  0.78915952
   0.29926251  0.20841063  0.91638292
   0.40750361  0.29716315  0.09529374
   0.39564229  0.40493909  0.21821165
   0.39334847  0.49612199  0.30307875
   0.41084429  0.60916758  0.39798391
   0.38675097  0.71039148  0.49017827
   0.39271301  0.79637046  0.60444298
   0.39703067  0.90675909  0.68459904
   0.39671227  0.01127898  0.78565250
   0.38441627  0.10212166  0.88381722
   0.41375613  0.17756599  0.99301258
   0.51710961  0.29809355  0.20986432
   0.49473924  0.39387203  0.31498633
   0.49087953  0.49869038  0.40183450
   0.49836603  0.61097121  0.49426239
   0.50528365  0.70711895  0.60141167
   0.48013822  0.80958518  0.69202002
   0.48323134  0.89814717  0.81318219
   0.48423773  0.00756225  0.91942493
   0.51568519  0.10049460  0.99295164
   0.51322523  0.20614507  0.10227412
   0.60290580  0.31111581  0.31299148
   0.59388126  0.39519088  0.41568983
   0.58812137  0.48392377  0.52266684
   0.60774285  0.60140675  0.61043398
   0.57783955  0.71400826  0.70834308
   0.58997036  0.78716415  0.80466790
   0.58329387  0.89107325  0.90373737
   0.61536157  0.01171940  0.98099894
   0.60348057  0.11832935  0.10850152
   0.61728274  0.21920367  0.20486654
   0.72607011  0.30882908  0.40799239
   0.70698432  0.39709446  0.52801914
   0.68192607  0.51799467  0.61277645
   0.67288083  0.60362407  0.71695186
   0.68396717  0.69390921  0.79759503
   0.67860495  0.81042899  0.90997165
   0.68436297  0.89361834  0.01304732
   0.68197543  0.00549147  0.09510262
   0.69904179  0.07838182  0.19953512
   0.71010892  0.19813637  0.30107738
   0.82284829  0.30354957  0.52882226
   0.80317023  0.41136359  0.62196401
   0.78561463  0.49658259  0.70397654
   0.79623079  0.61160941  0.80353065
   0.79303092  0.70268984  0.90468992
   0.80363821  0.81163851  0.99544577
   0.80192283  0.87718203  0.11154179
   0.81433616  0.99811302  0.17834169
   0.80702101  0.09543754  0.27152548
   0.79160305  0.19358557  0.42173892
   0.90011263  0.28920690  0.60043647
   0.92786611  0.40631777  0.68542369
   0.91323736  0.51763350  0.79549050
   0.92081327  0.59465493  0.90117040
   0.89511161  0.72498146  0.00241647
   0.90269010  0.80340574  0.10935455
   0.89590286  0.90573383  0.19098444
   0.89748947  0.98753246  0.29190233
   0.90274993  0.10247506  0.39931881
   0.89509606  0.19475423  0.48965568
   0.98825403  0.29123774  0.67584657
   0.99027127  0.38854917  0.79444201
   0.99290296  0.51163652  0.90698579
   0.01377222  0.59289561  0.00216914
   0.99830755  0.68457379  0.09687795
   0.99860962  0.79283489  0.21638803
   0.98849638  0.89842448  0.31101495
   0.99222542  0.99161002  0.39584714
   0.00894239  0.09982449  0.47007732
   0.99262988  0.18347783  0.59094744
   0.07972196  0.27937333  0.78712626
   0.09150126  0.40328265  0.89665422
   0.09799440  0.49426754  0.01454133
   0.11326690  0.60996033  0.11011613
   0.11176891  0.66660738  0.21706515
   0.09142716  0.80465285  0.28012195
   0.11858819  0.90874899  0.38229147
   0.09031574  0.99249059  0.49085734
   0.09252152  0.09609992  0.60302671
   0.09768084  0.20587763  0.66314973
   0.18745187  0.30458517  0.89053332
   0.19996590  0.37810019  0.00538284
   0.19872942  0.49225146  0.10319349
   0.21750928  0.58169182  0.20343661
   0.20663104  0.70278065  0.28712013
   0.21906986  0.80923690  0.39034908
   0.21479515  0.92607923  0.50235670
   0.20462756  0.99887089  0.59118817
   0.18993282  0.11347789  0.69895431
   0.20366892  0.19404162  0.79926227
   0.38783313  0.39233869  0.00269601
   0.38056947  0.50040624  0.10993151
   0.38616625  0.59694251  0.19932752
   0.39637217  0.71273058  0.29289732
   0.41043253  0.81614877  0.39515664
   0.40023130  0.90640553  0.48926351
   0.38453264  0.97934605  0.58452203
   0.39537698  0.07004882  0.68301039
   0.38221483  0.21836038  0.77947920
   0.39186975  0.28787464  0.89264570
   0.49484883  0.39570969  0.10682259
   0.50230720  0.49478008  0.19266662
   0.50659323  0.61196407  0.28625607
   0.49130983  0.72475697  0.39918209
   0.48346055  0.80622709  0.49622007
   0.49316841  0.91117793  0.60107547
   0.49033097  0.99496621  0.68513434
   0.50535262  0.09906729  0.79019255
   0.49435236  0.19139189  0.86520620
   0.50850377  0.29106449  0.00212615
   0.58808470  0.38905426  0.18930784
   0.60186838  0.51476675  0.29680359
   0.57990397  0.59739927  0.39631563
   0.59179919  0.70641034  0.51173492
   0.58860809  0.80235521  0.60388922
   0.60295227  0.89041310  0.70424187
   0.58429005  0.98625325  0.81782504
   0.61065977  0.08191595  0.89568508
   0.59366183  0.19874402  0.95467025
   0.60899524  0.30254305  0.08474817
   0.68654484  0.42088316  0.29972769
   0.70807905  0.48888148  0.41523909
   0.67410901  0.61713526  0.48323667
   0.69640447  0.69426523  0.60000574
   0.70008877  0.79645893  0.70597625
   0.69247105  0.89671110  0.80894311
   0.71473493  0.99828972  0.91645260
   0.71034260  0.11272963  0.01358578
   0.69447635  0.20222530  0.07963528
   0.68936822  0.30101441  0.20036090
   0.80680684  0.40205539  0.40397772
   0.79918635  0.51199823  0.51180099
   0.78071444  0.59500888  0.60778235
   0.80262589  0.71897615  0.70670254
   0.79571436  0.79343311  0.81647394
   0.79653427  0.89315626  0.91040508
   0.79979031  0.99151294  0.02999933
   0.79481729  0.09977420  0.12331254
   0.78412804  0.19197031  0.19714090
   0.78048757  0.30402696  0.30775523
   0.89807233  0.40366078  0.50630690
   0.90382808  0.50580315  0.61659177
   0.87986204  0.60592565  0.68656077
   0.89190662  0.69915369  0.81110649
   0.91229223  0.81490212  0.91585677
   0.91584703  0.89826287  0.99523565
   0.90005618  0.00884354  0.11555237
   0.92055346  0.10459463  0.21122010
   0.87369405  0.19671432  0.29567335
   0.89783969  0.29561232  0.40276994
   0.01023157  0.40971537  0.58529668
   0.00737994  0.51802208  0.69345747
   0.00107334  0.63369823  0.78402295
   0.99634381  0.70196201  0.89719245
   0.00170076  0.79786538  0.00755782
   0.99244082  0.88151252  0.11174041
   0.00867375  0.00664699  0.20503328
   0.00008935  0.08669858  0.32853216
   0.01439848  0.22321931  0.39794434
   0.99542095  0.29635036  0.50209011
   0.08662714  0.40536891  0.70580048
   0.09773669  0.49797204  0.80715102
   0.08242995  0.59948017  0.90019739
   0.09858741  0.69410701  0.99378545
   0.08997489  0.78040793  0.13155113
   0.09252961  0.89079937  0.22475002
   0.11354076  0.99778955  0.30870507
   0.11481427  0.11165280  0.40687394
   0.12591627  0.20798600  0.49471670
   0.09034576  0.30408087  0.59841784
   0.18092314  0.41343765  0.81173608
   0.19259271  0.50049180  0.92541453
   0.20133608  0.59789368  0.98680798
   0.20441740  0.68239396  0.09401485
   0.19006186  0.80100485  0.20122525
   0.20028195  0.90462079  0.30715667
   0.19913309  0.98877270  0.38708787
   0.19252178  0.08762599  0.50855877
   0.18976207  0.21943384  0.61036914
   0.20166645  0.31162214  0.70110979
   0.29011424  0.40112936  0.90219027
   0.29463501  0.48467603  0.01402784
   0.30278428  0.61226075  0.09361060
   0.28559951  0.71350707  0.17766703
   0.30085462  0.80954307  0.29296632
   0.31182208  0.91140346  0.40016465
   0.30719513  0.01114088  0.49987827
   0.27574876  0.10595700  0.59536857
   0.30312628  0.20228676  0.68724524
   0.29356076  0.31208883  0.78994916
