 500 500   0   0
  0.2349479E+02  0.2273250E-08  0.2273250E-08  0.2273250E-08  0.5000000E-15
  1.000000000000000E-004
  CAR 
 Li                                      
      2.70356482     -3.59213691  301      0.02399809      1.00000000
     -3.592  0.0000E+00  0.0000E+00
     -3.571  0.0000E+00  0.0000E+00
     -3.550  0.0000E+00  0.0000E+00
     -3.529  0.0000E+00  0.0000E+00
     -3.508  0.0000E+00  0.0000E+00
     -3.487  0.0000E+00  0.0000E+00
     -3.466  0.1058E-13  0.2220E-15
     -3.445  0.2433E-10  0.5108E-12
     -3.424  0.2176E-07  0.4572E-09
     -3.403  0.7472E-05  0.1573E-06
     -3.382  0.9905E-03  0.2094E-04
     -3.361  0.5111E-01  0.1093E-02
     -3.340  0.1036E+01  0.2284E-01
     -3.319  0.8355E+01  0.1982E+00
     -3.298  0.2706E+02  0.7661E+00
     -3.277  0.3550E+02  0.1511E+01
     -3.256  0.1908E+02  0.1911E+01
     -3.235  0.7078E+01  0.2060E+01
     -3.214  0.2031E+02  0.2486E+01
     -3.193  0.5991E+02  0.3743E+01
     -3.172  0.8962E+02  0.5624E+01
     -3.151  0.7313E+02  0.7159E+01
     -3.130  0.3359E+02  0.7864E+01
     -3.109  0.1741E+02  0.8229E+01
     -3.088  0.4122E+02  0.9094E+01
     -3.067  0.8169E+02  0.1081E+02
     -3.047  0.8856E+02  0.1267E+02
     -3.026  0.5063E+02  0.1373E+02
     -3.005  0.2458E+02  0.1425E+02
     -2.984  0.4745E+02  0.1524E+02
     -2.963  0.9491E+02  0.1723E+02
     -2.942  0.1095E+03  0.1953E+02
     -2.921  0.7753E+02  0.2116E+02
     -2.900  0.4321E+02  0.2206E+02
     -2.879  0.5745E+02  0.2327E+02
     -2.858  0.1144E+03  0.2567E+02
     -2.837  0.1429E+03  0.2867E+02
     -2.816  0.1260E+03  0.3131E+02
     -2.795  0.8630E+02  0.3312E+02
     -2.774  0.4622E+02  0.3409E+02
     -2.753  0.4674E+02  0.3507E+02
     -2.732  0.7385E+02  0.3662E+02
     -2.711  0.8065E+02  0.3832E+02
     -2.690  0.6041E+02  0.3958E+02
     -2.669  0.4865E+02  0.4061E+02
     -2.648  0.7846E+02  0.4225E+02
     -2.627  0.1243E+03  0.4486E+02
     -2.606  0.1374E+03  0.4774E+02
     -2.585  0.1124E+03  0.5010E+02
     -2.564  0.8851E+02  0.5196E+02
     -2.543  0.1046E+03  0.5416E+02
     -2.522  0.1483E+03  0.5727E+02
     -2.501  0.1660E+03  0.6075E+02
     -2.480  0.1548E+03  0.6400E+02
     -2.459  0.1359E+03  0.6685E+02
     -2.438  0.1003E+03  0.6895E+02
     -2.417  0.6738E+02  0.7037E+02
     -2.396  0.7386E+02  0.7192E+02
     -2.375  0.9026E+02  0.7381E+02
     -2.354  0.7621E+02  0.7541E+02
     -2.333  0.6041E+02  0.7668E+02
     -2.312  0.8637E+02  0.7849E+02
     -2.291  0.1306E+03  0.8123E+02
     -2.270  0.1521E+03  0.8442E+02
     -2.249  0.1391E+03  0.8734E+02
     -2.228  0.1045E+03  0.8954E+02
     -2.207  0.1024E+03  0.9169E+02
     -2.186  0.1460E+03  0.9475E+02
     -2.165  0.1782E+03  0.9849E+02
     -2.144  0.1767E+03  0.1022E+03
     -2.123  0.1487E+03  0.1053E+03
     -2.102  0.1083E+03  0.1076E+03
     -2.081  0.1002E+03  0.1097E+03
     -2.060  0.1282E+03  0.1124E+03
     -2.039  0.1402E+03  0.1153E+03
     -2.018  0.1258E+03  0.1180E+03
     -1.997  0.1068E+03  0.1202E+03
     -1.976  0.1184E+03  0.1227E+03
     -1.955  0.1578E+03  0.1260E+03
     -1.934  0.1765E+03  0.1297E+03
     -1.913  0.1652E+03  0.1332E+03
     -1.892  0.1398E+03  0.1361E+03
     -1.871  0.1263E+03  0.1388E+03
     -1.850  0.1521E+03  0.1420E+03
     -1.829  0.1869E+03  0.1459E+03
     -1.808  0.1811E+03  0.1497E+03
     -1.787  0.1464E+03  0.1527E+03
     -1.766  0.1123E+03  0.1551E+03
     -1.745  0.1012E+03  0.1572E+03
     -1.724  0.1188E+03  0.1597E+03
     -1.703  0.1387E+03  0.1626E+03
     -1.682  0.1334E+03  0.1654E+03
     -1.661  0.1131E+03  0.1678E+03
     -1.640  0.1101E+03  0.1701E+03
     -1.619  0.1309E+03  0.1729E+03
     -1.598  0.1471E+03  0.1759E+03
     -1.578  0.1346E+03  0.1788E+03
     -1.557  0.1240E+03  0.1814E+03
     -1.536  0.1619E+03  0.1848E+03
     -1.515  0.2119E+03  0.1892E+03
     -1.494  0.2293E+03  0.1940E+03
     -1.473  0.2336E+03  0.1989E+03
     -1.452  0.2261E+03  0.2037E+03
     -1.431  0.1995E+03  0.2079E+03
     -1.410  0.1837E+03  0.2117E+03
     -1.389  0.1899E+03  0.2157E+03
     -1.368  0.1972E+03  0.2198E+03
     -1.347  0.1793E+03  0.2236E+03
     -1.326  0.1382E+03  0.2265E+03
     -1.305  0.1163E+03  0.2289E+03
     -1.284  0.1310E+03  0.2317E+03
     -1.263  0.1584E+03  0.2350E+03
     -1.242  0.1750E+03  0.2387E+03
     -1.221  0.1749E+03  0.2424E+03
     -1.200  0.1767E+03  0.2461E+03
     -1.179  0.1918E+03  0.2501E+03
     -1.158  0.2075E+03  0.2544E+03
     -1.137  0.1982E+03  0.2586E+03
     -1.116  0.1630E+03  0.2620E+03
     -1.095  0.1253E+03  0.2647E+03
     -1.074  0.1025E+03  0.2668E+03
     -1.053  0.9976E+02  0.2689E+03
     -1.032  0.1019E+03  0.2710E+03
     -1.011  0.1119E+03  0.2734E+03
     -0.990  0.1538E+03  0.2766E+03
     -0.969  0.2156E+03  0.2811E+03
     -0.948  0.2592E+03  0.2866E+03
     -0.927  0.2614E+03  0.2921E+03
     -0.906  0.2476E+03  0.2973E+03
     -0.885  0.2414E+03  0.3023E+03
     -0.864  0.2391E+03  0.3073E+03
     -0.843  0.2343E+03  0.3123E+03
     -0.822  0.2358E+03  0.3172E+03
     -0.801  0.2407E+03  0.3223E+03
     -0.780  0.2305E+03  0.3271E+03
     -0.759  0.2048E+03  0.3314E+03
     -0.738  0.1747E+03  0.3351E+03
     -0.717  0.1590E+03  0.3384E+03
     -0.696  0.1613E+03  0.3418E+03
     -0.675  0.1631E+03  0.3452E+03
     -0.654  0.1715E+03  0.3488E+03
     -0.633  0.1978E+03  0.3530E+03
     -0.612  0.2212E+03  0.3576E+03
     -0.591  0.2163E+03  0.3621E+03
     -0.570  0.1945E+03  0.3662E+03
     -0.549  0.1916E+03  0.3702E+03
     -0.528  0.2041E+03  0.3745E+03
     -0.507  0.2182E+03  0.3791E+03
     -0.486  0.2368E+03  0.3841E+03
     -0.465  0.2425E+03  0.3892E+03
     -0.444  0.2298E+03  0.3940E+03
     -0.423  0.2206E+03  0.3986E+03
     -0.402  0.2185E+03  0.4032E+03
     -0.381  0.2107E+03  0.4076E+03
     -0.360  0.1987E+03  0.4118E+03
     -0.339  0.2003E+03  0.4160E+03
     -0.318  0.2101E+03  0.4204E+03
     -0.297  0.2136E+03  0.4249E+03
     -0.276  0.2157E+03  0.4294E+03
     -0.255  0.2225E+03  0.4341E+03
     -0.234  0.2345E+03  0.4390E+03
     -0.213  0.2423E+03  0.4441E+03
     -0.192  0.2354E+03  0.4490E+03
     -0.171  0.2240E+03  0.4537E+03
     -0.150  0.2229E+03  0.4584E+03
     -0.130  0.2222E+03  0.4631E+03
     -0.109  0.2128E+03  0.4675E+03
     -0.088  0.2114E+03  0.4720E+03
     -0.067  0.2327E+03  0.4769E+03
     -0.046  0.2555E+03  0.4822E+03
     -0.025  0.2600E+03  0.4877E+03
     -0.004  0.2536E+03  0.4930E+03
      0.017  0.2533E+03  0.4983E+03
      0.038  0.2542E+03  0.5036E+03
      0.059  0.2480E+03  0.5089E+03
      0.080  0.2525E+03  0.5142E+03
      0.101  0.2633E+03  0.5197E+03
      0.122  0.2669E+03  0.5253E+03
      0.143  0.2738E+03  0.5310E+03
      0.164  0.2880E+03  0.5371E+03
      0.185  0.2964E+03  0.5433E+03
      0.206  0.2956E+03  0.5495E+03
      0.227  0.2917E+03  0.5556E+03
      0.248  0.2889E+03  0.5617E+03
      0.269  0.2930E+03  0.5678E+03
      0.290  0.2947E+03  0.5740E+03
      0.311  0.2804E+03  0.5799E+03
      0.332  0.2560E+03  0.5853E+03
      0.353  0.2374E+03  0.5902E+03
      0.374  0.2231E+03  0.5949E+03
      0.395  0.2113E+03  0.5994E+03
      0.416  0.2077E+03  0.6037E+03
      0.437  0.2136E+03  0.6082E+03
      0.458  0.2186E+03  0.6128E+03
      0.479  0.2199E+03  0.6174E+03
      0.500  0.2203E+03  0.6220E+03
      0.521  0.2165E+03  0.6266E+03
      0.542  0.2131E+03  0.6310E+03
      0.563  0.2169E+03  0.6356E+03
      0.584  0.2281E+03  0.6404E+03
      0.605  0.2410E+03  0.6454E+03
      0.626  0.2467E+03  0.6506E+03
      0.647  0.2361E+03  0.6556E+03
      0.668  0.2254E+03  0.6603E+03
      0.689  0.2357E+03  0.6653E+03
      0.710  0.2535E+03  0.6706E+03
      0.731  0.2626E+03  0.6761E+03
      0.752  0.2622E+03  0.6816E+03
      0.773  0.2591E+03  0.6870E+03
      0.794  0.2563E+03  0.6924E+03
      0.815  0.2533E+03  0.6977E+03
      0.836  0.2496E+03  0.7030E+03
      0.857  0.2379E+03  0.7079E+03
      0.878  0.2284E+03  0.7127E+03
      0.899  0.2327E+03  0.7176E+03
      0.920  0.2370E+03  0.7226E+03
      0.941  0.2285E+03  0.7274E+03
      0.962  0.2209E+03  0.7320E+03
      0.983  0.2237E+03  0.7367E+03
      1.004  0.2265E+03  0.7415E+03
      1.025  0.2285E+03  0.7463E+03
      1.046  0.2230E+03  0.7509E+03
      1.067  0.2101E+03  0.7554E+03
      1.088  0.1986E+03  0.7595E+03
      1.109  0.1930E+03  0.7636E+03
      1.130  0.1922E+03  0.7676E+03
      1.151  0.1937E+03  0.7717E+03
      1.172  0.1888E+03  0.7756E+03
      1.193  0.1740E+03  0.7793E+03
      1.214  0.1590E+03  0.7826E+03
      1.235  0.1600E+03  0.7860E+03
      1.256  0.1741E+03  0.7896E+03
      1.277  0.1804E+03  0.7934E+03
      1.298  0.1817E+03  0.7972E+03
      1.319  0.1888E+03  0.8012E+03
      1.339  0.2062E+03  0.8055E+03
      1.360  0.2278E+03  0.8103E+03
      1.381  0.2379E+03  0.8153E+03
      1.402  0.2365E+03  0.8203E+03
      1.423  0.2268E+03  0.8250E+03
      1.444  0.2200E+03  0.8296E+03
      1.465  0.2208E+03  0.8343E+03
      1.486  0.2248E+03  0.8390E+03
      1.507  0.2221E+03  0.8436E+03
      1.528  0.2075E+03  0.8480E+03
      1.549  0.1983E+03  0.8522E+03
      1.570  0.2004E+03  0.8564E+03
      1.591  0.2015E+03  0.8606E+03
      1.612  0.1957E+03  0.8647E+03
      1.633  0.1761E+03  0.8684E+03
      1.654  0.1512E+03  0.8716E+03
      1.675  0.1426E+03  0.8746E+03
      1.696  0.1495E+03  0.8777E+03
      1.717  0.1603E+03  0.8811E+03
      1.738  0.1662E+03  0.8846E+03
      1.759  0.1688E+03  0.8881E+03
      1.780  0.1774E+03  0.8918E+03
      1.801  0.1798E+03  0.8956E+03
      1.822  0.1735E+03  0.8992E+03
      1.843  0.1707E+03  0.9028E+03
      1.864  0.1657E+03  0.9063E+03
      1.885  0.1631E+03  0.9097E+03
      1.906  0.1653E+03  0.9132E+03
      1.927  0.1630E+03  0.9166E+03
      1.948  0.1654E+03  0.9201E+03
      1.969  0.1713E+03  0.9237E+03
      1.990  0.1719E+03  0.9273E+03
      2.011  0.1726E+03  0.9309E+03
      2.032  0.1730E+03  0.9345E+03
      2.053  0.1813E+03  0.9383E+03
      2.074  0.1889E+03  0.9423E+03
      2.095  0.1856E+03  0.9462E+03
      2.116  0.1820E+03  0.9500E+03
      2.137  0.1787E+03  0.9538E+03
      2.158  0.1714E+03  0.9574E+03
      2.179  0.1694E+03  0.9609E+03
      2.200  0.1839E+03  0.9648E+03
      2.221  0.1969E+03  0.9689E+03
      2.242  0.1973E+03  0.9730E+03
      2.263  0.1928E+03  0.9771E+03
      2.284  0.1914E+03  0.9811E+03
      2.305  0.1899E+03  0.9851E+03
      2.326  0.1860E+03  0.9890E+03
      2.347  0.1781E+03  0.9927E+03
      2.368  0.1625E+03  0.9961E+03
      2.389  0.1365E+03  0.9990E+03
      2.410  0.9235E+02  0.1001E+04
      2.431  0.4011E+02  0.1002E+04
      2.452  0.9000E+01  0.1002E+04
      2.473  0.9109E+00  0.1002E+04
      2.494  0.3876E-01  0.1002E+04
      2.515  0.6682E-03  0.1002E+04
      2.536  0.4570E-05  0.1002E+04
      2.557  0.1224E-07  0.1002E+04
      2.578  0.1271E-10  0.1002E+04
      2.599  0.2645E-14  0.1002E+04
      2.620  0.0000E+00  0.1002E+04
      2.641  0.0000E+00  0.1002E+04
      2.662  0.0000E+00  0.1002E+04
      2.683  0.0000E+00  0.1002E+04
      2.704  0.0000E+00  0.1002E+04
