Li                                      
           1
    22.732500   -0.000000    0.000000
    -0.000000   22.732500    0.000000
     0.000000    0.000000   22.732500
   Li
   500
Direct configuration=     1
   0.00004451  0.03158180  0.99139313
   0.98787488  0.10760594  0.12066642
   0.98378016  0.22601949  0.21238336
   0.00086879  0.31069713  0.27846429
   0.97603051  0.37503729  0.43207680
   0.00352734  0.49589418  0.53808785
   0.98653905  0.62454777  0.62699102
   0.00001991  0.77025940  0.68370647
   0.98552905  0.82247513  0.81892095
   0.98046143  0.92210795  0.90582955
   0.10323847  0.00898406  0.10809364
   0.08715722  0.10856763  0.20683300
   0.10420251  0.20178781  0.31907216
   0.09508966  0.30775275  0.41658795
   0.12267720  0.39869383  0.54612100
   0.13303698  0.53302240  0.63507679
   0.10888725  0.63318357  0.71824008
   0.07518837  0.71315929  0.80669871
   0.09441089  0.84778623  0.91247206
   0.10252105  0.92947306  0.00025525
   0.17441418  0.99834965  0.20274015
   0.18242041  0.09217042  0.30721690
   0.19362979  0.20295779  0.44219853
   0.21375569  0.29957526  0.52224707
   0.20368332  0.40207834  0.61307926
   0.20063890  0.53816248  0.71748074
   0.20406813  0.62822748  0.83817275
   0.17685325  0.72367328  0.91700621
   0.19217052  0.79939171  0.00934290
   0.20852723  0.90640537  0.10067365
   0.30224991  0.98083749  0.28041098
   0.30638043  0.10037073  0.36576519
   0.30881726  0.20566567  0.49511800
   0.32591080  0.31394652  0.60557342
   0.28621734  0.39994936  0.73006141
   0.30155687  0.50750309  0.82072633
   0.28386211  0.61967326  0.94262736
   0.26643270  0.70052649  0.00531453
   0.31118355  0.80109488  0.09550198
   0.28999385  0.89901319  0.19574885
   0.40307980  0.01645206  0.39829662
   0.41455362  0.10096614  0.46734713
   0.42314665  0.21922810  0.59088127
   0.41318783  0.30595270  0.69838994
   0.41015738  0.42607411  0.80712079
   0.40819530  0.49989421  0.93161218
   0.40928402  0.62185688  0.01245693
   0.40190776  0.67999134  0.10905814
   0.40980098  0.81568157  0.17984923
   0.38856488  0.90327295  0.29443435
   0.51636188  0.98414223  0.50067757
   0.52122766  0.09670060  0.58303717
   0.52251288  0.20120028  0.67361249
   0.49624620  0.31454437  0.78114400
   0.50711836  0.40232950  0.90950988
   0.50613897  0.52029315  0.00204383
   0.47611640  0.59379822  0.10389352
   0.49513948  0.70371095  0.18655226
   0.49004991  0.83101161  0.29298759
   0.48204381  0.90655883  0.39272459
   0.62670872  0.99938236  0.58149123
   0.61713370  0.10109514  0.68536564
   0.60436126  0.21307210  0.78031768
   0.58216751  0.29517703  0.88715516
   0.60549889  0.42267085  0.98022427
   0.60901470  0.50995148  0.09045712
   0.60993582  0.57668400  0.20456145
   0.61226886  0.69748298  0.30467889
   0.58583089  0.80601027  0.35315361
   0.59483982  0.90097171  0.50140384
   0.70168980  0.99048880  0.68761670
   0.67893846  0.09071406  0.77064387
   0.68296945  0.19879180  0.88995890
   0.67243731  0.27850824  0.99864752
   0.71913892  0.42787712  0.07214120
   0.72587204  0.46212953  0.18845811
   0.68234950  0.58566603  0.31582052
   0.71447037  0.70081036  0.39374002
   0.68918176  0.82546658  0.49359823
   0.69126123  0.88293337  0.61250327
   0.79715462  0.98840122  0.79737389
   0.77925343  0.09127630  0.91499861
   0.78975103  0.18869746  0.00845092
   0.79751212  0.30203276  0.07879233
   0.79647846  0.38453330  0.18356662
   0.80095635  0.47564068  0.31550614
   0.79340526  0.61828781  0.41776521
   0.78728824  0.72082581  0.51875854
   0.79379688  0.82343695  0.56754953
   0.80476258  0.90513900  0.66962801
   0.88493475  0.99727381  0.88903968
   0.91115109  0.08327188  0.99854424
   0.88554537  0.18702963  0.09457875
   0.87445670  0.31240630  0.18059216
   0.88583727  0.37151665  0.29515605
   0.91367785  0.49364365  0.42379578
   0.89842644  0.60518576  0.50574366
   0.91024205  0.72747243  0.55619300
   0.90516185  0.81316086  0.66056156
   0.88113695  0.88141643  0.77095942
   0.10838705  0.08518998  0.02821777
   0.09764129  0.19149936  0.11309714
   0.09936883  0.31421266  0.20124851
   0.10806197  0.39989636  0.32468766
   0.10248280  0.50642239  0.44629692
   0.10984839  0.60344123  0.53673448
   0.12510733  0.71440011  0.59947478
   0.12426011  0.82275539  0.70300639
   0.11383507  0.88477986  0.79064105
   0.11273270  0.98853830  0.88617241
   0.19129916  0.07775770  0.10752925
   0.19494267  0.18116403  0.20822360
   0.20073697  0.27710435  0.29298670
   0.19849592  0.38555739  0.41056178
   0.20012802  0.49661451  0.54420417
   0.22581858  0.63391984  0.63337277
   0.22693240  0.70744001  0.72414543
   0.21782094  0.82270666  0.81757734
   0.22539896  0.88610073  0.90219436
   0.22315208  0.98677197  0.00474845
   0.30706684  0.08783950  0.21432981
   0.28708535  0.20936621  0.31998144
   0.28910662  0.29803615  0.42348345
   0.30922534  0.39372542  0.50418295
   0.27717436  0.50717601  0.62776519
   0.32208851  0.60937047  0.72145073
   0.30137987  0.69585408  0.80645341
   0.32467875  0.79576425  0.91207343
   0.30980829  0.88343870  0.99887785
   0.30352349  0.97921456  0.10184286
   0.40401553  0.11211126  0.29412063
   0.39562286  0.22493917  0.39991273
   0.41546433  0.30114952  0.52515312
   0.38168694  0.41112315  0.61104242
   0.41974393  0.52647026  0.68795555
   0.38326808  0.58597106  0.81348555
   0.38910036  0.69789739  0.89644584
   0.39162910  0.79207541  0.99902100
   0.40727879  0.90038023  0.08826346
   0.40955576  0.00395059  0.21399462
   0.49846730  0.07483535  0.41014752
   0.49389371  0.19219885  0.48425005
   0.47739033  0.30284646  0.58967706
   0.50623333  0.39829489  0.69602798
   0.51929810  0.51010366  0.81830645
   0.48754170  0.61116814  0.89389849
   0.49256994  0.71474773  0.01630859
   0.50282804  0.81095270  0.10565885
   0.48377651  0.90790915  0.19956816
   0.46681093  0.98560786  0.29942477
   0.61354062  0.11428008  0.46388510
   0.60006300  0.19015140  0.58922691
   0.58579482  0.30227322  0.67035891
   0.58955352  0.41815202  0.77945479
   0.60068602  0.49841417  0.90338519
   0.58109122  0.62181736  0.99737381
   0.59921967  0.67647803  0.12661517
   0.59115170  0.79691359  0.21314197
   0.60628336  0.92411464  0.27309471
   0.59111468  0.99513105  0.39342051
   0.73651534  0.11876264  0.60867520
   0.70400905  0.21871719  0.66379407
   0.68569995  0.28701097  0.78420513
   0.68485985  0.41500091  0.90057397
   0.69767204  0.52914786  0.01238985
   0.69925194  0.57138036  0.09166022
   0.69873962  0.68924169  0.19745705
   0.68500978  0.79802230  0.29053178
   0.68327639  0.90187839  0.38700000
   0.71423313  0.00990478  0.51504189
   0.79453310  0.12313143  0.70370761
   0.79708789  0.18996665  0.80511105
   0.79926431  0.29070586  0.90475294
   0.79895081  0.41522753  0.99766103
   0.82390441  0.49799007  0.09811283
   0.80089748  0.57532172  0.20290108
   0.79971201  0.69599948  0.32971762
   0.79980143  0.81077054  0.39701399
   0.81102008  0.89943771  0.50120253
   0.79891191  0.01346328  0.59126029
   0.87249398  0.09575721  0.80589465
   0.89992224  0.16478631  0.90757559
   0.88911673  0.30602601  0.98767461
   0.88441694  0.42054188  0.06919536
   0.92167227  0.47291535  0.22373640
   0.92283526  0.60278008  0.30597320
   0.90819966  0.72181128  0.40360995
   0.92133973  0.81805689  0.51753784
   0.91980291  0.91814026  0.60015902
   0.88600594  0.01369697  0.69503970
   0.00891529  0.08241560  0.88650577
   0.99664710  0.18382505  0.01964391
   0.98291881  0.32163363  0.09010516
   0.01241501  0.37630165  0.18884463
   0.01095034  0.48120169  0.32090972
   0.03046429  0.60111325  0.44187501
   0.01093064  0.71070164  0.51324146
   0.04014347  0.82305061  0.61156016
   0.99539755  0.91818495  0.68958316
   0.99272419  0.98228805  0.80732815
   0.20479216  0.18749191  0.00097654
   0.17547549  0.31085736  0.10503288
   0.17712184  0.40778017  0.19833200
   0.18669363  0.50979621  0.30912779
   0.18368425  0.59592196  0.41767667
   0.18317964  0.70174316  0.51018165
   0.21464175  0.79429213  0.59829105
   0.22855064  0.90387557  0.68895521
   0.22307935  0.99307885  0.80271416
   0.20634835  0.10482158  0.90786013
   0.28629112  0.20174126  0.12588779
   0.27213438  0.31562208  0.18347992
   0.27760553  0.37427040  0.27898587
   0.29933448  0.48448166  0.39048806
   0.31240556  0.60312250  0.48479530
   0.31246907  0.71146973  0.60059044
   0.30706325  0.80645124  0.71709788
   0.30620835  0.91097872  0.79849734
   0.31219828  0.99493777  0.88869897
   0.30289878  0.08080537  0.02694123
   0.38767836  0.18718168  0.21425684
   0.37764732  0.27564025  0.32119294
   0.39380045  0.37263019  0.40515482
   0.39304002  0.48730193  0.50970791
   0.39657619  0.61071476  0.58866849
   0.37164252  0.70113136  0.69271679
   0.40611728  0.80376952  0.81305292
   0.40629734  0.89873686  0.89476485
   0.39889612  0.01175511  0.96541959
   0.40139012  0.10667849  0.09600682
   0.48961834  0.17987742  0.31317516
   0.48767552  0.26245266  0.38684739
   0.47327726  0.39002232  0.49379401
   0.49892948  0.50004249  0.59319647
   0.50358259  0.61157033  0.70558880
   0.48443692  0.68507977  0.81042647
   0.51021997  0.79705056  0.89387114
   0.50627076  0.91283655  0.97201741
   0.49401243  0.99809944  0.07693593
   0.50008544  0.08534396  0.19193621
   0.61054391  0.18662205  0.38486649
   0.57535986  0.29529555  0.49004039
   0.59391490  0.39624447  0.57025800
   0.61313525  0.51099920  0.67641850
   0.61820034  0.60050697  0.80476612
   0.59739883  0.68834815  0.89276336
   0.59519667  0.79356170  0.99484310
   0.58638736  0.89523990  0.11632313
   0.57924572  0.02981279  0.20184130
   0.56912476  0.08451101  0.30577172
   0.70395864  0.21504771  0.50247881
   0.70480920  0.31102441  0.58538612
   0.71245145  0.40008721  0.68629221
   0.70013883  0.52271510  0.79583994
   0.71113068  0.57274917  0.92399249
   0.69876579  0.69921999  0.00638457
   0.66990033  0.80706771  0.10053275
   0.71018908  0.91441905  0.19330509
   0.71376096  0.01883947  0.31077029
   0.70866000  0.09715312  0.37654750
   0.81471297  0.20706945  0.59595133
   0.81360179  0.29629475  0.70567040
   0.77226323  0.40854737  0.78310781
   0.80287469  0.50549969  0.91188629
   0.83523661  0.58802187  0.99202583
   0.81565424  0.68118324  0.08069970
   0.78259822  0.78297834  0.19859486
   0.79221261  0.87523944  0.28926185
   0.80799778  0.00110267  0.40041749
   0.80299833  0.12304115  0.49722205
   0.89667672  0.18876277  0.70210874
   0.90655723  0.27804416  0.82565705
   0.90006143  0.39801628  0.88911373
   0.91041379  0.48777846  0.95943962
   0.92560496  0.54884728  0.12101360
   0.89130501  0.68255108  0.19621210
   0.91850215  0.80397669  0.27816673
   0.90429812  0.89834268  0.41121417
   0.90842522  0.99250878  0.49427127
   0.89460881  0.09251096  0.59615151
   0.98192049  0.16735171  0.79165828
   0.00294522  0.25065556  0.90715889
   0.00062127  0.41162386  0.96553783
   0.98968186  0.49205449  0.11677765
   0.01337383  0.58161436  0.20841218
   0.99324396  0.70362390  0.32952583
   0.99528548  0.80784860  0.40425326
   0.99573880  0.91039149  0.48264285
   0.99036065  0.99447623  0.61151148
   0.99151078  0.04816218  0.69592066
   0.09022287  0.15717654  0.89858679
   0.09089995  0.29204534  0.02028714
   0.09009311  0.41571499  0.07464270
   0.07275263  0.48136340  0.18380379
   0.11087426  0.60228243  0.30952863
   0.10989346  0.71088760  0.40241070
   0.11182580  0.83838256  0.47285399
   0.11379434  0.94895854  0.59518046
   0.12067064  0.99430306  0.70945463
   0.10046099  0.05932346  0.81171042
   0.30049192  0.30319535  0.01286868
   0.29558466  0.39832770  0.09665751
   0.27225863  0.48924226  0.19709031
   0.27838786  0.60792792  0.25888148
   0.25905266  0.68907999  0.37324936
   0.30913859  0.78497393  0.47676636
   0.29068441  0.89590387  0.58762156
   0.33087206  0.99171325  0.71265163
   0.31283843  0.09031987  0.78311540
   0.32190390  0.19393982  0.89881985
   0.41201506  0.29700674  0.10833955
   0.39589780  0.39665625  0.20997602
   0.39099700  0.51727084  0.31041277
   0.41380696  0.60882360  0.37155302
   0.37858993  0.68472198  0.46255222
   0.39253196  0.81865233  0.59116424
   0.39421449  0.91288410  0.67132802
   0.42478518  0.99777493  0.78838202
   0.39333087  0.12383684  0.86955417
   0.39287693  0.20531991  0.99964861
   0.48221642  0.30094206  0.20695809
   0.49513094  0.39603953  0.28494039
   0.50222079  0.47475480  0.38902516
   0.50946473  0.58895976  0.49952618
   0.49790426  0.68599722  0.59100501
   0.48933963  0.81597842  0.71649229
   0.51029678  0.90512814  0.82195551
   0.53652775  0.04120012  0.87745320
   0.50362735  0.11962076  0.01208255
   0.51069970  0.20134751  0.11010589
   0.57830656  0.30903012  0.30079460
   0.61578104  0.40143804  0.40967336
   0.60286901  0.51159393  0.50908021
   0.60569528  0.60602709  0.61399672
   0.61226401  0.69921443  0.71368239
   0.59106642  0.79452189  0.81025473
   0.60114272  0.89529520  0.90117699
   0.60289665  0.00650371  0.00333456
   0.57656930  0.09309471  0.09843495
   0.57928902  0.17630634  0.21180010
   0.69068034  0.27398061  0.39154145
   0.68936824  0.38797563  0.49180150
   0.69930290  0.47958246  0.60027843
   0.70603181  0.62894660  0.69555596
   0.73344270  0.69055080  0.80791592
   0.68241957  0.81202545  0.91005221
   0.68563021  0.88219622  0.00259536
   0.69521611  0.98958742  0.09479699
   0.67588494  0.10540645  0.20456095
   0.67957975  0.18965809  0.27489921
   0.80381785  0.28285461  0.48418692
   0.79204978  0.38640571  0.58257522
   0.81250913  0.51260504  0.68347627
   0.81665726  0.61371682  0.81231338
   0.79662713  0.70940892  0.91450131
   0.80029358  0.83032567  0.00895010
   0.79077775  0.92347817  0.11172870
   0.80058929  0.01232613  0.20391196
   0.78883203  0.11456684  0.28879402
   0.76999601  0.19384634  0.41522128
   0.92239523  0.30396668  0.60800744
   0.91413879  0.37969228  0.70418063
   0.88471235  0.49301037  0.78744389
   0.89204351  0.63142123  0.87339162
   0.90100408  0.70075919  0.02009083
   0.92150537  0.83445369  0.12109517
   0.88222542  0.89577177  0.20156685
   0.87818709  0.98796605  0.28385963
   0.90182701  0.09716738  0.38506153
   0.93128808  0.18014379  0.50491134
   0.01577710  0.30411930  0.71164793
   0.99847567  0.39221167  0.81650336
   0.97823922  0.52634549  0.85313085
   0.98316869  0.57499230  0.98452537
   0.99837070  0.69055711  0.10210798
   0.01139904  0.78736417  0.20511390
   0.02388684  0.89955238  0.31373979
   0.99058361  0.99084683  0.38970538
   0.00880517  0.09258006  0.48526124
   0.01218953  0.16814115  0.61480690
   0.09295603  0.27607423  0.78285506
   0.09031230  0.39101437  0.86598934
   0.10331723  0.50104568  0.96951788
   0.10600565  0.56568232  0.07954633
   0.09592138  0.70412635  0.17429863
   0.12332869  0.78630196  0.30011755
   0.11619324  0.91260196  0.40794793
   0.11118489  0.00184934  0.49308541
   0.10348153  0.07593479  0.59294908
   0.12021372  0.16509186  0.70858436
   0.18011715  0.26101366  0.89777760
   0.18630689  0.36687177  0.98434466
   0.19264526  0.48264231  0.07855693
   0.18299081  0.61184886  0.18177951
   0.18903828  0.69447282  0.30737103
   0.22651513  0.78136348  0.37770070
   0.19300743  0.90021241  0.49356693
   0.24663187  0.00098224  0.60665593
   0.21149967  0.09420369  0.69749166
   0.19300109  0.18392356  0.82028825
   0.40006586  0.37186170  0.00097996
   0.38847262  0.49649300  0.09050723
   0.38430413  0.61002344  0.21009969
   0.39076757  0.69390909  0.29551853
   0.37094272  0.79010545  0.39648519
   0.37448923  0.90038380  0.49306519
   0.37037186  0.00137867  0.60037461
   0.41934778  0.10905893  0.69655227
   0.41119770  0.19684036  0.78139223
   0.43734665  0.27207583  0.91697849
   0.50417381  0.38389027  0.09839918
   0.52653435  0.50616821  0.20172520
   0.51148528  0.60576656  0.27134474
   0.49705415  0.68720032  0.35941061
   0.48053894  0.79588102  0.50772222
   0.49300944  0.93374917  0.60765590
   0.51171739  0.01667023  0.67604668
   0.54033455  0.12204789  0.77781422
   0.49834552  0.19463979  0.89767152
   0.51046858  0.31134113  0.00323554
   0.61877256  0.40026226  0.19399313
   0.62478049  0.49072955  0.31181579
   0.61142088  0.58956099  0.39573798
   0.60357020  0.71045781  0.49014419
   0.57739134  0.79067778  0.62148310
   0.59691244  0.92351850  0.71718087
   0.60964981  0.03041988  0.77787159
   0.60096710  0.11671078  0.93617664
   0.61176441  0.21909440  0.01476174
   0.60645425  0.28360946  0.11818431
   0.70891894  0.36831798  0.31679869
   0.70667234  0.51793210  0.41170307
   0.70153327  0.61720726  0.52961757
   0.70547603  0.72454133  0.58964941
   0.69938308  0.79901936  0.70861536
   0.71505694  0.89748562  0.78271585
   0.67561514  0.99843460  0.89014188
   0.66947592  0.08405968  0.00320524
   0.68387726  0.18592648  0.11991854
   0.70480649  0.29405365  0.18763868
   0.79095256  0.39310225  0.42165420
   0.81534805  0.50697682  0.50335929
   0.79778853  0.60435267  0.59135168
   0.81589406  0.73061209  0.67076941
   0.78649470  0.79748986  0.79551198
   0.79284715  0.90821977  0.91413261
   0.77461870  0.00595055  0.00777375
   0.79810259  0.08091909  0.08781343
   0.80184165  0.19935358  0.20544353
   0.79701845  0.29537916  0.30364666
   0.91618318  0.37800701  0.52824471
   0.91788773  0.51078466  0.62378892
   0.89712613  0.64407219  0.69466269
   0.90348744  0.73192195  0.80037666
   0.88180087  0.80097579  0.90168882
   0.88573805  0.89070761  0.02867196
   0.89611745  0.99976608  0.12572443
   0.89501762  0.09181664  0.20306282
   0.89103272  0.21298647  0.30275246
   0.89540103  0.28857497  0.40212115
   0.02538962  0.40002399  0.62691875
   0.00485027  0.48620236  0.72501632
   0.98948942  0.60933289  0.77421279
   0.98102510  0.69819311  0.91468945
   0.00744739  0.81152750  0.01592824
   0.99687990  0.91020598  0.09834803
   0.02035989  0.99501579  0.22974692
   0.99417282  0.12276702  0.28594557
   0.02304988  0.20469642  0.40430553
   0.01478484  0.26346693  0.52008514
   0.11538635  0.41759315  0.69135643
   0.07781884  0.51467346  0.79158662
   0.10553452  0.59538541  0.86787770
   0.08331226  0.71383116  0.98093829
   0.10508619  0.80309772  0.07538749
   0.08923581  0.89336081  0.17984010
   0.11643171  0.00775148  0.29918227
   0.08480444  0.09250332  0.41429698
   0.09373978  0.19417280  0.52256898
   0.10885127  0.26357002  0.60723586
   0.20180453  0.40997498  0.82576722
   0.21592102  0.49530514  0.89769592
   0.17082195  0.59491738  0.98786327
   0.16372459  0.70063425  0.08164775
   0.17155317  0.78603896  0.19418383
   0.21042680  0.86911996  0.30536139
   0.20553604  0.00453638  0.38876573
   0.18987113  0.09866875  0.49692043
   0.20524224  0.21040583  0.60325484
   0.21748200  0.27872913  0.70677539
   0.30713699  0.36368358  0.89787069
   0.30106033  0.47877792  0.99549928
   0.28865621  0.58161316  0.09096515
   0.27936822  0.71617958  0.18624360
   0.31053118  0.78200991  0.29302114
   0.29323247  0.90322971  0.40246845
   0.30923190  0.00479966  0.48252414
   0.31600543  0.11074911  0.59775532
   0.32297362  0.19511623  0.69991590
   0.30241301  0.28363060  0.81865876
