 432 432   0   0
  0.2356206E+02  0.2167200E-08  0.2167200E-08  0.2167200E-08  0.5000000E-15
  1.000000000000000E-004
  CAR 
 Li                                      
      2.89226322     -3.58959971  301      0.03106081      1.00000000
     -3.590  0.0000E+00  0.0000E+00
     -3.568  0.0000E+00  0.0000E+00
     -3.546  0.0000E+00  0.0000E+00
     -3.525  0.0000E+00  0.0000E+00
     -3.503  0.0000E+00  0.0000E+00
     -3.482  0.0000E+00  0.0000E+00
     -3.460  0.4239E-13  0.9159E-15
     -3.438  0.1029E-09  0.2223E-11
     -3.417  0.9056E-07  0.1959E-08
     -3.395  0.2894E-04  0.6271E-06
     -3.374  0.3380E-02  0.7366E-04
     -3.352  0.1458E+00  0.3223E-02
     -3.330  0.2348E+01  0.5396E-01
     -3.309  0.1433E+02  0.3636E+00
     -3.287  0.3351E+02  0.1088E+01
     -3.266  0.3024E+02  0.1741E+01
     -3.244  0.1062E+02  0.1970E+01
     -3.222  0.3385E+01  0.2043E+01
     -3.201  0.1717E+02  0.2414E+01
     -3.179  0.6213E+02  0.3757E+01
     -3.157  0.9900E+02  0.5896E+01
     -3.136  0.7106E+02  0.7431E+01
     -3.114  0.2323E+02  0.7933E+01
     -3.093  0.7795E+01  0.8102E+01
     -3.071  0.2880E+02  0.8724E+01
     -3.049  0.7774E+02  0.1040E+02
     -3.028  0.9585E+02  0.1247E+02
     -3.006  0.5479E+02  0.1366E+02
     -2.985  0.1556E+02  0.1399E+02
     -2.963  0.1441E+02  0.1431E+02
     -2.941  0.5429E+02  0.1548E+02
     -2.920  0.1117E+03  0.1789E+02
     -2.898  0.1164E+03  0.2041E+02
     -2.877  0.5934E+02  0.2169E+02
     -2.855  0.1888E+02  0.2210E+02
     -2.833  0.3430E+02  0.2284E+02
     -2.812  0.9860E+02  0.2497E+02
     -2.790  0.1618E+03  0.2846E+02
     -2.769  0.1529E+03  0.3177E+02
     -2.747  0.7981E+02  0.3349E+02
     -2.725  0.2370E+02  0.3401E+02
     -2.704  0.2302E+02  0.3450E+02
     -2.682  0.6624E+02  0.3593E+02
     -2.661  0.9786E+02  0.3805E+02
     -2.639  0.6720E+02  0.3950E+02
     -2.617  0.2422E+02  0.4002E+02
     -2.596  0.2719E+02  0.4061E+02
     -2.574  0.7562E+02  0.4225E+02
     -2.553  0.1286E+03  0.4502E+02
     -2.531  0.1464E+03  0.4819E+02
     -2.509  0.1145E+03  0.5066E+02
     -2.488  0.6252E+02  0.5201E+02
     -2.466  0.6158E+02  0.5334E+02
     -2.444  0.1234E+03  0.5601E+02
     -2.423  0.1888E+03  0.6009E+02
     -2.401  0.1987E+03  0.6438E+02
     -2.380  0.1491E+03  0.6760E+02
     -2.358  0.8085E+02  0.6935E+02
     -2.336  0.3897E+02  0.7019E+02
     -2.315  0.5377E+02  0.7135E+02
     -2.293  0.9113E+02  0.7332E+02
     -2.272  0.8178E+02  0.7509E+02
     -2.250  0.3943E+02  0.7594E+02
     -2.228  0.3191E+02  0.7663E+02
     -2.207  0.7288E+02  0.7820E+02
     -2.185  0.1307E+03  0.8103E+02
     -2.164  0.1662E+03  0.8462E+02
     -2.142  0.1455E+03  0.8776E+02
     -2.120  0.8379E+02  0.8957E+02
     -2.099  0.5690E+02  0.9080E+02
     -2.077  0.1107E+03  0.9319E+02
     -2.056  0.1835E+03  0.9716E+02
     -2.034  0.2015E+03  0.1015E+03
     -2.012  0.1660E+03  0.1051E+03
     -1.991  0.9899E+02  0.1072E+03
     -1.969  0.5178E+02  0.1084E+03
     -1.948  0.7926E+02  0.1101E+03
     -1.926  0.1417E+03  0.1131E+03
     -1.904  0.1586E+03  0.1166E+03
     -1.883  0.1134E+03  0.1190E+03
     -1.861  0.6869E+02  0.1205E+03
     -1.839  0.9381E+02  0.1225E+03
     -1.818  0.1586E+03  0.1259E+03
     -1.796  0.1974E+03  0.1302E+03
     -1.775  0.1834E+03  0.1342E+03
     -1.753  0.1230E+03  0.1368E+03
     -1.731  0.7173E+02  0.1384E+03
     -1.710  0.9207E+02  0.1404E+03
     -1.688  0.1629E+03  0.1439E+03
     -1.667  0.2126E+03  0.1485E+03
     -1.645  0.1930E+03  0.1527E+03
     -1.623  0.1130E+03  0.1551E+03
     -1.602  0.5345E+02  0.1563E+03
     -1.580  0.7257E+02  0.1578E+03
     -1.559  0.1327E+03  0.1607E+03
     -1.537  0.1560E+03  0.1641E+03
     -1.515  0.1186E+03  0.1666E+03
     -1.494  0.5804E+02  0.1679E+03
     -1.472  0.4461E+02  0.1688E+03
     -1.451  0.9496E+02  0.1709E+03
     -1.429  0.1512E+03  0.1742E+03
     -1.407  0.1503E+03  0.1774E+03
     -1.386  0.1094E+03  0.1798E+03
     -1.364  0.1153E+03  0.1823E+03
     -1.343  0.1821E+03  0.1862E+03
     -1.321  0.2481E+03  0.1916E+03
     -1.299  0.2730E+03  0.1975E+03
     -1.278  0.2530E+03  0.2029E+03
     -1.256  0.1993E+03  0.2072E+03
     -1.235  0.1388E+03  0.2102E+03
     -1.213  0.1395E+03  0.2132E+03
     -1.191  0.1872E+03  0.2173E+03
     -1.170  0.2026E+03  0.2217E+03
     -1.148  0.1620E+03  0.2252E+03
     -1.126  0.9824E+02  0.2273E+03
     -1.105  0.6966E+02  0.2288E+03
     -1.083  0.1092E+03  0.2311E+03
     -1.062  0.1658E+03  0.2347E+03
     -1.040  0.1710E+03  0.2384E+03
     -1.018  0.1214E+03  0.2410E+03
     -0.997  0.9227E+02  0.2430E+03
     -0.975  0.1444E+03  0.2462E+03
     -0.954  0.2129E+03  0.2508E+03
     -0.932  0.2378E+03  0.2559E+03
     -0.910  0.2198E+03  0.2606E+03
     -0.889  0.1685E+03  0.2643E+03
     -0.867  0.1223E+03  0.2669E+03
     -0.846  0.1034E+03  0.2692E+03
     -0.824  0.8212E+02  0.2709E+03
     -0.802  0.4846E+02  0.2720E+03
     -0.781  0.6049E+02  0.2733E+03
     -0.759  0.1403E+03  0.2763E+03
     -0.738  0.2169E+03  0.2810E+03
     -0.716  0.2469E+03  0.2863E+03
     -0.694  0.2413E+03  0.2916E+03
     -0.673  0.2124E+03  0.2961E+03
     -0.651  0.1816E+03  0.3001E+03
     -0.630  0.1725E+03  0.3038E+03
     -0.608  0.1970E+03  0.3081E+03
     -0.586  0.2389E+03  0.3132E+03
     -0.565  0.2629E+03  0.3189E+03
     -0.543  0.2536E+03  0.3244E+03
     -0.522  0.2113E+03  0.3289E+03
     -0.500  0.1496E+03  0.3322E+03
     -0.478  0.1219E+03  0.3348E+03
     -0.457  0.1393E+03  0.3378E+03
     -0.435  0.1508E+03  0.3411E+03
     -0.413  0.1378E+03  0.3440E+03
     -0.392  0.1489E+03  0.3473E+03
     -0.370  0.1985E+03  0.3516E+03
     -0.349  0.2411E+03  0.3568E+03
     -0.327  0.2560E+03  0.3623E+03
     -0.305  0.2541E+03  0.3678E+03
     -0.284  0.2437E+03  0.3731E+03
     -0.262  0.2116E+03  0.3776E+03
     -0.241  0.1778E+03  0.3815E+03
     -0.219  0.1844E+03  0.3854E+03
     -0.197  0.2116E+03  0.3900E+03
     -0.176  0.2164E+03  0.3947E+03
     -0.154  0.1978E+03  0.3990E+03
     -0.133  0.1637E+03  0.4025E+03
     -0.111  0.1346E+03  0.4054E+03
     -0.089  0.1281E+03  0.4082E+03
     -0.068  0.1423E+03  0.4113E+03
     -0.046  0.1860E+03  0.4153E+03
     -0.025  0.2303E+03  0.4203E+03
     -0.003  0.2289E+03  0.4252E+03
      0.019  0.2035E+03  0.4296E+03
      0.040  0.1942E+03  0.4338E+03
      0.062  0.2044E+03  0.4382E+03
      0.083  0.2107E+03  0.4428E+03
      0.105  0.2097E+03  0.4473E+03
      0.127  0.2182E+03  0.4520E+03
      0.148  0.2255E+03  0.4569E+03
      0.170  0.2121E+03  0.4615E+03
      0.191  0.1940E+03  0.4657E+03
      0.213  0.1898E+03  0.4698E+03
      0.235  0.2006E+03  0.4741E+03
      0.256  0.2270E+03  0.4790E+03
      0.278  0.2515E+03  0.4844E+03
      0.300  0.2576E+03  0.4900E+03
      0.321  0.2602E+03  0.4956E+03
      0.343  0.2689E+03  0.5014E+03
      0.364  0.2771E+03  0.5074E+03
      0.386  0.2795E+03  0.5135E+03
      0.408  0.2724E+03  0.5193E+03
      0.429  0.2581E+03  0.5249E+03
      0.451  0.2568E+03  0.5305E+03
      0.472  0.2625E+03  0.5361E+03
      0.494  0.2561E+03  0.5417E+03
      0.516  0.2439E+03  0.5469E+03
      0.537  0.2348E+03  0.5520E+03
      0.559  0.2307E+03  0.5570E+03
      0.580  0.2344E+03  0.5621E+03
      0.602  0.2420E+03  0.5673E+03
      0.624  0.2501E+03  0.5727E+03
      0.645  0.2525E+03  0.5781E+03
      0.667  0.2503E+03  0.5836E+03
      0.688  0.2452E+03  0.5888E+03
      0.710  0.2325E+03  0.5939E+03
      0.732  0.2294E+03  0.5988E+03
      0.753  0.2328E+03  0.6039E+03
      0.775  0.2329E+03  0.6089E+03
      0.796  0.2280E+03  0.6138E+03
      0.818  0.2074E+03  0.6183E+03
      0.840  0.1797E+03  0.6222E+03
      0.861  0.1685E+03  0.6258E+03
      0.883  0.1780E+03  0.6297E+03
      0.904  0.1903E+03  0.6338E+03
      0.926  0.1939E+03  0.6380E+03
      0.948  0.1843E+03  0.6420E+03
      0.969  0.1775E+03  0.6458E+03
      0.991  0.1738E+03  0.6495E+03
      1.013  0.1643E+03  0.6531E+03
      1.034  0.1568E+03  0.6565E+03
      1.056  0.1503E+03  0.6597E+03
      1.077  0.1409E+03  0.6628E+03
      1.099  0.1395E+03  0.6658E+03
      1.121  0.1550E+03  0.6691E+03
      1.142  0.1779E+03  0.6730E+03
      1.164  0.1944E+03  0.6772E+03
      1.185  0.2028E+03  0.6816E+03
      1.207  0.1985E+03  0.6858E+03
      1.229  0.1912E+03  0.6900E+03
      1.250  0.1926E+03  0.6941E+03
      1.272  0.2011E+03  0.6985E+03
      1.293  0.2006E+03  0.7028E+03
      1.315  0.1973E+03  0.7071E+03
      1.337  0.1927E+03  0.7112E+03
      1.358  0.1866E+03  0.7153E+03
      1.380  0.1937E+03  0.7195E+03
      1.401  0.2010E+03  0.7238E+03
      1.423  0.1942E+03  0.7280E+03
      1.445  0.1851E+03  0.7320E+03
      1.466  0.1861E+03  0.7360E+03
      1.488  0.1904E+03  0.7401E+03
      1.509  0.1917E+03  0.7443E+03
      1.531  0.1840E+03  0.7483E+03
      1.553  0.1765E+03  0.7521E+03
      1.574  0.1765E+03  0.7559E+03
      1.596  0.1679E+03  0.7595E+03
      1.617  0.1566E+03  0.7629E+03
      1.639  0.1458E+03  0.7660E+03
      1.661  0.1370E+03  0.7690E+03
      1.682  0.1301E+03  0.7718E+03
      1.704  0.1245E+03  0.7745E+03
      1.726  0.1330E+03  0.7774E+03
      1.747  0.1374E+03  0.7803E+03
      1.769  0.1268E+03  0.7831E+03
      1.790  0.1120E+03  0.7855E+03
      1.812  0.1018E+03  0.7877E+03
      1.834  0.1035E+03  0.7899E+03
      1.855  0.1009E+03  0.7921E+03
      1.877  0.8188E+02  0.7939E+03
      1.898  0.5745E+02  0.7951E+03
      1.920  0.3144E+02  0.7958E+03
      1.942  0.1788E+02  0.7962E+03
      1.963  0.3883E+02  0.7970E+03
      1.985  0.7254E+02  0.7986E+03
      2.006  0.7856E+02  0.8003E+03
      2.028  0.5491E+02  0.8015E+03
      2.050  0.3214E+02  0.8022E+03
      2.071  0.4120E+02  0.8031E+03
      2.093  0.6865E+02  0.8046E+03
      2.114  0.8285E+02  0.8063E+03
      2.136  0.9510E+02  0.8084E+03
      2.158  0.1101E+03  0.8108E+03
      2.179  0.1195E+03  0.8134E+03
      2.201  0.1280E+03  0.8161E+03
      2.222  0.1341E+03  0.8190E+03
      2.244  0.1367E+03  0.8220E+03
      2.266  0.1388E+03  0.8250E+03
      2.287  0.1489E+03  0.8282E+03
      2.309  0.1606E+03  0.8317E+03
      2.331  0.1588E+03  0.8351E+03
      2.352  0.1434E+03  0.8382E+03
      2.374  0.1292E+03  0.8410E+03
      2.395  0.1159E+03  0.8435E+03
      2.417  0.1105E+03  0.8459E+03
      2.439  0.1104E+03  0.8483E+03
      2.460  0.9973E+02  0.8504E+03
      2.482  0.9227E+02  0.8524E+03
      2.503  0.1072E+03  0.8547E+03
      2.525  0.1253E+03  0.8574E+03
      2.547  0.1321E+03  0.8603E+03
      2.568  0.1197E+03  0.8629E+03
      2.590  0.8668E+02  0.8647E+03
      2.611  0.4381E+02  0.8657E+03
      2.633  0.1241E+02  0.8660E+03
      2.655  0.1624E+01  0.8660E+03
      2.676  0.8765E-01  0.8660E+03
      2.698  0.1838E-02  0.8660E+03
      2.719  0.1453E-04  0.8660E+03
      2.741  0.4248E-07  0.8660E+03
      2.763  0.4547E-10  0.8660E+03
      2.784  0.1798E-13  0.8660E+03
      2.806  0.0000E+00  0.8660E+03
      2.827  0.0000E+00  0.8660E+03
      2.849  0.0000E+00  0.8660E+03
      2.871  0.0000E+00  0.8660E+03
      2.892  0.0000E+00  0.8660E+03
