       N       E                     dE             d eps       ncg     rms          rms(c)
DAV:   1    -0.276211575141E+03   -0.27621E+03   -0.10045E+05  3464   0.641E+02
DAV:   2    -0.754560785310E+03   -0.47835E+03   -0.43723E+03  4012   0.630E+01
DAV:   3    -0.789619308104E+03   -0.35059E+02   -0.32173E+02  4456   0.135E+01
DAV:   4    -0.790841886390E+03   -0.12226E+01   -0.12060E+01  4008   0.278E+00
DAV:   5    -0.790870181249E+03   -0.28295E-01   -0.28259E-01  4152   0.450E-01    0.836E+00
DAV:   6    -0.784149482670E+03    0.67207E+01   -0.85274E+00  4008   0.359E+00    0.537E+00
DAV:   7    -0.782351285688E+03    0.17982E+01   -0.63011E+00  4048   0.356E+00    0.417E+00
DAV:   8    -0.779978269942E+03    0.23730E+01   -0.41652E+00  3952   0.214E+00    0.184E+00
DAV:   9    -0.779847863492E+03    0.13041E+00   -0.23085E+00  3800   0.115E+00    0.100E+00
DAV:  10    -0.779871262193E+03   -0.23399E-01   -0.38081E-01  3952   0.623E-01    0.763E-01
DAV:  11    -0.779819457545E+03    0.51805E-01   -0.11513E-01  3896   0.407E-01    0.459E-01
DAV:  12    -0.779811104217E+03    0.83533E-02   -0.33038E-02  3784   0.172E-01    0.209E-01
DAV:  13    -0.779811419960E+03   -0.31574E-03   -0.11478E-02  3960   0.108E-01    0.120E-01
DAV:  14    -0.779810750542E+03    0.66942E-03   -0.34105E-03  3928   0.725E-02    0.804E-02
DAV:  15    -0.779810186868E+03    0.56367E-03   -0.10126E-03  3928   0.398E-02    0.434E-02
DAV:  16    -0.779810070824E+03    0.11604E-03   -0.56348E-04  3704   0.206E-02    0.152E-02
DAV:  17    -0.779810082840E+03   -0.12016E-04   -0.82553E-05  4152   0.108E-02    0.125E-02
DAV:  18    -0.779810062143E+03    0.20697E-04   -0.35145E-05  3536   0.752E-03    0.612E-03
DAV:  19    -0.779810059003E+03    0.31400E-05   -0.10623E-05  2088   0.371E-03
   1 F= -.77981006E+03 E0= -.77976651E+03  d E =-.871030E-01
