Li                                      
           1
    21.672000    0.000000    0.000000
     0.000000   21.672000    0.000000
     0.000000    0.000000   21.672000
   Li
   432
Direct configuration=     1
   0.99122752  0.99563291  0.00839044
   0.90628783  0.08337416  0.07377884
   0.84522473  0.16844309  0.15176016
   0.75390726  0.25708511  0.25937923
   0.66305356  0.35849542  0.35219050
   0.58525562  0.43058413  0.42466964
   0.49549501  0.51034699  0.49967168
   0.40855082  0.59604592  0.58432240
   0.33051190  0.68831489  0.67968547
   0.23909967  0.75085323  0.73708225
   0.15882241  0.84800914  0.81429353
   0.09272190  0.91514111  0.92538205
   0.08942873  0.90733393  0.06749086
   0.00650949  0.00251802  0.15143761
   0.91358637  0.08555495  0.23997219
   0.83498504  0.16737717  0.34965862
   0.74905002  0.27335122  0.43517836
   0.67519610  0.33953585  0.49352365
   0.59537712  0.43829034  0.58389301
   0.50107757  0.52108506  0.66824394
   0.39148565  0.58692576  0.75450546
   0.30494083  0.66181935  0.83841165
   0.24623756  0.76512418  0.88744532
   0.17624112  0.81897871  0.00589825
   0.18062132  0.85564278  0.16465531
   0.06232690  0.91675706  0.26644262
   0.99688308  0.99106590  0.33323639
   0.93902972  0.06676147  0.43266032
   0.84442169  0.14564798  0.49925496
   0.73910619  0.25908089  0.56819450
   0.67970384  0.33261686  0.66650395
   0.58156703  0.44123308  0.74608871
   0.46204995  0.49109326  0.80463559
   0.39531129  0.56706062  0.90783727
   0.30168126  0.67369890  0.95807293
   0.26453627  0.75532432  0.07828990
   0.24609864  0.77570539  0.24260001
   0.15249293  0.83500378  0.34795449
   0.06852391  0.92398016  0.43743042
   0.99089055  0.98847231  0.54699860
   0.93238679  0.09370321  0.58973703
   0.81460153  0.16188148  0.65792330
   0.75519556  0.22917748  0.74707471
   0.67433137  0.32328994  0.83616791
   0.59162761  0.40824841  0.90828297
   0.47921210  0.47800443  0.98959166
   0.41196397  0.61984966  0.05973069
   0.35592694  0.67948455  0.16287635
   0.31490174  0.68839989  0.33219049
   0.24234421  0.76591646  0.41981745
   0.16119702  0.84280602  0.50048321
   0.08779556  0.91636423  0.58942065
   0.00470488  0.99899374  0.66595238
   0.91066252  0.09807576  0.74711094
   0.84337716  0.16412924  0.84349506
   0.76211857  0.23842085  0.93260625
   0.66620931  0.35418545  0.01148240
   0.55680926  0.42944006  0.08463470
   0.48242572  0.51299247  0.16737736
   0.41504418  0.59289619  0.24654313
   0.40259647  0.59826082  0.40621408
   0.31088230  0.65778766  0.48804400
   0.26732274  0.74356272  0.58926879
   0.15862117  0.82846843  0.66425842
   0.07102227  0.90748839  0.71138491
   0.00198008  0.00826261  0.83264374
   0.91965139  0.09550359  0.94845260
   0.82801458  0.17509070  0.02450495
   0.75175199  0.22980593  0.07502909
   0.66580979  0.33435013  0.15142760
   0.56776847  0.43522919  0.25702161
   0.48138220  0.50818876  0.34719143
   0.07041888  0.07253920  0.92153564
   0.99846538  0.16066132  0.01131658
   0.91339104  0.26896764  0.06719707
   0.83303789  0.34093137  0.15596899
   0.74927402  0.41989585  0.24006697
   0.67431225  0.50351986  0.33884723
   0.57628889  0.57086021  0.40885564
   0.50200637  0.65023673  0.50265154
   0.40488503  0.73316627  0.58503475
   0.33969541  0.82595142  0.66039365
   0.24994065  0.92437996  0.74200986
   0.14701076  0.98759014  0.83314272
   0.19399133  0.00733670  0.98681112
   0.10936181  0.06480158  0.07418104
   0.01440408  0.14112915  0.15303170
   0.92193753  0.23550734  0.22425011
   0.85337580  0.32189687  0.31936081
   0.78655406  0.38954412  0.40721555
   0.67359199  0.50555160  0.48845336
   0.60632381  0.58467883  0.57302533
   0.51439149  0.66829617  0.67009226
   0.41384948  0.73706153  0.76019760
   0.33626500  0.81637775  0.80080474
   0.23540409  0.90246304  0.89557326
   0.26155480  0.91332061  0.08187100
   0.17631458  0.97580008  0.18492136
   0.07479766  0.07123967  0.25551786
   0.99495463  0.16643241  0.33700655
   0.90783718  0.24579620  0.43877211
   0.84801963  0.34865474  0.50681467
   0.74524326  0.39806991  0.57770590
   0.70016445  0.51337896  0.66453366
   0.56595629  0.55504787  0.72633364
   0.49125590  0.67243707  0.81584190
   0.42398269  0.77281689  0.89958631
   0.32768798  0.84872294  0.00110325
   0.32541303  0.83298664  0.14312744
   0.27352285  0.89515478  0.27209472
   0.15374072  0.01230561  0.31931392
   0.05593976  0.08408689  0.42571356
   0.98187061  0.18278230  0.50562329
   0.90608353  0.23912207  0.58391352
   0.84662160  0.32034152  0.66617627
   0.74344695  0.39116901  0.77091341
   0.66681746  0.50676752  0.85182399
   0.54364681  0.56823658  0.92751533
   0.48498677  0.66654885  0.96475776
   0.42761808  0.74874319  0.07075230
   0.40631231  0.76602130  0.25208310
   0.35973095  0.82489755  0.36745800
   0.24450342  0.91288629  0.40163725
   0.16230174  0.00743831  0.48147030
   0.07567214  0.09481295  0.58334512
   0.99146355  0.19087028  0.67218841
   0.91913823  0.23037546  0.74444137
   0.83296430  0.32379178  0.84719491
   0.76799923  0.43038390  0.91556905
   0.66173631  0.49274163  0.00716667
   0.55215331  0.59023808  0.08145482
   0.49485540  0.66623327  0.18010129
   0.50647260  0.67258971  0.32229697
   0.43657809  0.76283979  0.42831554
   0.33782644  0.85700523  0.49680715
   0.23105819  0.91015843  0.56771718
   0.17251559  0.01269111  0.65878556
   0.08667399  0.07598240  0.71957083
   0.00397172  0.15624038  0.83236347
   0.92111653  0.23697710  0.91107936
   0.83466978  0.33082182  0.00581259
   0.76956080  0.40862255  0.08531769
   0.65257301  0.49327483  0.14945116
   0.57357481  0.57165877  0.26283139
   0.16239022  0.14666663  0.82804032
   0.10252371  0.22802740  0.93855960
   0.00308052  0.34635742  0.98951311
   0.92450976  0.43350276  0.06553490
   0.81993734  0.51667582  0.16140005
   0.73887718  0.57314035  0.25247131
   0.66799974  0.66101760  0.33289457
   0.57385096  0.74453363  0.44719789
   0.49706110  0.84337190  0.50956410
   0.41782461  0.91135339  0.59652616
   0.32322124  0.00696414  0.67632364
   0.23519796  0.10014984  0.75107851
   0.25715773  0.08151835  0.88871419
   0.18656188  0.14689130  0.00450709
   0.10691297  0.27890342  0.08349371
   0.99628739  0.34531419  0.13999116
   0.90942494  0.42180221  0.22600145
   0.82804538  0.47472412  0.31840594
   0.75222991  0.56590666  0.40380768
   0.67787011  0.65726427  0.49786538
   0.58455272  0.75469299  0.57090422
   0.51282331  0.81114403  0.68513622
   0.44012185  0.91959670  0.74782346
   0.33895141  0.00435143  0.80422024
   0.31238448  0.02145926  0.99308361
   0.23107893  0.06731484  0.10772570
   0.14005307  0.15420165  0.18476540
   0.06865326  0.25292742  0.23825626
   0.97903465  0.33921132  0.31489727
   0.92504353  0.41120055  0.42544072
   0.83553519  0.48087864  0.50621067
   0.74629866  0.57565530  0.59124749
   0.65834962  0.66251891  0.68958766
   0.56466030  0.76353521  0.75793361
   0.50381206  0.84258086  0.85021053
   0.40035615  0.91641761  0.92361526
   0.41323823  0.93734901  0.06538576
   0.33249456  0.99615029  0.15558786
   0.25325688  0.09361620  0.25250304
   0.17273692  0.16444901  0.32951952
   0.06439141  0.25421510  0.41646800
   0.00246543  0.33524553  0.51574942
   0.90856010  0.40044928  0.58046921
   0.82770041  0.49737404  0.67108276
   0.75282380  0.58741234  0.78655179
   0.65529059  0.64338447  0.82005286
   0.60117060  0.74895271  0.90569617
   0.50519856  0.84888431  0.00165760
   0.50875321  0.83972980  0.15574335
   0.42127334  0.89094018  0.27838077
   0.34624896  0.99547023  0.33505903
   0.25976812  0.08851606  0.41472104
   0.16151998  0.16879857  0.49976089
   0.08338621  0.22782132  0.56332535
   0.99680447  0.32120748  0.64043090
   0.92837884  0.42122098  0.75124464
   0.83787911  0.51482005  0.83238853
   0.73681068  0.58812782  0.91658313
   0.65074581  0.67754195  0.98787449
   0.56963074  0.74262724  0.08414875
   0.58345363  0.74448823  0.24633388
   0.51458377  0.86589799  0.35822839
   0.40832583  0.93830870  0.41186344
   0.33631902  0.00311421  0.51176003
   0.26320145  0.09944246  0.58423818
   0.15782635  0.17038147  0.66666426
   0.10573821  0.25722814  0.72615090
   0.99985732  0.31689699  0.83765218
   0.90482821  0.41929381  0.92142538
   0.82431903  0.50266559  0.00856200
   0.73670154  0.58332727  0.08927069
   0.65582360  0.67120728  0.16014872
   0.25745946  0.25868165  0.74581626
   0.15266654  0.33131567  0.83851222
   0.06938664  0.42657606  0.90743937
   0.99626094  0.50508084  0.99600010
   0.90067395  0.59993841  0.10316316
   0.79902764  0.65611199  0.17387673
   0.73707996  0.74773019  0.26902277
   0.65506785  0.83662974  0.34112923
   0.57002574  0.93122228  0.43592190
   0.46531391  0.00154572  0.49478725
   0.42857045  0.10550610  0.57168165
   0.34455395  0.15964643  0.66199397
   0.34479706  0.15239212  0.83242896
   0.28136763  0.24166590  0.88660638
   0.16153361  0.34502018  0.97679244
   0.08117372  0.40906481  0.06753959
   0.99508041  0.49181410  0.14902724
   0.89952646  0.59856243  0.24534602
   0.83384459  0.67691602  0.34876417
   0.75755901  0.74514798  0.42276525
   0.67611501  0.83899217  0.52916785
   0.57674381  0.91633091  0.61425253
   0.50730811  0.01402953  0.67154815
   0.43374288  0.09421347  0.74083926
   0.42365054  0.07100187  0.91568649
   0.32391940  0.14367738  0.97443411
   0.21284839  0.23180097  0.06861219
   0.16769163  0.34796587  0.17178011
   0.07387179  0.40696733  0.25365261
   0.01244357  0.50986611  0.32447176
   0.90252221  0.57333217  0.42234955
   0.81114565  0.65164909  0.49128294
   0.76198778  0.74274654  0.58536446
   0.69483343  0.82645358  0.67380956
   0.59687620  0.92766895  0.73490872
   0.51215372  0.01564529  0.84988962
   0.52451816  0.99209278  0.00623463
   0.42541864  0.07917634  0.07734359
   0.30032620  0.16256673  0.13952396
   0.25254957  0.24902990  0.23906780
   0.14579106  0.32723797  0.33300507
   0.08111255  0.40083625  0.43979757
   0.01465910  0.49453296  0.49946909
   0.90640519  0.57943797  0.57851435
   0.84007343  0.65496162  0.66372168
   0.74400526  0.73100528  0.76881030
   0.67825683  0.83855541  0.82828015
   0.61486919  0.92783732  0.92505498
   0.60260274  0.91573319  0.07028157
   0.51534092  0.00111843  0.16051587
   0.41100267  0.09834980  0.23362915
   0.33849054  0.18354474  0.32326966
   0.24272489  0.24571914  0.41814888
   0.19691941  0.32217485  0.50051683
   0.08950587  0.40980168  0.58756039
   0.00612925  0.49031129  0.65876260
   0.93850892  0.57209723  0.74646174
   0.85517821  0.65447691  0.84411760
   0.75467700  0.71532926  0.90240556
   0.68002018  0.81377807  0.01480106
   0.66504084  0.82837302  0.18593847
   0.59038510  0.91015816  0.24760469
   0.47935086  0.01194310  0.30824941
   0.41569971  0.08602056  0.40603653
   0.32204801  0.17011482  0.49237435
   0.24940507  0.22469825  0.59518718
   0.17939404  0.32109774  0.64252163
   0.09147715  0.38830065  0.75115426
   0.02368807  0.49266839  0.84266007
   0.90087904  0.58375608  0.93060028
   0.82170870  0.68168025  0.02608300
   0.77055772  0.75470388  0.08196180
   0.32997462  0.32362692  0.65861880
   0.25539024  0.40144818  0.74704123
   0.16268796  0.50343763  0.83785340
   0.07432864  0.58179937  0.92738443
   0.99561915  0.67301516  0.99926965
   0.91507469  0.72690169  0.08373301
   0.85073974  0.83659127  0.17554835
   0.75335656  0.90934312  0.26644775
   0.65478583  0.98480283  0.35063563
   0.57602814  0.08310787  0.41871374
   0.50009962  0.17838582  0.49377553
   0.41670893  0.25324245  0.57938487
   0.42402830  0.25893823  0.75738756
   0.33506199  0.33948731  0.83370178
   0.23049049  0.41050172  0.91243010
   0.17247106  0.49385054  0.01866266
   0.10088958  0.59745480  0.06335704
   0.00144917  0.67333615  0.15938389
   0.90752143  0.75383987  0.24379038
   0.82608535  0.82418156  0.34297804
   0.74150379  0.93184088  0.44597690
   0.67639162  0.00036493  0.49788819
   0.58360627  0.06832090  0.58744310
   0.51474645  0.18328661  0.66552809
   0.50716898  0.18263426  0.84301370
   0.41333777  0.25962349  0.92683262
   0.30950130  0.32737518  0.01977466
   0.24132733  0.42047788  0.08375542
   0.16198165  0.49789362  0.16853289
   0.09146728  0.59104478  0.26931172
   0.98367983  0.68087797  0.31905000
   0.93849477  0.74713220  0.43333271
   0.81814172  0.80812214  0.52560207
   0.76942566  0.93272119  0.59863181
   0.67230243  0.00635970  0.67710243
   0.59708801  0.07731976  0.76741806
   0.58754049  0.07822192  0.92363251
   0.50904718  0.16523214  0.99178081
   0.41859484  0.23913487  0.06694529
   0.34758441  0.31846180  0.14685603
   0.24871440  0.41957039  0.25690972
   0.16374377  0.48795895  0.33554548
   0.07988036  0.58779789  0.43040979
   0.00704594  0.65904204  0.50291233
   0.91957122  0.71614595  0.59019441
   0.83416593  0.81425663  0.66910968
   0.78019542  0.93890205  0.74656805
   0.68775403  0.02565902  0.84965998
   0.69779057  0.00019807  0.03730652
   0.58319958  0.08702801  0.08781455
   0.51085953  0.17782086  0.17649683
   0.40827592  0.24503261  0.24394900
   0.32333467  0.34099675  0.32157717
   0.23492425  0.41329186  0.40000822
   0.15988425  0.48027958  0.50291100
   0.10282659  0.57741170  0.59674312
   0.00302210  0.63822804  0.66356407
   0.90426827  0.73693350  0.75005577
   0.84422064  0.82714721  0.83683976
   0.75988863  0.92472256  0.92449095
   0.76522970  0.89253449  0.10552229
   0.64580012  0.98424982  0.19674554
   0.59742437  0.08551311  0.27264933
   0.50828554  0.16052530  0.31702763
   0.42382229  0.25910359  0.42469425
   0.30593374  0.32195978  0.51271265
   0.26491295  0.42560931  0.57885942
   0.16838221  0.46122513  0.65650296
   0.08449253  0.55985986  0.75196472
   0.00203919  0.66980126  0.83146555
   0.90766252  0.74816747  0.91359595
   0.82553289  0.82133709  0.98994587
   0.42150143  0.40419370  0.57309154
   0.34849652  0.50873043  0.66198020
   0.23450104  0.57826743  0.73860706
   0.16528859  0.68448011  0.82409665
   0.09490909  0.77035819  0.92781268
   0.00349546  0.81302811  0.01549352
   0.92387974  0.91615541  0.07384785
   0.81958510  0.98733595  0.15863834
   0.73757453  0.08395731  0.24036096
   0.67855108  0.20004472  0.35190138
   0.58214909  0.27013756  0.44186520
   0.49027801  0.34527460  0.50957904
   0.49955534  0.33258202  0.64219988
   0.42032037  0.40939573  0.74083813
   0.30881566  0.47838232  0.82342498
   0.22355703  0.57831584  0.89585767
   0.17546861  0.67906809  0.98626182
   0.09898279  0.74906147  0.07353873
   0.02865031  0.81435105  0.16979377
   0.92145090  0.91405931  0.23742815
   0.85654598  0.01173209  0.34675963
   0.73172505  0.08131334  0.40800728
   0.65740085  0.15606748  0.48718453
   0.59941127  0.24221790  0.56800594
   0.58872089  0.27828442  0.74614936
   0.50397516  0.34580377  0.83006645
   0.41616888  0.39355881  0.92404887
   0.32864344  0.48625464  0.99287290
   0.25462807  0.59687499  0.08388138
   0.17721229  0.66562409  0.17211080
   0.10673459  0.74237970  0.23616653
   0.02900336  0.82420797  0.31917987
   0.94327590  0.89667607  0.41959639
   0.84349283  0.00423746  0.49958281
   0.73442528  0.07813928  0.59404466
   0.67367881  0.15659014  0.66214160
   0.66398353  0.19340981  0.82445455
   0.58749081  0.23647856  0.92905037
   0.49141932  0.33804316  0.00027409
   0.40046756  0.41376254  0.08220668
   0.35130235  0.50470117  0.15634647
   0.25971262  0.58432404  0.25879724
   0.17921273  0.67648879  0.35387066
   0.06873707  0.76719168  0.41036704
   0.00474050  0.81536669  0.50451748
   0.91026758  0.89528554  0.59421903
   0.84389807  0.01753522  0.66561800
   0.76275895  0.07383359  0.75024200
   0.75598270  0.11762867  0.92937228
   0.64705152  0.16031767  0.99203004
   0.56926268  0.25497846  0.07740407
   0.49163686  0.34213377  0.16780506
   0.42478432  0.41395360  0.23995565
   0.35235910  0.50369059  0.32555216
   0.24513322  0.57728404  0.42392261
   0.16855659  0.68072259  0.49417852
   0.10059844  0.75148480  0.58536201
   0.99375650  0.80901261  0.68343129
   0.90998343  0.94849607  0.76309320
   0.84412190  0.03822653  0.86323291
   0.81830719  0.01346039  0.02066859
   0.72878173  0.11570392  0.11406914
   0.65259474  0.18589183  0.17454212
   0.59838068  0.26562793  0.26967132
   0.50268980  0.33406323  0.31575356
   0.41609179  0.42641225  0.42490659
   0.34102270  0.51339465  0.49092065
   0.24388693  0.59469325  0.58518670
   0.15387401  0.67541695  0.66168162
   0.07874645  0.74064611  0.73685337
   0.98869379  0.84961587  0.82320464
   0.92689407  0.92659157  0.92032875
