 504 504   0   0
  0.1922536E+02  0.2105579E-08  0.2083983E-08  0.2208205E-08  0.5000000E-15
  1.000000000000000E-004
  CAR 
 Li                                      
      3.68469738     -3.36705211  301      0.53261041      1.00000000
     -3.367  0.0000E+00  0.0000E+00
     -3.344  0.0000E+00  0.0000E+00
     -3.320  0.0000E+00  0.0000E+00
     -3.297  0.0000E+00  0.0000E+00
     -3.273  0.0000E+00  0.0000E+00
     -3.250  0.0000E+00  0.0000E+00
     -3.226  0.0000E+00  0.0000E+00
     -3.203  0.7888E-11  0.1854E-12
     -3.179  0.1736E-07  0.4082E-09
     -3.155  0.1150E-04  0.2707E-06
     -3.132  0.2314E-02  0.5467E-04
     -3.108  0.1434E+00  0.3426E-02
     -3.085  0.2789E+01  0.6898E-01
     -3.061  0.1737E+02  0.4774E+00
     -3.038  0.3538E+02  0.1309E+01
     -3.014  0.2379E+02  0.1868E+01
     -2.991  0.5863E+01  0.2006E+01
     -2.967  0.9587E+01  0.2231E+01
     -2.944  0.4811E+02  0.3362E+01
     -2.920  0.9470E+02  0.5588E+01
     -2.897  0.7503E+02  0.7352E+01
     -2.873  0.2485E+02  0.7936E+01
     -2.850  0.1046E+02  0.8182E+01
     -2.826  0.4053E+02  0.9135E+01
     -2.803  0.8914E+02  0.1123E+02
     -2.779  0.8259E+02  0.1317E+02
     -2.756  0.3255E+02  0.1394E+02
     -2.732  0.1958E+02  0.1440E+02
     -2.709  0.5412E+02  0.1567E+02
     -2.685  0.9599E+02  0.1792E+02
     -2.662  0.9927E+02  0.2026E+02
     -2.638  0.5946E+02  0.2166E+02
     -2.615  0.3601E+02  0.2250E+02
     -2.591  0.6958E+02  0.2414E+02
     -2.568  0.1224E+03  0.2702E+02
     -2.544  0.1433E+03  0.3038E+02
     -2.521  0.1068E+03  0.3289E+02
     -2.497  0.4478E+02  0.3395E+02
     -2.474  0.3118E+02  0.3468E+02
     -2.450  0.6436E+02  0.3619E+02
     -2.427  0.8693E+02  0.3824E+02
     -2.403  0.6565E+02  0.3978E+02
     -2.380  0.4802E+02  0.4091E+02
     -2.356  0.6190E+02  0.4236E+02
     -2.333  0.8439E+02  0.4435E+02
     -2.309  0.1132E+03  0.4701E+02
     -2.286  0.1264E+03  0.4998E+02
     -2.262  0.1115E+03  0.5260E+02
     -2.239  0.1037E+03  0.5504E+02
     -2.215  0.1170E+03  0.5779E+02
     -2.192  0.1490E+03  0.6129E+02
     -2.168  0.1659E+03  0.6519E+02
     -2.145  0.1375E+03  0.6843E+02
     -2.121  0.8691E+02  0.7047E+02
     -2.098  0.5394E+02  0.7174E+02
     -2.074  0.4656E+02  0.7283E+02
     -2.051  0.6160E+02  0.7428E+02
     -2.027  0.6602E+02  0.7583E+02
     -2.004  0.7437E+02  0.7758E+02
     -1.980  0.1061E+03  0.8007E+02
     -1.957  0.1334E+03  0.8321E+02
     -1.933  0.1415E+03  0.8654E+02
     -1.910  0.1324E+03  0.8965E+02
     -1.886  0.1104E+03  0.9224E+02
     -1.863  0.1084E+03  0.9479E+02
     -1.839  0.1274E+03  0.9778E+02
     -1.816  0.1582E+03  0.1015E+03
     -1.792  0.1810E+03  0.1058E+03
     -1.769  0.1529E+03  0.1094E+03
     -1.745  0.8573E+02  0.1114E+03
     -1.722  0.3974E+02  0.1123E+03
     -1.698  0.6712E+02  0.1139E+03
     -1.675  0.1263E+03  0.1168E+03
     -1.651  0.1440E+03  0.1202E+03
     -1.628  0.1374E+03  0.1235E+03
     -1.604  0.1421E+03  0.1268E+03
     -1.581  0.1536E+03  0.1304E+03
     -1.557  0.1572E+03  0.1341E+03
     -1.534  0.1600E+03  0.1379E+03
     -1.510  0.1460E+03  0.1413E+03
     -1.487  0.1185E+03  0.1441E+03
     -1.463  0.1253E+03  0.1470E+03
     -1.440  0.1499E+03  0.1506E+03
     -1.416  0.1652E+03  0.1544E+03
     -1.393  0.1488E+03  0.1579E+03
     -1.369  0.1127E+03  0.1606E+03
     -1.346  0.9166E+02  0.1627E+03
     -1.322  0.1015E+03  0.1651E+03
     -1.299  0.1036E+03  0.1676E+03
     -1.275  0.9675E+02  0.1698E+03
     -1.252  0.1175E+03  0.1726E+03
     -1.228  0.1439E+03  0.1760E+03
     -1.205  0.1378E+03  0.1792E+03
     -1.181  0.1358E+03  0.1824E+03
     -1.158  0.1584E+03  0.1861E+03
     -1.134  0.1666E+03  0.1901E+03
     -1.110  0.1661E+03  0.1940E+03
     -1.087  0.1773E+03  0.1981E+03
     -1.063  0.2021E+03  0.2029E+03
     -1.040  0.2088E+03  0.2078E+03
     -1.016  0.2104E+03  0.2127E+03
     -0.993  0.2052E+03  0.2176E+03
     -0.969  0.1773E+03  0.2217E+03
     -0.946  0.1505E+03  0.2253E+03
     -0.922  0.1334E+03  0.2284E+03
     -0.899  0.1130E+03  0.2311E+03
     -0.875  0.1038E+03  0.2335E+03
     -0.852  0.1314E+03  0.2366E+03
     -0.828  0.1520E+03  0.2402E+03
     -0.805  0.1493E+03  0.2437E+03
     -0.781  0.1523E+03  0.2472E+03
     -0.758  0.1610E+03  0.2510E+03
     -0.734  0.1781E+03  0.2552E+03
     -0.711  0.1949E+03  0.2598E+03
     -0.687  0.1802E+03  0.2640E+03
     -0.664  0.1508E+03  0.2676E+03
     -0.640  0.1295E+03  0.2706E+03
     -0.617  0.1364E+03  0.2738E+03
     -0.593  0.1584E+03  0.2775E+03
     -0.570  0.1608E+03  0.2813E+03
     -0.546  0.1462E+03  0.2848E+03
     -0.523  0.1489E+03  0.2883E+03
     -0.499  0.1716E+03  0.2923E+03
     -0.476  0.2051E+03  0.2971E+03
     -0.452  0.2238E+03  0.3024E+03
     -0.429  0.2173E+03  0.3075E+03
     -0.405  0.2040E+03  0.3123E+03
     -0.382  0.1946E+03  0.3169E+03
     -0.358  0.2065E+03  0.3217E+03
     -0.335  0.2216E+03  0.3269E+03
     -0.311  0.2227E+03  0.3321E+03
     -0.288  0.1972E+03  0.3368E+03
     -0.264  0.1600E+03  0.3405E+03
     -0.241  0.1558E+03  0.3442E+03
     -0.217  0.1728E+03  0.3483E+03
     -0.194  0.1743E+03  0.3524E+03
     -0.170  0.1664E+03  0.3563E+03
     -0.147  0.1595E+03  0.3600E+03
     -0.123  0.1701E+03  0.3640E+03
     -0.100  0.1772E+03  0.3682E+03
     -0.076  0.1834E+03  0.3725E+03
     -0.053  0.1985E+03  0.3772E+03
     -0.029  0.2111E+03  0.3821E+03
     -0.006  0.2135E+03  0.3871E+03
      0.018  0.2132E+03  0.3922E+03
      0.041  0.2249E+03  0.3974E+03
      0.065  0.2432E+03  0.4032E+03
      0.088  0.2465E+03  0.4090E+03
      0.112  0.2371E+03  0.4145E+03
      0.135  0.2187E+03  0.4197E+03
      0.159  0.1964E+03  0.4243E+03
      0.182  0.1930E+03  0.4288E+03
      0.206  0.2024E+03  0.4336E+03
      0.229  0.2136E+03  0.4386E+03
      0.253  0.2103E+03  0.4435E+03
      0.276  0.2017E+03  0.4483E+03
      0.300  0.1927E+03  0.4528E+03
      0.323  0.1827E+03  0.4571E+03
      0.347  0.1841E+03  0.4614E+03
      0.370  0.1895E+03  0.4659E+03
      0.394  0.1913E+03  0.4704E+03
      0.417  0.1976E+03  0.4750E+03
      0.441  0.2129E+03  0.4800E+03
      0.464  0.2378E+03  0.4856E+03
      0.488  0.2601E+03  0.4917E+03
      0.511  0.2751E+03  0.4982E+03
      0.535  0.2724E+03  0.5046E+03
      0.558  0.2580E+03  0.5107E+03
      0.582  0.2511E+03  0.5166E+03
      0.605  0.2509E+03  0.5225E+03
      0.629  0.2585E+03  0.5286E+03
      0.652  0.2722E+03  0.5350E+03
      0.676  0.2732E+03  0.5414E+03
      0.699  0.2616E+03  0.5475E+03
      0.723  0.2551E+03  0.5535E+03
      0.746  0.2568E+03  0.5596E+03
      0.770  0.2501E+03  0.5654E+03
      0.793  0.2423E+03  0.5711E+03
      0.817  0.2409E+03  0.5768E+03
      0.840  0.2298E+03  0.5822E+03
      0.864  0.2083E+03  0.5871E+03
      0.888  0.1990E+03  0.5918E+03
      0.911  0.1944E+03  0.5963E+03
      0.935  0.1934E+03  0.6009E+03
      0.958  0.1960E+03  0.6055E+03
      0.982  0.1909E+03  0.6100E+03
      1.005  0.1885E+03  0.6144E+03
      1.029  0.1928E+03  0.6189E+03
      1.052  0.2008E+03  0.6237E+03
      1.076  0.2078E+03  0.6285E+03
      1.099  0.2093E+03  0.6335E+03
      1.123  0.2068E+03  0.6383E+03
      1.146  0.2079E+03  0.6432E+03
      1.170  0.2191E+03  0.6484E+03
      1.193  0.2331E+03  0.6538E+03
      1.217  0.2370E+03  0.6594E+03
      1.240  0.2262E+03  0.6647E+03
      1.264  0.2232E+03  0.6700E+03
      1.287  0.2269E+03  0.6753E+03
      1.311  0.2221E+03  0.6805E+03
      1.334  0.2139E+03  0.6856E+03
      1.358  0.2068E+03  0.6904E+03
      1.381  0.2024E+03  0.6952E+03
      1.405  0.2075E+03  0.7001E+03
      1.428  0.2133E+03  0.7051E+03
      1.452  0.2142E+03  0.7101E+03
      1.475  0.2182E+03  0.7152E+03
      1.499  0.2141E+03  0.7203E+03
      1.522  0.2078E+03  0.7252E+03
      1.546  0.2088E+03  0.7301E+03
      1.569  0.2043E+03  0.7349E+03
      1.593  0.2026E+03  0.7396E+03
      1.616  0.2018E+03  0.7444E+03
      1.640  0.1887E+03  0.7488E+03
      1.663  0.1856E+03  0.7532E+03
      1.687  0.2045E+03  0.7580E+03
      1.710  0.2118E+03  0.7630E+03
      1.734  0.2069E+03  0.7678E+03
      1.757  0.2158E+03  0.7729E+03
      1.781  0.2167E+03  0.7780E+03
      1.804  0.2060E+03  0.7828E+03
      1.828  0.2075E+03  0.7877E+03
      1.851  0.2082E+03  0.7926E+03
      1.875  0.2070E+03  0.7975E+03
      1.898  0.2067E+03  0.8023E+03
      1.922  0.2078E+03  0.8072E+03
      1.945  0.2138E+03  0.8122E+03
      1.969  0.2128E+03  0.8172E+03
      1.992  0.2047E+03  0.8220E+03
      2.016  0.2046E+03  0.8269E+03
      2.039  0.2010E+03  0.8316E+03
      2.063  0.1975E+03  0.8362E+03
      2.086  0.1934E+03  0.8408E+03
      2.110  0.1917E+03  0.8453E+03
      2.133  0.1972E+03  0.8499E+03
      2.157  0.1955E+03  0.8545E+03
      2.180  0.1940E+03  0.8591E+03
      2.204  0.1947E+03  0.8636E+03
      2.227  0.1803E+03  0.8679E+03
      2.251  0.1672E+03  0.8718E+03
      2.274  0.1663E+03  0.8757E+03
      2.298  0.1692E+03  0.8797E+03
      2.321  0.1828E+03  0.8840E+03
      2.345  0.1911E+03  0.8885E+03
      2.368  0.1780E+03  0.8927E+03
      2.392  0.1602E+03  0.8964E+03
      2.415  0.1587E+03  0.9002E+03
      2.439  0.1580E+03  0.9039E+03
      2.462  0.1531E+03  0.9075E+03
      2.486  0.1487E+03  0.9110E+03
      2.509  0.1455E+03  0.9144E+03
      2.533  0.1422E+03  0.9177E+03
      2.556  0.1498E+03  0.9212E+03
      2.580  0.1569E+03  0.9249E+03
      2.603  0.1502E+03  0.9285E+03
      2.627  0.1409E+03  0.9318E+03
      2.650  0.1278E+03  0.9348E+03
      2.674  0.1232E+03  0.9377E+03
      2.697  0.1359E+03  0.9409E+03
      2.721  0.1462E+03  0.9443E+03
      2.744  0.1361E+03  0.9475E+03
      2.768  0.1279E+03  0.9505E+03
      2.791  0.1414E+03  0.9538E+03
      2.815  0.1448E+03  0.9572E+03
      2.838  0.1379E+03  0.9605E+03
      2.862  0.1402E+03  0.9638E+03
      2.885  0.1397E+03  0.9671E+03
      2.909  0.1343E+03  0.9702E+03
      2.933  0.1279E+03  0.9732E+03
      2.956  0.1281E+03  0.9762E+03
      2.980  0.1382E+03  0.9795E+03
      3.003  0.1291E+03  0.9825E+03
      3.027  0.1149E+03  0.9852E+03
      3.050  0.1132E+03  0.9879E+03
      3.074  0.1074E+03  0.9904E+03
      3.097  0.9758E+02  0.9927E+03
      3.121  0.8578E+02  0.9947E+03
      3.144  0.9260E+02  0.9969E+03
      3.168  0.1014E+03  0.9993E+03
      3.191  0.8543E+02  0.1001E+04
      3.215  0.7210E+02  0.1003E+04
      3.238  0.6713E+02  0.1005E+04
      3.262  0.5939E+02  0.1006E+04
      3.285  0.4773E+02  0.1007E+04
      3.309  0.3014E+02  0.1008E+04
      3.332  0.1865E+02  0.1008E+04
      3.356  0.3063E+02  0.1009E+04
      3.379  0.3156E+02  0.1010E+04
      3.403  0.1173E+02  0.1010E+04
      3.426  0.1500E+01  0.1010E+04
      3.450  0.6429E-01  0.1010E+04
      3.473  0.8999E-03  0.1010E+04
      3.497  0.4016E-05  0.1010E+04
      3.520  0.5601E-08  0.1010E+04
      3.544  0.2404E-11  0.1010E+04
      3.567  0.0000E+00  0.1010E+04
      3.591  0.0000E+00  0.1010E+04
      3.614  0.0000E+00  0.1010E+04
      3.638  0.0000E+00  0.1010E+04
      3.661  0.0000E+00  0.1010E+04
      3.685  0.0000E+00  0.1010E+04
