       N       E                     dE             d eps       ncg     rms          rms(c)
DAV:   1    -0.261672669625E+03   -0.26167E+03   -0.12438E+05  4040   0.662E+02
DAV:   2    -0.882897422325E+03   -0.62122E+03   -0.56867E+03  4628   0.689E+01
DAV:   3    -0.926826180628E+03   -0.43929E+02   -0.40010E+02  5192   0.145E+01
DAV:   4    -0.928311851605E+03   -0.14857E+01   -0.14618E+01  4696   0.289E+00
DAV:   5    -0.928346265797E+03   -0.34414E-01   -0.34346E-01  4856   0.466E-01    0.971E+00
DAV:   6    -0.921800514917E+03    0.65458E+01   -0.11819E+01  4648   0.430E+00    0.707E+00
DAV:   7    -0.918849025273E+03    0.29515E+01   -0.90507E+00  4704   0.434E+00    0.559E+00
DAV:   8    -0.914947547490E+03    0.39015E+01   -0.46754E+00  4664   0.265E+00    0.294E+00
DAV:   9    -0.914634272002E+03    0.31328E+00   -0.24779E+00  4624   0.164E+00    0.224E+00
DAV:  10    -0.914155185098E+03    0.47909E+00   -0.13060E+00  4584   0.115E+00    0.123E+00
DAV:  11    -0.914073204199E+03    0.81981E-01   -0.42196E-01  4392   0.522E-01    0.654E-01
DAV:  12    -0.914072580667E+03    0.62353E-03   -0.83128E-02  4608   0.291E-01    0.478E-01
DAV:  13    -0.914061980064E+03    0.10601E-01   -0.39083E-02  4632   0.234E-01    0.344E-01
DAV:  14    -0.914053394497E+03    0.85856E-02   -0.13623E-02  4552   0.140E-01    0.175E-01
DAV:  15    -0.914053611482E+03   -0.21698E-03   -0.56885E-03  4616   0.959E-02    0.138E-01
DAV:  16    -0.914051368849E+03    0.22426E-02   -0.32592E-03  4560   0.673E-02    0.571E-02
DAV:  17    -0.914051242432E+03    0.12642E-03   -0.11185E-03  4304   0.281E-02    0.262E-02
DAV:  18    -0.914051246379E+03   -0.39462E-05   -0.18428E-04  4888   0.154E-02    0.233E-02
DAV:  19    -0.914051184006E+03    0.62373E-04   -0.89039E-05  4688   0.113E-02    0.122E-02
DAV:  20    -0.914051162814E+03    0.21192E-04   -0.31066E-05  3712   0.604E-03    0.553E-03
DAV:  21    -0.914051158055E+03    0.47586E-05   -0.14720E-05  2312   0.368E-03
   1 F= -.91405116E+03 E0= -.91399115E+03  d E =-.120019E+00
