Li                                      
           1
   -10.527895   18.234849   -0.000000
   -18.047820  -10.419914    0.000000
    -0.000000    0.000000   22.082050
   Li
   504
Direct configuration=     1
   0.98987822  0.99629886  0.01552117
   0.94446999  0.03175738  0.64669042
   0.84480959  0.09111670  0.32152166
   0.78812708  0.13629409  0.98420010
   0.71276996  0.16391473  0.65855232
   0.65306507  0.21057102  0.33268346
   0.54194846  0.23945318  0.98774037
   0.50342430  0.30632723  0.66736828
   0.46053050  0.31198120  0.33079541
   0.36262228  0.38471203  0.00247548
   0.28165682  0.40855259  0.66602702
   0.22923206  0.45717459  0.34812137
   0.09120511  0.05627342  0.66083354
   0.00584098  0.09958708  0.34202185
   0.92259359  0.12924484  0.99306603
   0.86869942  0.14654599  0.68183970
   0.79854833  0.19688250  0.32918859
   0.68003441  0.25661046  0.99018579
   0.64205524  0.31043633  0.66226845
   0.59997522  0.32533013  0.33730512
   0.50031540  0.37635406  0.96912666
   0.42891996  0.42001584  0.67141502
   0.35848924  0.44852448  0.34381694
   0.28556034  0.49957085  0.00166791
   0.15467633  0.09979072  0.35117216
   0.05207314  0.13432315  0.02524529
   0.01697524  0.15979436  0.67188686
   0.93385861  0.19479919  0.31108751
   0.84938762  0.24328243  0.98727888
   0.77772549  0.26122433  0.66863228
   0.72042908  0.32644865  0.31413351
   0.60779159  0.36165923  0.98492242
   0.59410646  0.43342386  0.65881396
   0.50962827  0.44556886  0.32614628
   0.43385466  0.51049669  0.01159411
   0.35884176  0.52589565  0.65879493
   0.19395665  0.13635878  0.99817680
   0.16618105  0.16523286  0.68480758
   0.09699306  0.19566183  0.34950222
   0.97913768  0.26050210  0.99993666
   0.91959448  0.26483674  0.66834708
   0.86959995  0.32099137  0.31748213
   0.77704289  0.38333102  0.01961843
   0.73266684  0.42918816  0.66261679
   0.64794553  0.45458659  0.32736289
   0.56435220  0.50333455  0.99246122
   0.50907635  0.55265198  0.67174507
   0.43274266  0.58509499  0.34031103
   0.29603811  0.16561223  0.66045309
   0.23373537  0.20676772  0.34606049
   0.11893693  0.27783288  0.02083185
   0.06322426  0.28874122  0.66209153
   0.00389249  0.32151235  0.34401693
   0.92269704  0.36905759  0.02106372
   0.87056400  0.41325304  0.64672118
   0.78280174  0.44761019  0.33645953
   0.70112351  0.46556014  0.99865860
   0.64837122  0.56225482  0.67494989
   0.55126675  0.58153827  0.33933901
   0.50765948  0.62254431  0.99221717
   0.37958666  0.19653203  0.33281560
   0.27212770  0.25662976  0.01017372
   0.22650840  0.32624787  0.68117158
   0.14981534  0.32659177  0.34308036
   0.07011039  0.38495141  0.99739999
   0.00067689  0.39943097  0.67773757
   0.91893020  0.46533027  0.34491345
   0.85672412  0.49469694  0.01638794
   0.79055262  0.55558982  0.66722309
   0.70991313  0.61769877  0.34499898
   0.64187527  0.62559015  0.00236703
   0.57219592  0.69059509  0.65543356
   0.40590982  0.27569932  0.99723555
   0.37003954  0.29792960  0.64916694
   0.30058081  0.32672860  0.32670688
   0.21142349  0.37874373  0.99930100
   0.14513379  0.40695716  0.67858273
   0.08280905  0.46005280  0.34060040
   0.98121125  0.51127803  0.99751282
   0.93741977  0.52840225  0.66273773
   0.86713937  0.58242863  0.32433551
   0.77298925  0.58656405  0.99615237
   0.70822415  0.67627116  0.67589290
   0.64061344  0.71241543  0.32444192
   0.14806450  0.51967810  0.99659045
   0.07067945  0.52847143  0.66378930
   0.00915641  0.59410125  0.34719678
   0.90748439  0.60882899  0.99055552
   0.85919550  0.68883435  0.66534452
   0.79283949  0.70729528  0.33115956
   0.72382103  0.74772867  0.02021646
   0.22718261  0.53887222  0.66597588
   0.12938292  0.58927150  0.32755528
   0.06397310  0.60724137  0.99257613
   0.01693570  0.66593169  0.66310546
   0.93729235  0.70933710  0.33711771
   0.86161432  0.74811049  0.98203605
   0.78728650  0.78735266  0.67882412
   0.27497049  0.58146802  0.33212147
   0.20098616  0.61682486  0.99582097
   0.13332526  0.67527366  0.67134150
   0.06634667  0.71681219  0.33876319
   0.98848840  0.74246567  0.98782474
   0.93766937  0.81384214  0.65005131
   0.86221764  0.81764978  0.32106559
   0.36449432  0.63225824  0.02711186
   0.29068916  0.67084431  0.67100512
   0.23136440  0.70445849  0.34359231
   0.14374396  0.72338710  0.99381631
   0.09316563  0.80434605  0.66360437
   0.98816976  0.84520361  0.33498285
   0.92628523  0.87992633  0.00706148
   0.43269842  0.66371208  0.66667509
   0.36495162  0.69459494  0.32092478
   0.27860542  0.75222803  0.01506641
   0.22347603  0.78291557  0.68252416
   0.13697548  0.84029887  0.34750312
   0.06226254  0.87188199  0.00448884
   0.01498270  0.93703633  0.64914285
   0.90826722  0.96951563  0.31474204
   0.85443348  0.00553607  0.97875469
   0.80418598  0.04951325  0.66586927
   0.72791512  0.07127181  0.31560484
   0.62898999  0.10563203  0.00387991
   0.56903136  0.17659090  0.65714279
   0.50960664  0.18442373  0.31626369
   0.04564045  0.96783182  0.32488668
   0.12329290  0.99283070  0.01879333
   0.22992735  0.04484458  0.66769950
   0.28977946  0.07007785  0.33398181
   0.33810181  0.12967575  0.98959625
   0.43945557  0.15502911  0.64269236
   0.84617261  0.91787755  0.65528662
   0.78959466  0.95223098  0.33251106
   0.72187419  0.00656541  0.97887228
   0.64065022  0.04850127  0.65155906
   0.58997157  0.06024777  0.33667366
   0.48733932  0.11499642  0.99851073
   0.15314223  0.92426468  0.67424360
   0.19226190  0.96101502  0.33770304
   0.26751000  0.99881881  0.01715348
   0.37194172  0.03362266  0.67481004
   0.45206837  0.05120212  0.33228744
   0.77719290  0.87816893  0.00036165
   0.71476681  0.92273190  0.67126732
   0.64477544  0.96039381  0.31318628
   0.57541080  0.98619360  0.98458681
   0.51450384  0.02580187  0.66699943
   0.19828405  0.85046232  0.01449018
   0.27719653  0.90010406  0.66515099
   0.34332400  0.96719000  0.32857464
   0.43810410  0.99265484  0.01067538
   0.71397783  0.83891472  0.34086864
   0.64227488  0.87548233  0.01038763
   0.58487799  0.91670497  0.66793484
   0.49292271  0.94855440  0.31883552
   0.27449589  0.82558352  0.32900275
   0.34720593  0.87287142  0.00199903
   0.45843878  0.90493535  0.66305709
   0.66443381  0.79731227  0.67468311
   0.58506570  0.84327443  0.32587707
   0.49599520  0.88741756  0.01159201
   0.35497688  0.79708016  0.67134009
   0.41496006  0.83157624  0.33686767
   0.57117091  0.74224666  0.00973180
   0.50538348  0.80561208  0.65536237
   0.42274005  0.75097000  0.99481798
   0.51010277  0.70770287  0.32878926
   0.99935322  0.99514780  0.77784825
   0.95089870  0.04513620  0.45022870
   0.87121196  0.07624387  0.08502394
   0.75998874  0.13539042  0.76336554
   0.72805937  0.15900523  0.44087239
   0.64543310  0.20774341  0.09871705
   0.56083643  0.26370341  0.76645800
   0.52267776  0.28157804  0.42716454
   0.42484894  0.35124842  0.09761808
   0.35306890  0.39504607  0.76917164
   0.28381599  0.41520803  0.46846926
   0.20722307  0.46317238  0.12604753
   0.10267774  0.03085734  0.44838260
   0.00127197  0.05431144  0.11907407
   0.93557770  0.10459160  0.76896952
   0.87953163  0.17388387  0.45260115
   0.81021053  0.20941550  0.10155200
   0.69748143  0.25430464  0.77736618
   0.64914776  0.28205440  0.45407249
   0.56616863  0.34435064  0.10060525
   0.49508335  0.39380026  0.76621256
   0.43747634  0.39394517  0.43845149
   0.34627528  0.46448410  0.10930567
   0.27932970  0.50326541  0.77902899
   0.13111471  0.06526850  0.12175561
   0.06857451  0.11155410  0.81099610
   0.01546542  0.17973206  0.43637362
   0.92112794  0.19486440  0.10368181
   0.84650297  0.24001065  0.78060207
   0.77850761  0.30419251  0.42739336
   0.70456132  0.35754538  0.11294014
   0.62559659  0.38567926  0.77863045
   0.56537298  0.42356250  0.43615504
   0.49286885  0.45788048  0.11643705
   0.42289899  0.51157617  0.78843667
   0.36207999  0.54013825  0.45759993
   0.23136617  0.11935724  0.78149536
   0.15838266  0.16386813  0.44816733
   0.05643193  0.21873125  0.12527968
   0.00422272  0.24263915  0.78471355
   0.93952440  0.29018880  0.43459429
   0.86677179  0.35003572  0.12688807
   0.75438115  0.38153169  0.76952897
   0.69560677  0.41234504  0.43976731
   0.63964468  0.46982060  0.11629063
   0.57862191  0.52636856  0.77110374
   0.48664299  0.53210432  0.45126528
   0.43132312  0.57802320  0.10615502
   0.29256696  0.16558341  0.44051298
   0.19884287  0.22482772  0.11411597
   0.13991718  0.23971008  0.76375285
   0.08297482  0.28012736  0.45657195
   0.00279385  0.32034828  0.12610862
   0.91591136  0.37401046  0.78789275
   0.85556201  0.40581679  0.45723017
   0.79340283  0.49350963  0.12408503
   0.69894758  0.50952838  0.78072847
   0.63179869  0.54659778  0.45501836
   0.56662092  0.59050165  0.09765487
   0.49797919  0.64740329  0.77498157
   0.37650743  0.20397500  0.12542811
   0.26019598  0.27531082  0.77634552
   0.22435010  0.29223187  0.44081362
   0.13284322  0.34525563  0.12178580
   0.07561093  0.36217063  0.78566527
   0.98768430  0.42656807  0.44495066
   0.92697090  0.45743584  0.11612302
   0.84896559  0.49752383  0.76996106
   0.77305842  0.54411729  0.44313630
   0.71873375  0.58002515  0.12394753
   0.62672060  0.65038936  0.76501679
   0.56620453  0.67250589  0.44374888
   0.41181108  0.26451795  0.76724725
   0.37682419  0.29994483  0.41439208
   0.29038853  0.33135481  0.10164789
   0.19169777  0.39513195  0.79732101
   0.13073138  0.39460368  0.47363948
   0.07036615  0.46674974  0.10191399
   0.98161594  0.48239186  0.78611745
   0.91472432  0.56570466  0.44874200
   0.88270531  0.59058607  0.10241027
   0.77696351  0.62804224  0.78129080
   0.70514107  0.68287578  0.44941313
   0.63205895  0.70923465  0.12691880
   0.13258877  0.49408911  0.77138284
   0.06505636  0.54721036  0.44136104
   0.01517218  0.57425640  0.12616683
   0.92002205  0.62696637  0.78828237
   0.86192025  0.66314290  0.43657227
   0.78426775  0.69650975  0.09594503
   0.70669820  0.77079179  0.78388330
   0.19467717  0.53805890  0.45125788
   0.16660427  0.58569305  0.12767533
   0.06294954  0.62264605  0.78452558
   0.99614157  0.68246672  0.44741822
   0.93165865  0.71271537  0.08486479
   0.85053947  0.74824803  0.76989590
   0.79005336  0.79996794  0.44628913
   0.30065903  0.58765413  0.11994814
   0.21091556  0.64127885  0.78458900
   0.13995872  0.68902689  0.44386691
   0.07938903  0.69739052  0.10704203
   0.98945949  0.75079501  0.76399120
   0.92329751  0.80466202  0.45970980
   0.85692652  0.81731766  0.11885424
   0.33008643  0.62374938  0.77788817
   0.29585625  0.65827686  0.43571570
   0.22762690  0.70029112  0.09836559
   0.12871598  0.74442829  0.78407612
   0.06196433  0.78907772  0.43837959
   0.99782045  0.83514785  0.11187178
   0.93938860  0.87382476  0.76776226
   0.42937511  0.65003854  0.43960922
   0.37126194  0.71445601  0.12708977
   0.28676301  0.76061317  0.79937722
   0.22200298  0.79154475  0.44177418
   0.14500351  0.82123022  0.11763098
   0.07674486  0.86161612  0.78109617
   0.99765441  0.91998720  0.42668332
   0.91519754  0.95381129  0.09276243
   0.85671067  0.98170926  0.77615574
   0.79108860  0.03902999  0.41579329
   0.72313708  0.08313566  0.09738113
   0.63695872  0.10384100  0.78885268
   0.58645042  0.17594260  0.42930570
   0.51335662  0.20290414  0.08811731
   0.05174565  0.96409774  0.11219831
   0.14065336  0.99542702  0.79163896
   0.23926553  0.03122666  0.44102894
   0.26195163  0.09765305  0.11726072
   0.34536594  0.14388266  0.76460391
   0.42569486  0.14364034  0.45619432
   0.86157098  0.91489595  0.44324603
   0.75906137  0.96387361  0.09795058
   0.71646874  0.99821762  0.75513040
   0.65296574  0.05569334  0.43360695
   0.57660193  0.07973952  0.09383985
   0.48550517  0.11491234  0.76943596
   0.14735675  0.90799332  0.43479059
   0.20278992  0.95105990  0.13050230
   0.30072560  0.98492310  0.79873615
   0.35973190  0.04601038  0.44782354
   0.41620742  0.08200670  0.12205353
   0.78539548  0.87441212  0.77733403
   0.72099812  0.92593033  0.42137549
   0.63507182  0.95952882  0.11365070
   0.57251603  0.01098593  0.79031025
   0.51498925  0.04049924  0.42601617
   0.22113517  0.86121756  0.79524927
   0.30686689  0.91464100  0.42255510
   0.34237233  0.96040974  0.11231427
   0.42796520  0.01340767  0.77696810
   0.73068514  0.80614632  0.12567755
   0.64547321  0.87262912  0.77869473
   0.58668773  0.92167148  0.43967412
   0.48897443  0.96591250  0.11502629
   0.29468115  0.84317394  0.12115071
   0.34697141  0.87145854  0.78588124
   0.45215540  0.93401088  0.44268951
   0.64165780  0.79702077  0.44831423
   0.58423449  0.86262149  0.11752510
   0.49721702  0.89959535  0.78683516
   0.34106624  0.76640962  0.44874749
   0.43328713  0.86361869  0.10914368
   0.57568354  0.77356584  0.77267912
   0.48449740  0.79437904  0.44264300
   0.42995526  0.75363877  0.78369997
   0.50117394  0.71930737  0.11169825
   0.96789168  0.00655079  0.22487337
   0.92017256  0.03474106  0.89931464
   0.86361672  0.08481680  0.56189063
   0.77874539  0.12461700  0.19938019
   0.70074356  0.17317900  0.89882794
   0.64776590  0.20985733  0.56253659
   0.56882865  0.23318276  0.22849128
   0.49765132  0.29526556  0.87944371
   0.43532129  0.31958606  0.55711436
   0.37588734  0.37661925  0.22974041
   0.27185952  0.40474549  0.88626216
   0.22556750  0.46978194  0.56359492
   0.05398459  0.03385232  0.91291950
   0.00580795  0.09202481  0.54943669
   0.91605234  0.12477320  0.20095949
   0.87637547  0.16692023  0.86843709
   0.81120101  0.22321584  0.55944346
   0.71899126  0.23623709  0.20740343
   0.63259682  0.28272871  0.87745672
   0.57886399  0.33302173  0.54314032
   0.50925941  0.37326370  0.20483963
   0.41654438  0.41078328  0.87613197
   0.36922686  0.44963771  0.56705803
   0.27095479  0.52398949  0.23477850
   0.16696550  0.09008469  0.56000767
   0.07114744  0.12525083  0.23847766
   0.99950374  0.17223900  0.89309664
   0.94271689  0.18414070  0.55471756
   0.85783582  0.24967229  0.21328370
   0.79456425  0.28971380  0.91876678
   0.71496155  0.33371081  0.53632058
   0.63503064  0.37438445  0.20702521
   0.56934628  0.41688499  0.89207841
   0.49018868  0.45829082  0.56044059
   0.43852454  0.51264894  0.22181775
   0.35214267  0.53738042  0.89600592
   0.21344039  0.14060299  0.23205445
   0.12901467  0.16429898  0.89192060
   0.09393321  0.19977459  0.56326957
   0.98227853  0.23775551  0.22061453
   0.92172728  0.32022522  0.89123648
   0.86730559  0.31992773  0.55455035
   0.78058044  0.37866648  0.21555291
   0.68738767  0.40773229  0.89637698
   0.63450989  0.46707481  0.56929807
   0.56826014  0.49813889  0.22589859
   0.49579260  0.52297363  0.89444907
   0.42970855  0.57361561  0.54713185
   0.27696014  0.19295544  0.88442605
   0.24106835  0.21997599  0.57810079
   0.13422683  0.22955687  0.24343014
   0.06167679  0.29984229  0.89832016
   0.00227238  0.32190360  0.55016447
   0.95240054  0.38705585  0.23717721
   0.83989945  0.43189873  0.89255188
   0.79883435  0.44889783  0.54450115
   0.72630680  0.50453267  0.22532683
   0.62406032  0.56499889  0.89345445
   0.59691465  0.59165439  0.56995275
   0.51159479  0.62516522  0.22255053
   0.37291882  0.20638518  0.55305952
   0.27621981  0.24388007  0.22339581
   0.19127528  0.29631167  0.88893198
   0.16313131  0.34444674  0.55662477
   0.09699099  0.36890657  0.22718510
   0.99767365  0.41364271  0.90179372
   0.94212887  0.45396074  0.55623646
   0.86147993  0.50068211  0.22062440
   0.76921190  0.52991735  0.88384518
   0.73210406  0.58015222  0.54445187
   0.63958177  0.62016913  0.22531375
   0.54895181  0.68403514  0.88502785
   0.42810657  0.24752969  0.21201172
   0.34116128  0.29229874  0.87611369
   0.29855088  0.32664229  0.56898902
   0.20443745  0.37369722  0.22983337
   0.13552409  0.41812245  0.89064666
   0.07780735  0.45886321  0.56441983
   0.02601720  0.49474962  0.24189241
   0.90830161  0.53159594  0.89104349
   0.86362804  0.58061803  0.55634483
   0.78948137  0.62830236  0.21851858
   0.68530030  0.66964521  0.90700078
   0.65265282  0.70549120  0.54655141
   0.13518269  0.49182528  0.23333523
   0.06119651  0.54160786  0.87788514
   0.00183495  0.59433714  0.56316747
   0.95065477  0.61379066  0.21921365
   0.83996674  0.66068525  0.88322409
   0.80525332  0.70113192  0.55176951
   0.73054059  0.73685430  0.22323251
   0.20795136  0.54799827  0.88340840
   0.13082460  0.59240745  0.55043381
   0.08865000  0.63330641  0.24435085
   0.98946359  0.66385989  0.88692132
   0.92735202  0.70409876  0.54756790
   0.87265896  0.73909014  0.20593461
   0.77359523  0.79983203  0.89370364
   0.28025512  0.58378891  0.53663128
   0.22428594  0.65032983  0.24151688
   0.14550201  0.67399257  0.90278853
   0.06343239  0.71184767  0.56584931
   0.01023879  0.75346727  0.21814989
   0.93553679  0.77939640  0.88114733
   0.84904460  0.83839014  0.56387443
   0.35973511  0.61737906  0.21717155
   0.29179453  0.66387809  0.90493835
   0.21937173  0.70096365  0.56622923
   0.14569461  0.73849222  0.21341038
   0.06248040  0.79311885  0.88865303
   0.00405009  0.83730152  0.55673486
   0.94541232  0.87705698  0.21324406
   0.39924561  0.66584386  0.88204483
   0.34014762  0.69010576  0.56648138
   0.27758546  0.72662795  0.21394477
   0.20511045  0.78726505  0.90812588
   0.15979040  0.83756709  0.54656173
   0.07480022  0.88329325  0.22544950
   0.98916873  0.90316917  0.88760372
   0.92598141  0.95438860  0.55045582
   0.84795110  0.00122568  0.20186325
   0.77216304  0.05067568  0.86483806
   0.71887483  0.10370559  0.54994733
   0.63118351  0.11229632  0.20520490
   0.55765639  0.15953034  0.89829143
   0.51270210  0.20542406  0.54404587
   0.06965104  0.95369670  0.54665725
   0.13618364  0.01589662  0.24772863
   0.18755125  0.04836068  0.90794466
   0.29094107  0.08437216  0.55671072
   0.36886971  0.11871605  0.24326494
   0.42680604  0.15793250  0.88401230
   0.84560465  0.91258802  0.88971082
   0.78926345  0.98172995  0.54542925
   0.71515662  0.99665062  0.21625837
   0.65749881  0.03042475  0.87200119
   0.56107364  0.06728646  0.53785868
   0.50253876  0.10871086  0.19839974
   0.13863063  0.92081075  0.90784735
   0.22821157  0.98091352  0.56527728
   0.27648922  0.00597610  0.21205744
   0.36623813  0.03744254  0.88909386
   0.42834489  0.06516531  0.54004483
   0.79423445  0.86223542  0.22561509
   0.70915052  0.93759493  0.87734447
   0.64408555  0.95993918  0.54511651
   0.55971593  0.98656737  0.21628428
   0.50381684  0.02593816  0.88727508
   0.22124377  0.86628193  0.20867276
   0.28552320  0.92222637  0.90635458
   0.35960022  0.94186591  0.55871148
   0.41520537  0.99425665  0.23080943
   0.72181829  0.84943665  0.54989535
   0.65844037  0.87889091  0.22208528
   0.56127793  0.91416860  0.90285363
   0.51237397  0.93906677  0.53944252
   0.27364097  0.81066081  0.57135409
   0.37364786  0.86552386  0.23254841
   0.42722088  0.89780490  0.91272764
   0.64595130  0.80947461  0.90891180
   0.57663540  0.81969195  0.53950219
   0.49997520  0.86662077  0.22476281
   0.35262490  0.78858215  0.88718082
   0.41461017  0.81663158  0.54651580
   0.56217264  0.76376221  0.21768268
   0.49640693  0.78842532  0.87840728
   0.42997995  0.73989519  0.22886249
   0.50397445  0.72267955  0.54093734
