 432 432   0   0
  0.1915683E+02  0.2022720E-08  0.2022720E-08  0.2022720E-08  0.5000000E-15
  1.000000000000000E-004
  CAR 
 Li                                      
      3.76393926     -3.35555520  301      0.54913419      1.00000000
     -3.356  0.0000E+00  0.0000E+00
     -3.332  0.0000E+00  0.0000E+00
     -3.308  0.0000E+00  0.0000E+00
     -3.284  0.0000E+00  0.0000E+00
     -3.261  0.0000E+00  0.0000E+00
     -3.237  0.0000E+00  0.0000E+00
     -3.213  0.0000E+00  0.0000E+00
     -3.189  0.4647E-11  0.1103E-12
     -3.166  0.1181E-07  0.2804E-09
     -3.142  0.8824E-05  0.2097E-06
     -3.118  0.1957E-02  0.4665E-04
     -3.095  0.1306E+00  0.3146E-02
     -3.071  0.2674E+01  0.6660E-01
     -3.047  0.1718E+02  0.4742E+00
     -3.023  0.3535E+02  0.1313E+01
     -3.000  0.2355E+02  0.1872E+01
     -2.976  0.5190E+01  0.1995E+01
     -2.952  0.3522E+01  0.2079E+01
     -2.928  0.2480E+02  0.2667E+01
     -2.905  0.7367E+02  0.4416E+01
     -2.881  0.9116E+02  0.6579E+01
     -2.857  0.4853E+02  0.7731E+01
     -2.833  0.1119E+02  0.7996E+01
     -2.810  0.9742E+01  0.8227E+01
     -2.786  0.4324E+02  0.9253E+01
     -2.762  0.8651E+02  0.1131E+02
     -2.739  0.7724E+02  0.1314E+02
     -2.715  0.3100E+02  0.1388E+02
     -2.691  0.8606E+01  0.1408E+02
     -2.667  0.2687E+02  0.1472E+02
     -2.644  0.8003E+02  0.1662E+02
     -2.620  0.1119E+03  0.1927E+02
     -2.596  0.8168E+02  0.2121E+02
     -2.572  0.3038E+02  0.2193E+02
     -2.549  0.2031E+02  0.2241E+02
     -2.525  0.6761E+02  0.2402E+02
     -2.501  0.1283E+03  0.2706E+02
     -2.477  0.1441E+03  0.3048E+02
     -2.454  0.1007E+03  0.3287E+02
     -2.430  0.4068E+02  0.3384E+02
     -2.406  0.1811E+02  0.3427E+02
     -2.383  0.4362E+02  0.3530E+02
     -2.359  0.7982E+02  0.3720E+02
     -2.335  0.7666E+02  0.3901E+02
     -2.311  0.3565E+02  0.3986E+02
     -2.288  0.1798E+02  0.4029E+02
     -2.264  0.5406E+02  0.4157E+02
     -2.240  0.1135E+03  0.4426E+02
     -2.216  0.1409E+03  0.4761E+02
     -2.193  0.1179E+03  0.5040E+02
     -2.169  0.6104E+02  0.5185E+02
     -2.145  0.4980E+02  0.5303E+02
     -2.122  0.1086E+03  0.5561E+02
     -2.098  0.1633E+03  0.5949E+02
     -2.074  0.1816E+03  0.6380E+02
     -2.050  0.1558E+03  0.6749E+02
     -2.027  0.8274E+02  0.6946E+02
     -2.003  0.2811E+02  0.7012E+02
     -1.979  0.3876E+02  0.7104E+02
     -1.955  0.8026E+02  0.7295E+02
     -1.932  0.8205E+02  0.7490E+02
     -1.908  0.4010E+02  0.7585E+02
     -1.884  0.2437E+02  0.7643E+02
     -1.860  0.7276E+02  0.7815E+02
     -1.837  0.1425E+03  0.8153E+02
     -1.813  0.1683E+03  0.8553E+02
     -1.789  0.1281E+03  0.8857E+02
     -1.766  0.5717E+02  0.8993E+02
     -1.742  0.4472E+02  0.9099E+02
     -1.718  0.1004E+03  0.9337E+02
     -1.694  0.1668E+03  0.9733E+02
     -1.671  0.1954E+03  0.1020E+03
     -1.647  0.1528E+03  0.1056E+03
     -1.623  0.7898E+02  0.1075E+03
     -1.599  0.4357E+02  0.1085E+03
     -1.576  0.8038E+02  0.1104E+03
     -1.552  0.1338E+03  0.1136E+03
     -1.528  0.1400E+03  0.1169E+03
     -1.504  0.9810E+02  0.1192E+03
     -1.481  0.6680E+02  0.1208E+03
     -1.457  0.1116E+03  0.1235E+03
     -1.433  0.1680E+03  0.1275E+03
     -1.410  0.1832E+03  0.1318E+03
     -1.386  0.1583E+03  0.1356E+03
     -1.362  0.9178E+02  0.1377E+03
     -1.338  0.6640E+02  0.1393E+03
     -1.315  0.1147E+03  0.1420E+03
     -1.291  0.1709E+03  0.1461E+03
     -1.267  0.1903E+03  0.1506E+03
     -1.243  0.1426E+03  0.1540E+03
     -1.220  0.7292E+02  0.1557E+03
     -1.196  0.5464E+02  0.1570E+03
     -1.172  0.9854E+02  0.1594E+03
     -1.149  0.1334E+03  0.1625E+03
     -1.125  0.1249E+03  0.1655E+03
     -1.101  0.8006E+02  0.1674E+03
     -1.077  0.4639E+02  0.1685E+03
     -1.054  0.7274E+02  0.1702E+03
     -1.030  0.1145E+03  0.1729E+03
     -1.006  0.1378E+03  0.1762E+03
     -0.982  0.1176E+03  0.1790E+03
     -0.959  0.9359E+02  0.1812E+03
     -0.935  0.1409E+03  0.1846E+03
     -0.911  0.2166E+03  0.1897E+03
     -0.887  0.2583E+03  0.1958E+03
     -0.864  0.2524E+03  0.2018E+03
     -0.840  0.2039E+03  0.2067E+03
     -0.816  0.1331E+03  0.2098E+03
     -0.793  0.1222E+03  0.2127E+03
     -0.769  0.1695E+03  0.2167E+03
     -0.745  0.1870E+03  0.2212E+03
     -0.721  0.1552E+03  0.2249E+03
     -0.698  0.9747E+02  0.2272E+03
     -0.674  0.5961E+02  0.2286E+03
     -0.650  0.9294E+02  0.2308E+03
     -0.626  0.1587E+03  0.2346E+03
     -0.603  0.1739E+03  0.2387E+03
     -0.579  0.1212E+03  0.2416E+03
     -0.555  0.9426E+02  0.2438E+03
     -0.531  0.1351E+03  0.2470E+03
     -0.508  0.1932E+03  0.2516E+03
     -0.484  0.2162E+03  0.2567E+03
     -0.460  0.1932E+03  0.2613E+03
     -0.437  0.1547E+03  0.2650E+03
     -0.413  0.1191E+03  0.2678E+03
     -0.389  0.9238E+02  0.2700E+03
     -0.365  0.6261E+02  0.2715E+03
     -0.342  0.4847E+02  0.2726E+03
     -0.318  0.9523E+02  0.2749E+03
     -0.294  0.1704E+03  0.2789E+03
     -0.270  0.2086E+03  0.2839E+03
     -0.247  0.2080E+03  0.2888E+03
     -0.223  0.1895E+03  0.2933E+03
     -0.199  0.1714E+03  0.2974E+03
     -0.176  0.1768E+03  0.3016E+03
     -0.152  0.1805E+03  0.3059E+03
     -0.128  0.1781E+03  0.3101E+03
     -0.104  0.2030E+03  0.3149E+03
     -0.081  0.2334E+03  0.3205E+03
     -0.057  0.2238E+03  0.3258E+03
     -0.033  0.1710E+03  0.3298E+03
     -0.009  0.1235E+03  0.3327E+03
      0.014  0.1315E+03  0.3359E+03
      0.038  0.1600E+03  0.3397E+03
      0.062  0.1577E+03  0.3434E+03
      0.086  0.1588E+03  0.3472E+03
      0.109  0.1878E+03  0.3516E+03
      0.133  0.2150E+03  0.3567E+03
      0.157  0.2243E+03  0.3621E+03
      0.180  0.2204E+03  0.3673E+03
      0.204  0.2125E+03  0.3723E+03
      0.228  0.1932E+03  0.3769E+03
      0.252  0.1718E+03  0.3810E+03
      0.275  0.1679E+03  0.3850E+03
      0.299  0.1759E+03  0.3892E+03
      0.323  0.1892E+03  0.3936E+03
      0.347  0.1904E+03  0.3982E+03
      0.370  0.1694E+03  0.4022E+03
      0.394  0.1435E+03  0.4056E+03
      0.418  0.1362E+03  0.4088E+03
      0.442  0.1546E+03  0.4125E+03
      0.465  0.1801E+03  0.4168E+03
      0.489  0.1990E+03  0.4215E+03
      0.513  0.1907E+03  0.4260E+03
      0.536  0.1669E+03  0.4300E+03
      0.560  0.1621E+03  0.4338E+03
      0.584  0.1860E+03  0.4382E+03
      0.608  0.2115E+03  0.4433E+03
      0.631  0.2133E+03  0.4483E+03
      0.655  0.1898E+03  0.4528E+03
      0.679  0.1743E+03  0.4570E+03
      0.703  0.1756E+03  0.4611E+03
      0.726  0.1817E+03  0.4654E+03
      0.750  0.1942E+03  0.4700E+03
      0.774  0.2040E+03  0.4749E+03
      0.797  0.2006E+03  0.4796E+03
      0.821  0.1936E+03  0.4842E+03
      0.845  0.2011E+03  0.4890E+03
      0.869  0.2136E+03  0.4941E+03
      0.892  0.2263E+03  0.4995E+03
      0.916  0.2381E+03  0.5051E+03
      0.940  0.2304E+03  0.5106E+03
      0.964  0.2217E+03  0.5158E+03
      0.987  0.2226E+03  0.5211E+03
      1.011  0.2219E+03  0.5264E+03
      1.035  0.2184E+03  0.5316E+03
      1.059  0.2164E+03  0.5367E+03
      1.082  0.2199E+03  0.5419E+03
      1.106  0.2169E+03  0.5471E+03
      1.130  0.2104E+03  0.5521E+03
      1.153  0.2101E+03  0.5570E+03
      1.177  0.2140E+03  0.5621E+03
      1.201  0.2206E+03  0.5674E+03
      1.225  0.2185E+03  0.5725E+03
      1.248  0.2144E+03  0.5776E+03
      1.272  0.2101E+03  0.5826E+03
      1.296  0.2036E+03  0.5874E+03
      1.320  0.2010E+03  0.5922E+03
      1.343  0.1941E+03  0.5968E+03
      1.367  0.1831E+03  0.6012E+03
      1.391  0.1762E+03  0.6053E+03
      1.415  0.1766E+03  0.6095E+03
      1.438  0.1812E+03  0.6138E+03
      1.462  0.1791E+03  0.6181E+03
      1.486  0.1793E+03  0.6223E+03
      1.509  0.1778E+03  0.6266E+03
      1.533  0.1672E+03  0.6305E+03
      1.557  0.1643E+03  0.6344E+03
      1.581  0.1726E+03  0.6385E+03
      1.604  0.1742E+03  0.6427E+03
      1.628  0.1615E+03  0.6465E+03
      1.652  0.1506E+03  0.6501E+03
      1.676  0.1535E+03  0.6537E+03
      1.699  0.1511E+03  0.6573E+03
      1.723  0.1458E+03  0.6608E+03
      1.747  0.1519E+03  0.6644E+03
      1.770  0.1531E+03  0.6680E+03
      1.794  0.1470E+03  0.6715E+03
      1.818  0.1564E+03  0.6752E+03
      1.842  0.1602E+03  0.6790E+03
      1.865  0.1653E+03  0.6829E+03
      1.889  0.1816E+03  0.6872E+03
      1.913  0.1832E+03  0.6916E+03
      1.937  0.1738E+03  0.6957E+03
      1.960  0.1652E+03  0.6996E+03
      1.984  0.1625E+03  0.7035E+03
      2.008  0.1657E+03  0.7074E+03
      2.032  0.1719E+03  0.7115E+03
      2.055  0.1723E+03  0.7156E+03
      2.079  0.1705E+03  0.7196E+03
      2.103  0.1656E+03  0.7236E+03
      2.126  0.1707E+03  0.7276E+03
      2.150  0.1717E+03  0.7317E+03
      2.174  0.1691E+03  0.7357E+03
      2.198  0.1665E+03  0.7396E+03
      2.221  0.1556E+03  0.7433E+03
      2.245  0.1495E+03  0.7469E+03
      2.269  0.1428E+03  0.7503E+03
      2.293  0.1395E+03  0.7536E+03
      2.316  0.1387E+03  0.7569E+03
      2.340  0.1441E+03  0.7603E+03
      2.364  0.1453E+03  0.7637E+03
      2.388  0.1375E+03  0.7670E+03
      2.411  0.1239E+03  0.7699E+03
      2.435  0.1207E+03  0.7728E+03
      2.459  0.1103E+03  0.7754E+03
      2.482  0.1016E+03  0.7778E+03
      2.506  0.1082E+03  0.7804E+03
      2.530  0.1205E+03  0.7833E+03
      2.554  0.1131E+03  0.7860E+03
      2.577  0.9952E+02  0.7883E+03
      2.601  0.1013E+03  0.7907E+03
      2.625  0.9432E+02  0.7930E+03
      2.649  0.6839E+02  0.7946E+03
      2.672  0.4030E+02  0.7955E+03
      2.696  0.2356E+02  0.7961E+03
      2.720  0.3511E+02  0.7969E+03
      2.743  0.6430E+02  0.7985E+03
      2.767  0.7479E+02  0.8002E+03
      2.791  0.6160E+02  0.8017E+03
      2.815  0.4692E+02  0.8028E+03
      2.838  0.5350E+02  0.8041E+03
      2.862  0.6804E+02  0.8057E+03
      2.886  0.8229E+02  0.8076E+03
      2.910  0.9697E+02  0.8099E+03
      2.933  0.1049E+03  0.8124E+03
      2.957  0.1023E+03  0.8149E+03
      2.981  0.1062E+03  0.8174E+03
      3.005  0.1113E+03  0.8200E+03
      3.028  0.1108E+03  0.8227E+03
      3.052  0.1159E+03  0.8254E+03
      3.076  0.1194E+03  0.8282E+03
      3.099  0.1203E+03  0.8311E+03
      3.123  0.1291E+03  0.8342E+03
      3.147  0.1368E+03  0.8374E+03
      3.171  0.1336E+03  0.8406E+03
      3.194  0.1122E+03  0.8432E+03
      3.218  0.9179E+02  0.8454E+03
      3.242  0.8359E+02  0.8474E+03
      3.266  0.8267E+02  0.8494E+03
      3.289  0.9002E+02  0.8515E+03
      3.313  0.1028E+03  0.8539E+03
      3.337  0.1089E+03  0.8565E+03
      3.361  0.1022E+03  0.8589E+03
      3.384  0.9760E+02  0.8613E+03
      3.408  0.9483E+02  0.8635E+03
      3.432  0.6444E+02  0.8650E+03
      3.455  0.3029E+02  0.8658E+03
      3.479  0.8938E+01  0.8660E+03
      3.503  0.1137E+01  0.8660E+03
      3.527  0.4989E-01  0.8660E+03
      3.550  0.6938E-03  0.8660E+03
      3.574  0.2951E-05  0.8660E+03
      3.598  0.3768E-08  0.8660E+03
      3.622  0.1427E-11  0.8660E+03
      3.645  0.0000E+00  0.8660E+03
      3.669  0.0000E+00  0.8660E+03
      3.693  0.0000E+00  0.8660E+03
      3.716  0.0000E+00  0.8660E+03
      3.740  0.0000E+00  0.8660E+03
      3.764  0.0000E+00  0.8660E+03
