 running on   64 total cores
 distrk:  each k-point on   32 cores,    2 groups
 distr:  one band on   32 cores,    1 groups
 vasp.6.2.1 16May21 (build Nov 23 2021 15:40:41) complex                        
  
 POSCAR found type information on POSCAR Li
 POSCAR found :  1 types and     432 ions
 scaLAPACK will be used
 -----------------------------------------------------------------------------
|                                                                             |
|           W    W    AA    RRRRR   N    N  II  N    N   GGGG   !!!           |
|           W    W   A  A   R    R  NN   N  II  NN   N  G    G  !!!           |
|           W    W  A    A  R    R  N N  N  II  N N  N  G       !!!           |
|           W WW W  AAAAAA  RRRRR   N  N N  II  N  N N  G  GGG   !            |
|           WW  WW  A    A  R   R   N   NN  II  N   NN  G    G                |
|           W    W  A    A  R    R  N    N  II  N    N   GGGG   !!!           |
|                                                                             |
|     For optimal performance we recommend to set                             |
|       NCORE = 2 up to number-of-cores-per-socket                            |
|     NCORE specifies how many cores store one orbital (NPAR=cpu/NCORE).      |
|     This setting can greatly improve the performance of VASP for DFT.       |
|     The default, NCORE=1 might be grossly inefficient on modern             |
|     multi-core architectures or massively parallel machines. Do your        |
|     own testing! More info at https://www.vasp.at/wiki/index.php/NCORE      |
|     Unfortunately you need to use the default for GW and RPA                |
|     calculations (for HF NCORE is supported but not extensively tested      |
|     yet).                                                                   |
|                                                                             |
 -----------------------------------------------------------------------------

 -----------------------------------------------------------------------------
|                                                                             |
|               ----> ADVICE to this user running VASP <----                  |
|                                                                             |
|     You have a (more or less) 'large supercell' and for larger cells it     |
|     might be more efficient to use real-space projection operators.         |
|     Therefore, try LREAL= Auto in the INCAR file.                           |
|     Mind: If you want to do very accurate calculations, keep the            |
|     reciprocal projection scheme (i.e. LREAL=.FALSE.).                      |
|                                                                             |
 -----------------------------------------------------------------------------

 LDA part: xc-table for Pade appr. of Perdew
 POSCAR found type information on POSCAR Li
 POSCAR found :  1 types and     432 ions
 POSCAR, INCAR and KPOINTS ok, starting setup
 FFT: planning ...
 WAVECAR not read
 entering main loop
       N       E                     dE             d eps       ncg     rms          rms(c)
DAV:   1    -0.202251266757E+03   -0.20225E+03   -0.10649E+05  3464   0.661E+02
DAV:   2    -0.742749626440E+03   -0.54050E+03   -0.49312E+03  3996   0.692E+01
DAV:   3    -0.781341603172E+03   -0.38592E+02   -0.35331E+02  4416   0.146E+01
DAV:   4    -0.782632372175E+03   -0.12908E+01   -0.12726E+01  4024   0.293E+00
DAV:   5    -0.782663147292E+03   -0.30775E-01   -0.30725E-01  4184   0.473E-01    0.108E+01
DAV:   6    -0.773906192604E+03    0.87570E+01   -0.14683E+01  4024   0.523E+00    0.750E+00
DAV:   7    -0.768750958506E+03    0.51552E+01   -0.11157E+01  4144   0.491E+00    0.506E+00
DAV:   8    -0.765605996534E+03    0.31450E+01   -0.56679E+00  3992   0.264E+00    0.232E+00
DAV:   9    -0.765364266774E+03    0.24173E+00   -0.28654E+00  3800   0.136E+00    0.126E+00
DAV:  10    -0.765340293459E+03    0.23973E-01   -0.50354E-01  3896   0.672E-01    0.819E-01
DAV:  11    -0.765309125860E+03    0.31168E-01   -0.11111E-01  4016   0.424E-01    0.577E-01
DAV:  12    -0.765286319020E+03    0.22807E-01   -0.31479E-02  3984   0.211E-01    0.240E-01
DAV:  13    -0.765285832455E+03    0.48657E-03   -0.16087E-02  3880   0.117E-01    0.118E-01
DAV:  14    -0.765285594395E+03    0.23806E-03   -0.36200E-03  3920   0.661E-02    0.750E-02
DAV:  15    -0.765285238874E+03    0.35552E-03   -0.85341E-04  3912   0.398E-02    0.492E-02
DAV:  16    -0.765285024570E+03    0.21430E-03   -0.39778E-04  3864   0.206E-02    0.172E-02
DAV:  17    -0.765285029103E+03   -0.45332E-05   -0.11382E-04  4064   0.117E-02    0.127E-02
DAV:  18    -0.765285009501E+03    0.19602E-04   -0.43403E-05  3640   0.802E-03    0.650E-03
DAV:  19    -0.765285003719E+03    0.57822E-05   -0.93821E-06  2056   0.367E-03
   1 F= -.76528500E+03 E0= -.76524878E+03  d E =-.724377E-01
