Li                                      
           1
    20.227200    0.000000    0.000000
     0.000000   20.227200    0.000000
     0.000000    0.000000   20.227200
   Li
   432
Direct configuration=     1
   0.98834609  0.99242498  0.96112683
   0.92867169  0.06157227  0.06583847
   0.82951176  0.14852103  0.12101198
   0.76934957  0.22856293  0.22622929
   0.67468809  0.33890854  0.31919533
   0.59345354  0.41690199  0.40619233
   0.53540817  0.47737503  0.48663618
   0.42754444  0.57828831  0.58402599
   0.34845025  0.63709895  0.68898761
   0.28570177  0.74163942  0.75441760
   0.19913689  0.83338700  0.82559144
   0.09204047  0.89627185  0.92567031
   0.09312301  0.92235032  0.08144451
   0.01343986  0.01259936  0.15858473
   0.91380408  0.09496021  0.21155262
   0.83422419  0.14288682  0.34176172
   0.76353154  0.22016842  0.41704788
   0.66038626  0.35527126  0.49863008
   0.59159884  0.41337554  0.58494347
   0.48947493  0.46892728  0.66273690
   0.41624702  0.55679783  0.76275171
   0.33320930  0.62500079  0.84092251
   0.23917664  0.71759201  0.89943409
   0.19490404  0.82790796  0.00370606
   0.14382329  0.83948556  0.14624299
   0.08864445  0.91778962  0.26542444
   0.99252875  0.01234455  0.32463119
   0.92408177  0.07690872  0.43571547
   0.82819053  0.18277646  0.50684336
   0.75368287  0.27993613  0.56953293
   0.67440420  0.35838484  0.66618557
   0.58192971  0.40678926  0.75966043
   0.49877041  0.54035739  0.85107322
   0.38299101  0.57406080  0.94944240
   0.31245164  0.65208756  0.00865089
   0.23614215  0.70706829  0.09426436
   0.24166627  0.74966148  0.27220051
   0.16132833  0.83578297  0.35486608
   0.08958207  0.91747101  0.44247267
   0.00535791  0.99487635  0.50993052
   0.94293704  0.08793965  0.56843996
   0.80746724  0.14246143  0.64962884
   0.73640490  0.24346284  0.73945369
   0.66734160  0.31401211  0.84672548
   0.59866727  0.43015697  0.92298819
   0.49776100  0.49711466  0.01299678
   0.39165767  0.58670901  0.09142287
   0.35044108  0.66599647  0.18701234
   0.34963797  0.65063490  0.32760024
   0.26123885  0.74066499  0.42504502
   0.19260455  0.82910473  0.48006323
   0.09934945  0.88631717  0.57511942
   0.04114676  0.99111214  0.66394681
   0.93450917  0.05814720  0.70573866
   0.84457135  0.16491901  0.82351659
   0.73880624  0.24485532  0.93093374
   0.65551050  0.34261724  0.00585731
   0.58983477  0.42524494  0.09363858
   0.53535240  0.53219679  0.17829456
   0.43523645  0.58691167  0.23631130
   0.42336862  0.56742669  0.42200749
   0.33994108  0.64187057  0.49751892
   0.28343188  0.72523814  0.59448058
   0.19708558  0.78493997  0.67478722
   0.08908400  0.90077923  0.77458616
   0.98631950  0.99460734  0.84140875
   0.91807468  0.08277759  0.91498295
   0.82574920  0.13522251  0.98730951
   0.74733351  0.22013424  0.06378390
   0.69345722  0.34897830  0.14315091
   0.61204527  0.41460217  0.21703837
   0.52777033  0.49305830  0.31661948
   0.09840512  0.09435515  0.92418537
   0.98772143  0.16483535  0.00232831
   0.90164198  0.24680532  0.06555735
   0.83999233  0.30859115  0.14707790
   0.75584369  0.40758503  0.23042643
   0.68814532  0.51472252  0.31787134
   0.58163814  0.58779203  0.39353806
   0.50344443  0.66573621  0.49573684
   0.42674809  0.73667780  0.58367742
   0.34665655  0.81256106  0.71049939
   0.26399974  0.90879791  0.76494604
   0.18446329  0.00924779  0.83637503
   0.17946663  0.00191176  0.99762101
   0.08920937  0.06329125  0.06908305
   0.98842603  0.16420216  0.13565711
   0.89272786  0.21995611  0.23169381
   0.82252701  0.30747446  0.32995814
   0.74164098  0.40521270  0.42314137
   0.66616566  0.52173826  0.48097537
   0.57356429  0.53967809  0.57640983
   0.51031845  0.63842284  0.66084399
   0.42749054  0.74155188  0.74912600
   0.33321163  0.82416275  0.86132539
   0.26023134  0.90648625  0.92451567
   0.24385346  0.90114382  0.07249532
   0.20425304  0.98619928  0.16139381
   0.10128325  0.07161391  0.23549242
   0.99691249  0.15262488  0.32073011
   0.93391412  0.22862692  0.39422996
   0.84384814  0.33833011  0.46787499
   0.75367109  0.42004498  0.57356140
   0.66236318  0.51155567  0.64855461
   0.56730861  0.56719654  0.75799107
   0.45138522  0.63507545  0.86382463
   0.40287140  0.73533107  0.93634297
   0.29502436  0.79360088  0.01309170
   0.30710341  0.83641964  0.16491966
   0.23502946  0.89577770  0.24776130
   0.17906741  0.00145147  0.33291510
   0.08897505  0.08041710  0.42964052
   0.99774280  0.16612040  0.49857759
   0.93664591  0.24550163  0.58838504
   0.83309145  0.36903573  0.64892798
   0.73680421  0.43787693  0.73990704
   0.65332923  0.48455203  0.83901382
   0.59072540  0.59419804  0.94240550
   0.50705643  0.65946148  0.03104493
   0.38635993  0.75605646  0.09002116
   0.42354438  0.74287823  0.25538810
   0.35283544  0.85227688  0.33414014
   0.25269172  0.91460891  0.41855583
   0.18919341  0.98118024  0.52328330
   0.08871869  0.06893306  0.58358820
   0.01944648  0.17224231  0.66972592
   0.90023831  0.24034091  0.74654916
   0.84276809  0.31948815  0.84090025
   0.76945152  0.41374654  0.91380207
   0.68169732  0.49868069  0.01243175
   0.60325236  0.57339340  0.06675542
   0.50237368  0.67741349  0.18627558
   0.48409956  0.64134569  0.33353271
   0.41187294  0.74939298  0.40834033
   0.35875082  0.82813137  0.50448748
   0.24711456  0.88061205  0.59897923
   0.16738963  0.97837723  0.66648627
   0.10506465  0.07584316  0.73593207
   0.96826691  0.14973105  0.83914008
   0.88603995  0.22681646  0.91887606
   0.82412677  0.31744406  0.99189736
   0.76059937  0.42208296  0.06389641
   0.69549164  0.52578766  0.15738859
   0.59441326  0.58744218  0.22896070
   0.18081803  0.14784113  0.82714753
   0.09596824  0.25231784  0.89779430
   0.97446659  0.32078114  0.97556468
   0.90348733  0.40044647  0.07607018
   0.85214368  0.52081470  0.16342047
   0.76453699  0.61321136  0.24271830
   0.67656684  0.67702530  0.34725279
   0.58091281  0.74497630  0.38930609
   0.50678569  0.87209855  0.48111158
   0.41970014  0.90583406  0.61470728
   0.33518521  0.99145471  0.66678893
   0.25959629  0.09276403  0.71907135
   0.27284056  0.09728509  0.89253347
   0.20445130  0.15211402  0.00337733
   0.08536901  0.25619973  0.06561637
   0.98387445  0.31195540  0.15120107
   0.90729905  0.39361052  0.23231205
   0.83272148  0.49791915  0.32171247
   0.76087964  0.60034672  0.40429649
   0.62716457  0.65448162  0.51003688
   0.56038805  0.75747618  0.60298347
   0.51976254  0.85761589  0.67269297
   0.40376789  0.92476315  0.77793667
   0.36251372  0.00204091  0.82982143
   0.32712714  0.00197945  0.00384238
   0.27262537  0.09771891  0.07272587
   0.18285143  0.16758642  0.15439766
   0.05567489  0.24659780  0.22077401
   0.97560253  0.33039095  0.29461995
   0.90149322  0.40838583  0.40725291
   0.83699862  0.50549074  0.49295047
   0.74476622  0.60824003  0.58216550
   0.65332867  0.66876068  0.65263020
   0.56636772  0.74188314  0.75809238
   0.49350360  0.83307773  0.86159956
   0.40270334  0.90423164  0.95055783
   0.43128341  0.90969194  0.07362417
   0.33738255  0.00261602  0.15995146
   0.26467647  0.08984052  0.23575066
   0.14948979  0.16152925  0.32391738
   0.05060638  0.25182787  0.41141949
   0.02515952  0.33470501  0.49858668
   0.94290470  0.42159719  0.58184418
   0.85312415  0.48969172  0.65086504
   0.76522109  0.56751886  0.71912984
   0.69126367  0.63824503  0.80336503
   0.57861232  0.70959540  0.89588328
   0.51850259  0.81038535  0.00828883
   0.48329310  0.83087412  0.18306887
   0.40038373  0.91041114  0.24378789
   0.31985777  0.00265291  0.32982452
   0.24978149  0.09685472  0.43862311
   0.15646014  0.17608696  0.51809159
   0.06999485  0.26437492  0.59343251
   0.97909025  0.34378537  0.66827752
   0.92510638  0.41289425  0.78352442
   0.81716828  0.51891525  0.81606219
   0.74372396  0.57800273  0.92883756
   0.67491562  0.69200987  0.02386234
   0.58296780  0.76082945  0.09159429
   0.58482180  0.74834073  0.26825536
   0.48680358  0.84071977  0.33845601
   0.39480528  0.94777682  0.40808507
   0.34159062  0.99349744  0.52460525
   0.24554406  0.08779251  0.57470501
   0.17094195  0.17750657  0.67526657
   0.08224213  0.25058413  0.75499685
   0.97031339  0.31285979  0.83681654
   0.88127737  0.41382958  0.93182473
   0.82576927  0.51638962  0.99525368
   0.76798870  0.59914411  0.10972797
   0.69065874  0.68320560  0.17016956
   0.24111134  0.26719055  0.77310245
   0.17415091  0.34299331  0.84229212
   0.08641673  0.41517278  0.90242128
   0.00136176  0.51287128  0.01587342
   0.92433782  0.61585272  0.07319402
   0.83727434  0.70308876  0.14688578
   0.75500078  0.76133521  0.26425216
   0.66597896  0.84111582  0.31761404
   0.58622806  0.95273520  0.41034757
   0.47931528  0.02666221  0.50234101
   0.40549748  0.09383253  0.58438218
   0.34262348  0.17837970  0.66856505
   0.33884389  0.18450574  0.83415857
   0.26470859  0.26360310  0.92218415
   0.15744979  0.32032859  0.99654155
   0.05001543  0.40930024  0.07318417
   0.98494902  0.52184512  0.16932954
   0.91370383  0.61183993  0.25962004
   0.83346560  0.68101473  0.34296457
   0.76098310  0.77751321  0.43408369
   0.65286290  0.85694646  0.50515990
   0.59870814  0.93998756  0.59654894
   0.47685897  0.00473722  0.67734907
   0.41920477  0.08199516  0.75165443
   0.41227038  0.07859549  0.93683849
   0.34709462  0.19404574  0.00926999
   0.25793787  0.27719029  0.09631992
   0.12458360  0.32954654  0.15971354
   0.04020893  0.42093352  0.23937246
   0.96421614  0.48102417  0.32555312
   0.87634522  0.60104490  0.40448107
   0.82027831  0.70178180  0.52420656
   0.73056867  0.77411772  0.57268940
   0.66501785  0.85042820  0.69387781
   0.55152295  0.91462759  0.78037498
   0.49760677  0.98988501  0.85335058
   0.51499213  0.01484943  0.01153001
   0.40190090  0.09410124  0.10381015
   0.34293362  0.17054708  0.16726276
   0.23293404  0.26916126  0.24093164
   0.12782583  0.34745371  0.32450821
   0.04955040  0.41535700  0.39726992
   0.98812103  0.51763019  0.48632407
   0.94429857  0.59660707  0.56688868
   0.82716377  0.67072672  0.65355428
   0.76332882  0.75556792  0.73291503
   0.64769975  0.83369053  0.82724013
   0.57413523  0.90176210  0.93516818
   0.58144013  0.93178492  0.11435023
   0.49576764  0.00918459  0.18930779
   0.41500418  0.09850615  0.22860830
   0.32455952  0.19393845  0.32100326
   0.21960585  0.25055024  0.41079698
   0.14985642  0.35387117  0.47800471
   0.08147587  0.41846571  0.58358235
   0.99428381  0.48382869  0.69274368
   0.90891160  0.60905127  0.74776133
   0.83675304  0.65111446  0.85002751
   0.72570723  0.75189447  0.91415806
   0.66427695  0.83454963  0.00799786
   0.66781708  0.81102671  0.16947014
   0.55876452  0.93381520  0.26015127
   0.49040344  0.04047687  0.31959513
   0.40266713  0.11263270  0.39779382
   0.33921505  0.20344353  0.51304740
   0.24757967  0.27453660  0.60104226
   0.14728494  0.36301090  0.68461660
   0.02581467  0.40677326  0.78321212
   0.97974306  0.52004079  0.86716372
   0.91487555  0.59236158  0.90915319
   0.83532879  0.68657009  0.97785635
   0.76033440  0.76344870  0.08675510
   0.35517462  0.32696837  0.67710912
   0.26750122  0.39246539  0.75667527
   0.15565373  0.49052437  0.80463132
   0.09533168  0.56459151  0.91613524
   0.01021497  0.66710265  0.95259384
   0.92970363  0.73333980  0.07154476
   0.86535286  0.83089457  0.14117535
   0.75409017  0.92640517  0.25129366
   0.65654906  0.02038947  0.35181009
   0.57584725  0.10167930  0.42685252
   0.46772727  0.18360768  0.46412633
   0.41501386  0.23682664  0.58756328
   0.43574685  0.24636635  0.74787305
   0.38210634  0.33051801  0.84214317
   0.25229912  0.41166875  0.92166179
   0.16055029  0.49733787  0.01653961
   0.06602773  0.62069746  0.09640995
   0.97912035  0.69028545  0.15851918
   0.90253226  0.75815531  0.25105048
   0.84447627  0.83675545  0.33117469
   0.74454515  0.92102535  0.42378707
   0.65082067  0.99656329  0.51174808
   0.57047541  0.07200576  0.56858341
   0.50561778  0.15717085  0.67076464
   0.51637260  0.17584280  0.81571739
   0.45069970  0.24975069  0.91063721
   0.34172267  0.36998522  0.99962187
   0.24136206  0.41570618  0.12260507
   0.14905491  0.50546115  0.17586048
   0.05183276  0.57811874  0.24286504
   0.99088578  0.65623899  0.31782027
   0.92616776  0.75556451  0.40068100
   0.84740578  0.82900409  0.50017987
   0.73696812  0.91088275  0.56051727
   0.66930018  0.00004823  0.67483820
   0.56983534  0.06835438  0.73852522
   0.57326939  0.07657981  0.93543397
   0.49020253  0.15394340  0.00278465
   0.42935656  0.26441258  0.08309025
   0.33238779  0.33323253  0.19084196
   0.22893584  0.43299830  0.25404500
   0.15708613  0.50525531  0.34360037
   0.08031806  0.57661262  0.39014939
   0.01032608  0.67364860  0.51278210
   0.94941270  0.74969421  0.59075837
   0.83467198  0.83969224  0.68967308
   0.75757287  0.94073809  0.73973357
   0.66664871  0.00359939  0.83907693
   0.64815320  0.99949681  0.00595217
   0.58482984  0.08806848  0.12114900
   0.49955994  0.18841699  0.17900898
   0.42966997  0.25860034  0.27259930
   0.30566122  0.34273346  0.31797610
   0.26596618  0.43033576  0.39262777
   0.15245940  0.50599684  0.48541812
   0.07346161  0.58003778  0.58070364
   0.01763308  0.67420195  0.66614600
   0.90873993  0.73632268  0.73266460
   0.80502202  0.82274840  0.80168293
   0.73993127  0.91147695  0.90046136
   0.71821927  0.90048756  0.09257848
   0.65621052  0.02759680  0.20079357
   0.57711406  0.11976541  0.25688461
   0.51758770  0.18730409  0.34698646
   0.40209476  0.28951949  0.37512069
   0.33965307  0.34752228  0.47970993
   0.23455942  0.40991838  0.58054791
   0.14837091  0.46536618  0.69796568
   0.08940830  0.58987909  0.74847937
   0.99163861  0.68480358  0.83445467
   0.93034348  0.77619827  0.92816264
   0.83456671  0.85282352  0.99552305
   0.42117184  0.41204131  0.57555332
   0.34303569  0.48387173  0.67340012
   0.26031242  0.56854421  0.71165991
   0.18464331  0.65694150  0.83378087
   0.10178830  0.75600533  0.92364721
   0.00680660  0.82504276  0.01141557
   0.90325380  0.93600010  0.05837926
   0.84194760  0.01467306  0.16046454
   0.75780117  0.08550025  0.24783176
   0.67914291  0.17048410  0.36519940
   0.60256630  0.24880281  0.43782029
   0.52352349  0.34679050  0.49762304
   0.47904005  0.31878074  0.64621557
   0.44477024  0.41989215  0.75162132
   0.34219137  0.49894542  0.83205560
   0.23555463  0.55085104  0.90558746
   0.15896362  0.63175423  0.99082608
   0.10281565  0.75305730  0.06734596
   0.00780313  0.84178472  0.16236290
   0.89903095  0.91381606  0.24838023
   0.83718314  0.02379537  0.32969449
   0.74808930  0.07316827  0.44094362
   0.66916981  0.16914468  0.51890416
   0.55755657  0.24516925  0.57825175
   0.57501605  0.27210164  0.72468358
   0.51327079  0.33778422  0.84250813
   0.44495955  0.42822602  0.92996292
   0.33254408  0.49133330  0.03699184
   0.23079314  0.57101692  0.10981534
   0.16457558  0.65367691  0.18265069
   0.09891610  0.74816458  0.25693995
   0.99397109  0.83786233  0.34374916
   0.93551679  0.90725693  0.42012202
   0.85565215  0.97673986  0.50742060
   0.73711135  0.05846859  0.56438177
   0.66196508  0.15814295  0.62639335
   0.62293998  0.17421402  0.84586731
   0.58474847  0.27240484  0.96801920
   0.51504702  0.34078101  0.99986803
   0.42124097  0.40779564  0.12360425
   0.32657934  0.49817719  0.18729344
   0.25643246  0.57831325  0.27426611
   0.18011238  0.65729220  0.36766170
   0.08118482  0.75124393  0.40753406
   0.99126945  0.83193759  0.48392431
   0.92228949  0.91190040  0.59794406
   0.84738233  0.00604664  0.64920564
   0.72099972  0.10989867  0.74880762
   0.72191756  0.08801306  0.90787672
   0.65068830  0.13607921  0.01200945
   0.56561098  0.25755155  0.08700299
   0.53383119  0.34819870  0.18422188
   0.41104782  0.42433913  0.23387924
   0.33342562  0.49648406  0.33161139
   0.27986119  0.53827459  0.43761427
   0.17315612  0.63654288  0.48851046
   0.09949646  0.74914501  0.56521419
   0.02347916  0.83713926  0.66641243
   0.92230371  0.92668023  0.72883854
   0.83797795  0.01813720  0.81937426
   0.82782086  0.98840239  0.97999033
   0.71888212  0.04073009  0.08965189
   0.67609693  0.17333770  0.16181387
   0.60814075  0.25001149  0.26122810
   0.50096582  0.36537045  0.33559436
   0.41220473  0.41470929  0.40938664
   0.32126832  0.50160953  0.51746188
   0.25008660  0.55624554  0.59942343
   0.16414863  0.65210799  0.66757393
   0.11386309  0.73794746  0.75791993
   0.99332830  0.82546024  0.81744626
   0.91668656  0.89383381  0.89263394
