 running on   64 total cores
 distrk:  each k-point on   32 cores,    2 groups
 distr:  one band on   32 cores,    1 groups
 vasp.6.2.1 16May21 (build Nov 23 2021 15:40:41) complex                        
  
 POSCAR found type information on POSCAR Li
 POSCAR found :  1 types and     504 ions
 scaLAPACK will be used
 -----------------------------------------------------------------------------
|                                                                             |
|           W    W    AA    RRRRR   N    N  II  N    N   GGGG   !!!           |
|           W    W   A  A   R    R  NN   N  II  NN   N  G    G  !!!           |
|           W    W  A    A  R    R  N N  N  II  N N  N  G       !!!           |
|           W WW W  AAAAAA  RRRRR   N  N N  II  N  N N  G  GGG   !            |
|           WW  WW  A    A  R   R   N   NN  II  N   NN  G    G                |
|           W    W  A    A  R    R  N    N  II  N    N   GGGG   !!!           |
|                                                                             |
|     For optimal performance we recommend to set                             |
|       NCORE = 2 up to number-of-cores-per-socket                            |
|     NCORE specifies how many cores store one orbital (NPAR=cpu/NCORE).      |
|     This setting can greatly improve the performance of VASP for DFT.       |
|     The default, NCORE=1 might be grossly inefficient on modern             |
|     multi-core architectures or massively parallel machines. Do your        |
|     own testing! More info at https://www.vasp.at/wiki/index.php/NCORE      |
|     Unfortunately you need to use the default for GW and RPA                |
|     calculations (for HF NCORE is supported but not extensively tested      |
|     yet).                                                                   |
|                                                                             |
 -----------------------------------------------------------------------------

 -----------------------------------------------------------------------------
|                                                                             |
|               ----> ADVICE to this user running VASP <----                  |
|                                                                             |
|     You have a (more or less) 'large supercell' and for larger cells it     |
|     might be more efficient to use real-space projection operators.         |
|     Therefore, try LREAL= Auto in the INCAR file.                           |
|     Mind: If you want to do very accurate calculations, keep the            |
|     reciprocal projection scheme (i.e. LREAL=.FALSE.).                      |
|                                                                             |
 -----------------------------------------------------------------------------

 LDA part: xc-table for Pade appr. of Perdew
 POSCAR found type information on POSCAR Li
 POSCAR found :  1 types and     504 ions
 POSCAR, INCAR and KPOINTS ok, starting setup
 FFT: planning ...
 WAVECAR not read
 entering main loop
       N       E                     dE             d eps       ncg     rms          rms(c)
DAV:   1    -0.269906028375E+03   -0.26991E+03   -0.12314E+05  4040   0.658E+02
DAV:   2    -0.885123064292E+03   -0.61522E+03   -0.56229E+03  4644   0.682E+01
DAV:   3    -0.929298359912E+03   -0.44175E+02   -0.40276E+02  5200   0.144E+01
DAV:   4    -0.930822490052E+03   -0.15241E+01   -0.14995E+01  4728   0.291E+00
DAV:   5    -0.930858279753E+03   -0.35790E-01   -0.35717E-01  4880   0.472E-01    0.105E+01
DAV:   6    -0.929539416281E+03    0.13189E+01   -0.15026E+01  4776   0.608E+00    0.953E+00
DAV:   7    -0.919938622953E+03    0.96008E+01   -0.13649E+01  4840   0.572E+00    0.655E+00
DAV:   8    -0.913974308332E+03    0.59643E+01   -0.71827E+00  4712   0.322E+00    0.314E+00
DAV:   9    -0.913535500996E+03    0.43881E+00   -0.39130E+00  4536   0.170E+00    0.201E+00
DAV:  10    -0.913336718053E+03    0.19878E+00   -0.13864E+00  4560   0.120E+00    0.143E+00
DAV:  11    -0.913164972536E+03    0.17175E+00   -0.44649E-01  4536   0.639E-01    0.745E-01
DAV:  12    -0.913190736991E+03   -0.25764E-01   -0.12014E-01  4824   0.403E-01    0.685E-01
DAV:  13    -0.913140393192E+03    0.50344E-01   -0.74275E-02  4752   0.315E-01    0.324E-01
DAV:  14    -0.913139195034E+03    0.11982E-02   -0.23068E-02  4616   0.155E-01    0.214E-01
DAV:  15    -0.913137949010E+03    0.12460E-02   -0.10689E-02  4632   0.119E-01    0.154E-01
DAV:  16    -0.913135545868E+03    0.24031E-02   -0.38463E-03  4592   0.691E-02    0.654E-02
DAV:  17    -0.913135584564E+03   -0.38697E-04   -0.11068E-03  4616   0.346E-02    0.461E-02
DAV:  18    -0.913135382939E+03    0.20163E-03   -0.54282E-04  4552   0.263E-02    0.253E-02
DAV:  19    -0.913135324489E+03    0.58450E-04   -0.14923E-04  4552   0.133E-02    0.140E-02
DAV:  20    -0.913135303817E+03    0.20672E-04   -0.59283E-05  4336   0.700E-03    0.623E-03
DAV:  21    -0.913135301300E+03    0.25174E-05   -0.10435E-05  2504   0.384E-03
   1 F= -.91313530E+03 E0= -.91307616E+03  d E =-.118282E+00
