Li                                      
           1
   -10.636430   18.422837    0.000000
   -18.233880  -10.527336    0.000000
    -0.000000    0.000000   22.309700
   Li
   504
Direct configuration=     1
   0.99582389  0.00166290  0.99666191
   0.94167066  0.04640366  0.67214787
   0.87106606  0.07178249  0.32859632
   0.79723554  0.12321784  0.99272450
   0.71733479  0.16609710  0.67734447
   0.63461886  0.20797716  0.32755204
   0.57302165  0.25134357  0.99202837
   0.50211756  0.28553121  0.66365818
   0.42901925  0.32301380  0.34370440
   0.36366174  0.36724538  0.97720628
   0.29373584  0.40447562  0.67256122
   0.20749873  0.45651006  0.32839632
   0.07930268  0.03594160  0.67872293
   0.01100904  0.08488415  0.34482084
   0.92060987  0.13167458  0.00727477
   0.85900998  0.16882870  0.68746517
   0.77748672  0.20518973  0.34057311
   0.71838482  0.24257402  0.98813156
   0.64336469  0.29502269  0.64111864
   0.57217790  0.33263642  0.34763031
   0.49681943  0.36347740  0.00540201
   0.43745762  0.41519497  0.66595152
   0.36761281  0.45477461  0.36317573
   0.29720248  0.48915565  0.00636194
   0.13541614  0.07750497  0.33646580
   0.07943365  0.12284132  0.00388639
   0.99409099  0.15533501  0.68581750
   0.92249582  0.21023685  0.32903563
   0.86288120  0.25800498  0.02876940
   0.79118952  0.29149200  0.67196891
   0.71407036  0.32500900  0.32609158
   0.64666353  0.37686044  0.98881502
   0.57657393  0.41831659  0.64034076
   0.50405442  0.46768657  0.34160363
   0.43594660  0.49945836  0.97733006
   0.36692312  0.53625932  0.65484652
   0.22128597  0.12212844  0.97507356
   0.14480853  0.17242579  0.68217157
   0.06389154  0.20831603  0.30175897
   0.00101017  0.24916121  0.00805792
   0.93375346  0.29862137  0.66769786
   0.86199302  0.32971765  0.31871017
   0.79262494  0.36442991  0.01960829
   0.71509972  0.41274971  0.66207509
   0.64383279  0.44975928  0.32425847
   0.57464404  0.50245329  0.00904895
   0.50899309  0.54047633  0.66221683
   0.44389303  0.58076463  0.32896321
   0.28354365  0.16628739  0.69051434
   0.21598183  0.21984693  0.33215190
   0.14594322  0.25148325  0.01788849
   0.07777405  0.28627339  0.66872220
   0.99579833  0.33233285  0.34046427
   0.92371848  0.36687376  0.02090120
   0.86235689  0.41995418  0.67037014
   0.78296779  0.45588932  0.31587008
   0.71851889  0.50140733  0.03714914
   0.64790748  0.54625706  0.65013182
   0.58014057  0.58968085  0.32519218
   0.51583577  0.62536495  0.00361260
   0.35896138  0.20689687  0.34016914
   0.28615610  0.26107310  0.97373148
   0.21807365  0.29399117  0.66616571
   0.14668322  0.33895657  0.32050206
   0.07275377  0.37410033  0.99866421
   0.00353181  0.40753350  0.67324573
   0.93514024  0.46276147  0.32251104
   0.86580709  0.49916671  0.02347817
   0.78911865  0.53767502  0.64068981
   0.71488161  0.58287447  0.33303541
   0.65210646  0.62474837  0.01791452
   0.57297305  0.66885723  0.64414469
   0.43185496  0.24363591  0.97963488
   0.35870484  0.28756116  0.66670119
   0.28568421  0.32295690  0.34657746
   0.20862578  0.36848923  0.00170485
   0.14063763  0.40508397  0.65563713
   0.07727012  0.45977008  0.32057728
   0.00443760  0.49896517  0.01338002
   0.92578240  0.53589559  0.63806704
   0.86072908  0.57963854  0.32762228
   0.78677146  0.62704552  0.02782358
   0.72112772  0.66519887  0.62449615
   0.64492132  0.71495717  0.35048916
   0.13673870  0.50164437  0.00353653
   0.06645622  0.53776186  0.65990535
   0.00877922  0.58351432  0.30784946
   0.93479518  0.62102553  0.02274003
   0.86094397  0.66680610  0.65335750
   0.78028677  0.70921099  0.32042580
   0.70727082  0.74843684  0.01862098
   0.21363887  0.53862557  0.68879758
   0.14692395  0.57974457  0.30770577
   0.06982798  0.61656363  0.02597218
   0.00427054  0.66651619  0.64733680
   0.92904686  0.70336140  0.32525658
   0.86012571  0.74028604  0.02287538
   0.78333735  0.78156909  0.65747826
   0.28847741  0.57940149  0.32052248
   0.21532152  0.62468298  0.01779511
   0.15432961  0.66498697  0.68824188
   0.06488519  0.68918607  0.32181721
   0.99970285  0.74633124  0.01821218
   0.93752669  0.77928676  0.66177805
   0.85608617  0.82677795  0.31697020
   0.36129220  0.61613948  0.98861797
   0.28839028  0.66565363  0.68878511
   0.22115619  0.70950749  0.29452731
   0.14161801  0.76018560  0.01213587
   0.06920456  0.79403043  0.67655011
   0.00293514  0.82630324  0.33693748
   0.92912323  0.87467004  0.00058404
   0.43588183  0.66732232  0.66073486
   0.35946030  0.70538000  0.31598681
   0.28635577  0.74826472  0.00070243
   0.21196857  0.79092232  0.68019142
   0.13761086  0.82576455  0.33618684
   0.07307563  0.87223366  0.99928817
   0.00271224  0.91486072  0.67806063
   0.92926117  0.95636631  0.32800267
   0.84426905  0.99601400  0.99676507
   0.79233547  0.03280298  0.68206873
   0.72318695  0.07491011  0.34466271
   0.64350118  0.12161909  0.97446702
   0.58015395  0.16933079  0.66548182
   0.51280747  0.21278072  0.32512093
   0.07088912  0.95850087  0.32536475
   0.14639606  0.99344043  0.99766427
   0.22255749  0.03685331  0.67205646
   0.28058263  0.08933269  0.33955114
   0.35332547  0.11307194  0.98464238
   0.43846296  0.17177589  0.65949088
   0.85304602  0.91153805  0.68257006
   0.78914247  0.95253893  0.32650266
   0.71568255  0.99469767  0.97474167
   0.64427201  0.03009790  0.67407652
   0.57710002  0.07418477  0.32209423
   0.49437757  0.13347789  0.97027953
   0.15180099  0.92038927  0.67641467
   0.21324098  0.96354485  0.34795869
   0.29450057  0.99673595  0.01091900
   0.35691655  0.03780677  0.68319984
   0.42633091  0.07478970  0.33932437
   0.78436568  0.88071041  0.00182047
   0.70107718  0.90917291  0.68376947
   0.64878542  0.96045885  0.29985071
   0.57708529  0.99743484  0.98163006
   0.50187828  0.04835026  0.65861522
   0.22546245  0.88247576  0.01166531
   0.29605318  0.92136974  0.66811881
   0.35973628  0.95373325  0.35499030
   0.42193208  0.99949959  0.97736876
   0.71847508  0.82884961  0.29863798
   0.63645174  0.87190582  0.99277646
   0.57626476  0.92235638  0.67001715
   0.50318694  0.96555375  0.32211959
   0.30273933  0.82893470  0.34784057
   0.37177311  0.87046789  0.01096683
   0.42737787  0.91232307  0.64929569
   0.65161185  0.78975503  0.66913128
   0.57698862  0.82732029  0.31819304
   0.50106657  0.87653546  0.00581391
   0.35882680  0.78805404  0.66127617
   0.43091433  0.82938110  0.33712309
   0.56840772  0.74796847  0.03658813
   0.49642478  0.78768090  0.68643935
   0.43178883  0.73835203  0.99460938
   0.50020051  0.71079949  0.30732400
   0.99041201  0.97255104  0.80505102
   0.92257998  0.05828893  0.44762131
   0.86555933  0.09511548  0.10705744
   0.78260720  0.11870799  0.77898484
   0.72712578  0.14777185  0.43847887
   0.63316325  0.20908264  0.11298064
   0.59664772  0.24288596  0.76895138
   0.48531428  0.31698328  0.44748570
   0.43750211  0.34630564  0.10079608
   0.34815073  0.36972302  0.79804005
   0.28882569  0.42348338  0.44914254
   0.21680193  0.45767515  0.10968675
   0.05417172  0.04214062  0.46648143
   0.02624535  0.09060836  0.08620547
   0.91868185  0.15392777  0.81584201
   0.86099149  0.16471808  0.44300053
   0.77579935  0.21100137  0.10374624
   0.72566504  0.24628234  0.76614975
   0.64337449  0.29156198  0.44943470
   0.55356515  0.32296084  0.13288150
   0.51451296  0.35927221  0.75850342
   0.42932347  0.42006016  0.44857393
   0.34734918  0.46349690  0.10326485
   0.27677178  0.49635386  0.77271682
   0.14721677  0.07762396  0.11598401
   0.08407691  0.13408482  0.78697887
   0.01182195  0.16418280  0.41585106
   0.91569463  0.23550140  0.12362984
   0.86008421  0.25007500  0.78162677
   0.78781025  0.29166741  0.45713907
   0.70510877  0.33697850  0.09744409
   0.66257760  0.37884743  0.75688562
   0.58555916  0.42662794  0.44153173
   0.49812770  0.45671907  0.11762195
   0.41619220  0.48970485  0.77957302
   0.36137026  0.56061636  0.46064686
   0.22630645  0.13746245  0.77060421
   0.13418613  0.18660139  0.43732878
   0.07008479  0.20935067  0.12062600
   0.00478433  0.25902884  0.79667830
   0.93643352  0.30406263  0.45260783
   0.84462829  0.33442632  0.12728342
   0.78742407  0.38302926  0.76919035
   0.71095945  0.42734129  0.43704078
   0.64277979  0.45680613  0.11542701
   0.56526911  0.49713113  0.77605278
   0.50482263  0.55213188  0.44191145
   0.45250954  0.59676899  0.08613185
   0.29639277  0.19394492  0.42259783
   0.22026590  0.20397247  0.09368182
   0.13496738  0.26074879  0.78859498
   0.07480424  0.31890836  0.42206662
   0.00284191  0.32593116  0.11351601
   0.91134074  0.36548758  0.78167175
   0.86876002  0.41015885  0.42597461
   0.78245775  0.46174732  0.12977183
   0.72750412  0.50865558  0.76215408
   0.63483867  0.56631557  0.42542529
   0.56301761  0.59044267  0.11637692
   0.49451778  0.63002814  0.77169046
   0.34058942  0.21949768  0.09119577
   0.28115720  0.26159794  0.78201309
   0.19983501  0.30024948  0.42417676
   0.14899405  0.34134683  0.11359441
   0.06271042  0.39625058  0.77813549
   0.00159282  0.43905797  0.43583025
   0.92714573  0.45826492  0.11858578
   0.86926933  0.50255239  0.76500032
   0.79041959  0.55550663  0.43552140
   0.72170005  0.57362146  0.13867844
   0.62893904  0.61613201  0.75809544
   0.55334161  0.68392866  0.44268933
   0.44663022  0.25233523  0.78158913
   0.34074917  0.31196607  0.45300919
   0.28837229  0.33522287  0.10540737
   0.20084983  0.37230795  0.75844706
   0.15445253  0.42343577  0.43763477
   0.06177353  0.44754084  0.10870311
   0.02171705  0.49475711  0.77068565
   0.92189079  0.56241438  0.43461663
   0.86613754  0.59602215  0.13385715
   0.75584468  0.62805118  0.77681164
   0.70505527  0.67640609  0.45193600
   0.65526223  0.71072759  0.14831465
   0.13663088  0.50576813  0.78889997
   0.09605862  0.54986797  0.44262679
   0.00219431  0.57561297  0.11941987
   0.91379205  0.61602738  0.77726424
   0.85912823  0.68306829  0.41980313
   0.81285956  0.71735352  0.15874869
   0.68979714  0.73139045  0.77173684
   0.20477699  0.55899443  0.44178014
   0.15378482  0.58677024  0.11574347
   0.08935961  0.61435415  0.77795954
   0.98691159  0.65518330  0.43630642
   0.94186212  0.71564787  0.12901375
   0.84663828  0.73116521  0.79558914
   0.78225767  0.78117424  0.45752756
   0.29534691  0.57931773  0.10421522
   0.21491975  0.63122347  0.80632184
   0.15225689  0.67128224  0.42546117
   0.08137221  0.69729353  0.13019332
   0.98255818  0.74404072  0.77506343
   0.92329223  0.80434724  0.43419683
   0.84000221  0.85742658  0.12033729
   0.34572503  0.63955801  0.78343252
   0.26850648  0.66632803  0.43716710
   0.23409249  0.70859199  0.11890523
   0.11747039  0.75895848  0.79151392
   0.06084286  0.77862292  0.44343802
   0.01625774  0.83717290  0.10459097
   0.91620480  0.86313841  0.79415713
   0.41791614  0.67381980  0.41254387
   0.37101335  0.69788711  0.11886877
   0.27171992  0.74887857  0.78682042
   0.19249240  0.80592479  0.43985695
   0.14214810  0.83206431  0.08385346
   0.07185473  0.87145435  0.78254222
   0.00118282  0.91246421  0.45412178
   0.94248045  0.95284846  0.12233090
   0.86523659  0.00360838  0.79787073
   0.77696031  0.02012445  0.44888205
   0.73062529  0.09197288  0.08601107
   0.63374107  0.09584235  0.77241874
   0.57036447  0.17725076  0.42787259
   0.46975038  0.19956805  0.09742629
   0.09257333  0.97664844  0.12120130
   0.14300600  0.00286082  0.80213507
   0.22259290  0.05870031  0.43647127
   0.29657574  0.08419149  0.10894217
   0.37312916  0.11163225  0.77159850
   0.44101481  0.18264204  0.44412003
   0.85853807  0.90926841  0.42823955
   0.80555091  0.97273664  0.09040626
   0.71295210  0.98575686  0.80553169
   0.63576248  0.04152661  0.45140228
   0.57053525  0.08682382  0.10269006
   0.50440484  0.11730512  0.76627981
   0.13432802  0.93503785  0.44138402
   0.20970396  0.97463308  0.12852375
   0.28454113  0.00085799  0.77715777
   0.36151959  0.06162972  0.47005085
   0.42357625  0.08143189  0.10214491
   0.77726277  0.86669337  0.77842293
   0.69684638  0.91213681  0.42277147
   0.65917442  0.97186326  0.08890502
   0.57076906  0.99209968  0.76789793
   0.50200682  0.05505015  0.44564370
   0.21910107  0.88205319  0.77408166
   0.29377767  0.92812109  0.45895869
   0.35323106  0.96634993  0.11902695
   0.41197963  0.99459854  0.78091778
   0.71913369  0.83616008  0.09933714
   0.63875920  0.85076576  0.77150474
   0.56743267  0.93356782  0.43094018
   0.49319687  0.95942097  0.09832064
   0.29345174  0.84105630  0.12294609
   0.36769932  0.87822729  0.77783521
   0.44458676  0.92274055  0.47444440
   0.63325027  0.79776267  0.42038852
   0.57565042  0.83613245  0.12978019
   0.47737224  0.85738136  0.77439070
   0.35245095  0.79369370  0.45989216
   0.43373820  0.83927322  0.10252086
   0.56334999  0.73899989  0.76099468
   0.51117070  0.78751477  0.43701523
   0.41623967  0.75181223  0.79121696
   0.50656010  0.70781712  0.12042565
   0.01619217  0.01191801  0.21784427
   0.91895530  0.05264079  0.90330927
   0.82157135  0.08139734  0.57606747
   0.79284138  0.11831383  0.21052321
   0.70552753  0.16338368  0.86980808
   0.66059988  0.20986634  0.54587624
   0.55195831  0.23165995  0.23319704
   0.52485926  0.27507188  0.86631655
   0.41201223  0.34407665  0.56659653
   0.35639714  0.37190596  0.23460637
   0.27583066  0.41705233  0.87631249
   0.21497731  0.46728855  0.55417438
   0.06213900  0.03370170  0.90823487
   0.97723848  0.06608084  0.55230643
   0.93357053  0.12580840  0.21049666
   0.85023879  0.16393700  0.88760866
   0.79772566  0.20831349  0.56470491
   0.70855767  0.25317272  0.21394152
   0.66079822  0.29844647  0.88814635
   0.57311736  0.34571581  0.53948618
   0.47979408  0.37236196  0.24724490
   0.43291702  0.40064983  0.87507820
   0.37716451  0.45025091  0.55347620
   0.28017331  0.49159040  0.22624302
   0.12687664  0.09473722  0.55642708
   0.07928148  0.12168197  0.21922729
   0.99723898  0.16584106  0.91438616
   0.94314845  0.20691961  0.54369404
   0.85546297  0.25575226  0.21759243
   0.79480369  0.28531365  0.88698617
   0.71378897  0.33077849  0.55023172
   0.61837254  0.36998796  0.22560156
   0.57442837  0.42496995  0.88900139
   0.50542781  0.46369569  0.54395825
   0.43092726  0.50120891  0.23302030
   0.35467982  0.54630817  0.89971316
   0.20897872  0.12609147  0.24213930
   0.14784162  0.16751539  0.85381827
   0.07163169  0.20213765  0.57241412
   0.00193149  0.24647806  0.23655403
   0.93428486  0.28282956  0.90178948
   0.87355770  0.33728268  0.57308307
   0.77528263  0.34571150  0.22824494
   0.72256433  0.41548545  0.89923261
   0.64979726  0.47089492  0.54095287
   0.55761708  0.50678861  0.21881214
   0.48997778  0.53214067  0.87393315
   0.42361652  0.58566149  0.54444094
   0.28679815  0.15527510  0.87332846
   0.21531021  0.22465139  0.55095725
   0.14513024  0.23898884  0.20083402
   0.07328094  0.29214298  0.91512553
   0.01092108  0.35580497  0.54948717
   0.93561769  0.35446260  0.21612921
   0.86000168  0.43237197  0.89529218
   0.79700547  0.47244452  0.55435387
   0.69389945  0.50781016  0.23962526
   0.63374405  0.53027499  0.88211003
   0.56791934  0.58846065  0.54436442
   0.50779833  0.61153667  0.20191466
   0.35743889  0.20351590  0.54990576
   0.28765556  0.24540633  0.23600701
   0.22961223  0.29320091  0.88562313
   0.15095627  0.33370856  0.54276579
   0.08065543  0.35131007  0.22211165
   0.99612852  0.40594267  0.89706555
   0.94994295  0.46679703  0.55099449
   0.85634870  0.50289718  0.21158757
   0.78424246  0.53077797  0.90779871
   0.69835917  0.59829680  0.53323736
   0.64917143  0.62574749  0.26555532
   0.56599284  0.65832766  0.89271501
   0.40130851  0.23985067  0.20754029
   0.37178106  0.27702086  0.87564725
   0.27232231  0.32890376  0.54799409
   0.21207708  0.37977602  0.22155550
   0.13504477  0.41292392  0.89553861
   0.08118270  0.47035790  0.55571562
   0.99987626  0.49233013  0.21262481
   0.93000072  0.53293301  0.92668147
   0.86073401  0.57066722  0.53207582
   0.79491477  0.61560963  0.22900109
   0.69808663  0.64483148  0.91395631
   0.63649426  0.70010783  0.55149009
   0.13455114  0.49193082  0.22178056
   0.06919331  0.53709744  0.88765430
   0.00643946  0.59884675  0.54953147
   0.93683830  0.63913222  0.21475638
   0.83917814  0.65547304  0.91468385
   0.77247830  0.71815523  0.53435628
   0.73045293  0.75333509  0.23360273
   0.19775026  0.53855855  0.90331095
   0.14536683  0.58911125  0.58238160
   0.06629291  0.63449465  0.20265816
   0.00032975  0.65747502  0.90179215
   0.91695306  0.71061670  0.55039741
   0.87134773  0.76852474  0.22733736
   0.75989474  0.77321341  0.90081757
   0.27719194  0.59069111  0.55898070
   0.22437394  0.60938734  0.21770019
   0.13377587  0.66488940  0.89632218
   0.06636026  0.71484547  0.54460360
   0.00494047  0.76036707  0.22440030
   0.91487658  0.77221687  0.89546404
   0.85934578  0.83286595  0.57504270
   0.37920951  0.61618713  0.21788409
   0.28729770  0.66108902  0.88931037
   0.22137200  0.70761372  0.56548963
   0.17501895  0.73884243  0.19931467
   0.05821688  0.79566880  0.89876878
   0.97950518  0.83185889  0.55193039
   0.93862530  0.88102481  0.24293931
   0.41823909  0.65300654  0.89433855
   0.35093932  0.71549975  0.55662080
   0.28982808  0.74393306  0.21696198
   0.22566840  0.78581177  0.90738582
   0.13086977  0.84345994  0.56066058
   0.07045305  0.88363517  0.20681349
   0.97630235  0.90756160  0.89297187
   0.90701752  0.96835205  0.54665152
   0.85254701  0.99031927  0.19969022
   0.77830589  0.03925383  0.88644899
   0.69633465  0.07223482  0.57250956
   0.63839207  0.12977333  0.21789386
   0.56805206  0.16495713  0.87398621
   0.51069159  0.23747763  0.56897707
   0.05933768  0.96530318  0.56209283
   0.13918613  0.00746404  0.24103006
   0.20503450  0.03769865  0.88390610
   0.28557903  0.11217773  0.56697680
   0.34890972  0.11486266  0.22533481
   0.43927039  0.15104860  0.86941361
   0.83664596  0.90839587  0.88608364
   0.77061432  0.94286108  0.56028095
   0.72622775  0.01121045  0.19854151
   0.64533503  0.03384730  0.88126703
   0.56727659  0.09941004  0.54587613
   0.49876712  0.11854903  0.21259004
   0.13072335  0.91885317  0.91048878
   0.19971455  0.96205307  0.54381919
   0.29180845  0.00015665  0.22775508
   0.33230138  0.02967423  0.88157290
   0.43428464  0.09600905  0.56723706
   0.77877088  0.89270894  0.21958648
   0.69623246  0.90371195  0.87216556
   0.63140772  0.96525672  0.57704263
   0.56721073  0.99907973  0.20223005
   0.49546865  0.03552231  0.85848590
   0.20437076  0.86766795  0.21860891
   0.27944179  0.91942013  0.89130173
   0.34376284  0.96757315  0.55403790
   0.43117112  0.99161290  0.24198737
   0.70265389  0.82648594  0.55416283
   0.65307256  0.89038193  0.19290965
   0.57753569  0.90961510  0.89680500
   0.49027414  0.97813399  0.56046163
   0.27104468  0.82914851  0.55793374
   0.34890382  0.87280739  0.23861308
   0.41376093  0.89897520  0.90946734
   0.62426015  0.77267192  0.88505244
   0.57294410  0.85120942  0.55747060
   0.49133083  0.87929026  0.24113215
   0.33681607  0.78103589  0.90392703
   0.43616083  0.83980527  0.56417763
   0.56652639  0.76218076  0.20328925
   0.48309881  0.79056409  0.90408118
   0.45055478  0.73172882  0.23696509
   0.51436589  0.71002489  0.54889534
