 432 432   0   0
  0.2159961E+02  0.2105280E-08  0.2105280E-08  0.2105280E-08  0.5000000E-15
  1.000000000000000E-004
  CAR 
 Li                                      
      3.27306749     -3.50746248  301      0.24081149      1.00000000
     -3.507  0.0000E+00  0.0000E+00
     -3.485  0.0000E+00  0.0000E+00
     -3.462  0.0000E+00  0.0000E+00
     -3.440  0.0000E+00  0.0000E+00
     -3.417  0.0000E+00  0.0000E+00
     -3.394  0.0000E+00  0.0000E+00
     -3.372  0.1965E-13  0.4441E-15
     -3.349  0.6751E-10  0.1526E-11
     -3.327  0.8375E-07  0.1894E-08
     -3.304  0.3428E-04  0.7766E-06
     -3.281  0.4670E-02  0.1063E-03
     -3.259  0.2143E+00  0.4950E-02
     -3.236  0.3366E+01  0.8102E-01
     -3.214  0.1840E+02  0.4969E+00
     -3.191  0.3556E+02  0.1301E+01
     -3.168  0.2446E+02  0.1853E+01
     -3.146  0.6041E+01  0.1990E+01
     -3.123  0.2543E+01  0.2047E+01
     -3.101  0.1963E+02  0.2491E+01
     -3.078  0.7153E+02  0.4108E+01
     -3.055  0.1015E+03  0.6403E+01
     -3.033  0.5698E+02  0.7691E+01
     -3.010  0.1288E+02  0.7982E+01
     -2.988  0.6049E+01  0.8118E+01
     -2.965  0.3310E+02  0.8866E+01
     -2.942  0.8670E+02  0.1083E+02
     -2.920  0.9253E+02  0.1292E+02
     -2.897  0.4047E+02  0.1383E+02
     -2.875  0.9090E+01  0.1404E+02
     -2.852  0.1921E+02  0.1447E+02
     -2.829  0.7142E+02  0.1609E+02
     -2.807  0.1220E+03  0.1884E+02
     -2.784  0.9758E+02  0.2105E+02
     -2.762  0.3646E+02  0.2187E+02
     -2.739  0.1310E+02  0.2217E+02
     -2.716  0.4708E+02  0.2323E+02
     -2.694  0.1273E+03  0.2611E+02
     -2.671  0.1701E+03  0.2995E+02
     -2.649  0.1230E+03  0.3273E+02
     -2.626  0.4705E+02  0.3380E+02
     -2.603  0.1203E+02  0.3407E+02
     -2.581  0.2685E+02  0.3468E+02
     -2.558  0.7695E+02  0.3642E+02
     -2.536  0.9538E+02  0.3857E+02
     -2.513  0.5124E+02  0.3973E+02
     -2.490  0.1708E+02  0.4012E+02
     -2.468  0.3819E+02  0.4098E+02
     -2.445  0.1076E+03  0.4341E+02
     -2.423  0.1603E+03  0.4703E+02
     -2.400  0.1380E+03  0.5015E+02
     -2.377  0.6717E+02  0.5167E+02
     -2.355  0.3018E+02  0.5235E+02
     -2.332  0.7102E+02  0.5396E+02
     -2.310  0.1547E+03  0.5745E+02
     -2.287  0.2118E+03  0.6224E+02
     -2.264  0.1969E+03  0.6669E+02
     -2.242  0.1105E+03  0.6919E+02
     -2.219  0.3472E+02  0.6997E+02
     -2.197  0.2696E+02  0.7058E+02
     -2.174  0.7150E+02  0.7220E+02
     -2.151  0.9554E+02  0.7436E+02
     -2.129  0.5694E+02  0.7564E+02
     -2.106  0.1929E+02  0.7608E+02
     -2.084  0.3811E+02  0.7694E+02
     -2.061  0.1201E+03  0.7966E+02
     -2.038  0.1893E+03  0.8394E+02
     -2.016  0.1634E+03  0.8763E+02
     -1.993  0.8224E+02  0.8949E+02
     -1.971  0.3316E+02  0.9024E+02
     -1.948  0.6526E+02  0.9171E+02
     -1.925  0.1530E+03  0.9517E+02
     -1.903  0.2165E+03  0.1001E+03
     -1.880  0.2019E+03  0.1046E+03
     -1.858  0.1133E+03  0.1072E+03
     -1.835  0.3811E+02  0.1080E+03
     -1.812  0.4430E+02  0.1091E+03
     -1.790  0.1193E+03  0.1117E+03
     -1.767  0.1747E+03  0.1157E+03
     -1.745  0.1332E+03  0.1187E+03
     -1.722  0.5892E+02  0.1200E+03
     -1.699  0.6316E+02  0.1215E+03
     -1.677  0.1452E+03  0.1247E+03
     -1.654  0.2089E+03  0.1295E+03
     -1.632  0.1988E+03  0.1340E+03
     -1.609  0.1262E+03  0.1368E+03
     -1.586  0.5590E+02  0.1381E+03
     -1.564  0.6862E+02  0.1396E+03
     -1.541  0.1557E+03  0.1431E+03
     -1.519  0.2215E+03  0.1482E+03
     -1.496  0.2014E+03  0.1527E+03
     -1.473  0.1106E+03  0.1552E+03
     -1.451  0.4060E+02  0.1561E+03
     -1.428  0.5503E+02  0.1574E+03
     -1.405  0.1249E+03  0.1602E+03
     -1.383  0.1594E+03  0.1638E+03
     -1.360  0.1218E+03  0.1665E+03
     -1.338  0.5549E+02  0.1678E+03
     -1.315  0.3594E+02  0.1686E+03
     -1.292  0.8997E+02  0.1706E+03
     -1.270  0.1511E+03  0.1741E+03
     -1.247  0.1493E+03  0.1774E+03
     -1.225  0.1002E+03  0.1797E+03
     -1.202  0.9283E+02  0.1818E+03
     -1.179  0.1670E+03  0.1856E+03
     -1.157  0.2526E+03  0.1913E+03
     -1.134  0.2934E+03  0.1979E+03
     -1.112  0.2720E+03  0.2041E+03
     -1.089  0.1827E+03  0.2082E+03
     -1.066  0.9266E+02  0.2103E+03
     -1.044  0.1089E+03  0.2127E+03
     -1.021  0.1909E+03  0.2171E+03
     -0.999  0.2175E+03  0.2220E+03
     -0.976  0.1654E+03  0.2257E+03
     -0.953  0.8416E+02  0.2276E+03
     -0.931  0.5441E+02  0.2288E+03
     -0.908  0.1133E+03  0.2314E+03
     -0.886  0.1805E+03  0.2355E+03
     -0.863  0.1688E+03  0.2393E+03
     -0.840  0.9827E+02  0.2415E+03
     -0.818  0.7110E+02  0.2431E+03
     -0.795  0.1435E+03  0.2464E+03
     -0.773  0.2267E+03  0.2515E+03
     -0.750  0.2541E+03  0.2572E+03
     -0.727  0.2243E+03  0.2623E+03
     -0.705  0.1461E+03  0.2656E+03
     -0.682  0.1060E+03  0.2680E+03
     -0.660  0.9894E+02  0.2702E+03
     -0.637  0.6033E+02  0.2716E+03
     -0.614  0.2807E+02  0.2722E+03
     -0.592  0.6357E+02  0.2737E+03
     -0.569  0.1577E+03  0.2772E+03
     -0.547  0.2417E+03  0.2827E+03
     -0.524  0.2637E+03  0.2887E+03
     -0.501  0.2229E+03  0.2937E+03
     -0.479  0.1743E+03  0.2976E+03
     -0.456  0.1574E+03  0.3012E+03
     -0.434  0.1608E+03  0.3048E+03
     -0.411  0.1904E+03  0.3091E+03
     -0.388  0.2373E+03  0.3145E+03
     -0.366  0.2696E+03  0.3206E+03
     -0.343  0.2508E+03  0.3263E+03
     -0.321  0.1783E+03  0.3303E+03
     -0.298  0.1108E+03  0.3328E+03
     -0.275  0.1133E+03  0.3354E+03
     -0.253  0.1427E+03  0.3386E+03
     -0.230  0.1488E+03  0.3419E+03
     -0.208  0.1421E+03  0.3452E+03
     -0.185  0.1773E+03  0.3492E+03
     -0.162  0.2408E+03  0.3546E+03
     -0.140  0.2734E+03  0.3608E+03
     -0.117  0.2659E+03  0.3668E+03
     -0.095  0.2430E+03  0.3723E+03
     -0.072  0.1987E+03  0.3768E+03
     -0.049  0.1412E+03  0.3800E+03
     -0.027  0.1414E+03  0.3832E+03
     -0.004  0.1899E+03  0.3875E+03
      0.018  0.2156E+03  0.3923E+03
      0.041  0.2103E+03  0.3971E+03
      0.064  0.1832E+03  0.4012E+03
      0.086  0.1507E+03  0.4046E+03
      0.109  0.1358E+03  0.4077E+03
      0.131  0.1408E+03  0.4109E+03
      0.154  0.1703E+03  0.4147E+03
      0.177  0.2055E+03  0.4194E+03
      0.199  0.2112E+03  0.4241E+03
      0.222  0.1918E+03  0.4285E+03
      0.244  0.1859E+03  0.4327E+03
      0.267  0.1964E+03  0.4371E+03
      0.290  0.2048E+03  0.4418E+03
      0.312  0.2086E+03  0.4465E+03
      0.335  0.2157E+03  0.4513E+03
      0.357  0.2183E+03  0.4563E+03
      0.380  0.2107E+03  0.4610E+03
      0.403  0.1928E+03  0.4654E+03
      0.425  0.1835E+03  0.4695E+03
      0.448  0.1841E+03  0.4737E+03
      0.470  0.1941E+03  0.4781E+03
      0.493  0.2107E+03  0.4829E+03
      0.516  0.2326E+03  0.4881E+03
      0.538  0.2523E+03  0.4938E+03
      0.561  0.2675E+03  0.4999E+03
      0.583  0.2691E+03  0.5059E+03
      0.606  0.2586E+03  0.5118E+03
      0.629  0.2556E+03  0.5176E+03
      0.651  0.2567E+03  0.5234E+03
      0.674  0.2531E+03  0.5291E+03
      0.696  0.2495E+03  0.5347E+03
      0.719  0.2449E+03  0.5403E+03
      0.742  0.2363E+03  0.5456E+03
      0.764  0.2315E+03  0.5508E+03
      0.787  0.2275E+03  0.5560E+03
      0.809  0.2131E+03  0.5608E+03
      0.832  0.2141E+03  0.5656E+03
      0.855  0.2316E+03  0.5709E+03
      0.877  0.2414E+03  0.5763E+03
      0.900  0.2380E+03  0.5817E+03
      0.922  0.2366E+03  0.5870E+03
      0.945  0.2375E+03  0.5924E+03
      0.968  0.2293E+03  0.5976E+03
      0.990  0.2202E+03  0.6026E+03
      1.013  0.2145E+03  0.6074E+03
      1.035  0.2053E+03  0.6121E+03
      1.058  0.1944E+03  0.6165E+03
      1.081  0.1822E+03  0.6206E+03
      1.103  0.1773E+03  0.6246E+03
      1.126  0.1869E+03  0.6288E+03
      1.149  0.2002E+03  0.6333E+03
      1.171  0.2056E+03  0.6380E+03
      1.194  0.1938E+03  0.6424E+03
      1.216  0.1676E+03  0.6462E+03
      1.239  0.1494E+03  0.6495E+03
      1.262  0.1417E+03  0.6527E+03
      1.284  0.1404E+03  0.6559E+03
      1.307  0.1477E+03  0.6592E+03
      1.329  0.1485E+03  0.6626E+03
      1.352  0.1449E+03  0.6659E+03
      1.375  0.1500E+03  0.6693E+03
      1.397  0.1697E+03  0.6731E+03
      1.420  0.1889E+03  0.6774E+03
      1.442  0.1915E+03  0.6817E+03
      1.465  0.1872E+03  0.6859E+03
      1.488  0.1820E+03  0.6900E+03
      1.510  0.1768E+03  0.6940E+03
      1.533  0.1776E+03  0.6981E+03
      1.555  0.1818E+03  0.7022E+03
      1.578  0.1803E+03  0.7062E+03
      1.601  0.1847E+03  0.7104E+03
      1.623  0.1938E+03  0.7148E+03
      1.646  0.1913E+03  0.7191E+03
      1.668  0.1803E+03  0.7232E+03
      1.691  0.1807E+03  0.7273E+03
      1.714  0.1893E+03  0.7316E+03
      1.736  0.1907E+03  0.7359E+03
      1.759  0.1804E+03  0.7399E+03
      1.781  0.1653E+03  0.7437E+03
      1.804  0.1553E+03  0.7472E+03
      1.827  0.1610E+03  0.7508E+03
      1.849  0.1655E+03  0.7546E+03
      1.872  0.1564E+03  0.7581E+03
      1.894  0.1493E+03  0.7615E+03
      1.917  0.1447E+03  0.7647E+03
      1.940  0.1400E+03  0.7679E+03
      1.962  0.1414E+03  0.7711E+03
      1.985  0.1415E+03  0.7743E+03
      2.007  0.1360E+03  0.7774E+03
      2.030  0.1242E+03  0.7802E+03
      2.053  0.1052E+03  0.7826E+03
      2.075  0.1029E+03  0.7849E+03
      2.098  0.1107E+03  0.7874E+03
      2.120  0.1104E+03  0.7899E+03
      2.143  0.1016E+03  0.7922E+03
      2.166  0.7588E+02  0.7939E+03
      2.188  0.4837E+02  0.7950E+03
      2.211  0.3055E+02  0.7957E+03
      2.233  0.2200E+02  0.7962E+03
      2.256  0.3922E+02  0.7971E+03
      2.279  0.7036E+02  0.7987E+03
      2.301  0.7778E+02  0.8004E+03
      2.324  0.5133E+02  0.8016E+03
      2.346  0.2375E+02  0.8021E+03
      2.369  0.2468E+02  0.8027E+03
      2.392  0.3845E+02  0.8035E+03
      2.414  0.5434E+02  0.8048E+03
      2.437  0.7533E+02  0.8065E+03
      2.459  0.9685E+02  0.8087E+03
      2.482  0.1201E+03  0.8114E+03
      2.505  0.1235E+03  0.8142E+03
      2.527  0.1152E+03  0.8168E+03
      2.550  0.1165E+03  0.8194E+03
      2.572  0.1282E+03  0.8223E+03
      2.595  0.1320E+03  0.8253E+03
      2.618  0.1368E+03  0.8284E+03
      2.640  0.1532E+03  0.8318E+03
      2.663  0.1524E+03  0.8353E+03
      2.685  0.1308E+03  0.8382E+03
      2.708  0.1081E+03  0.8407E+03
      2.731  0.9886E+02  0.8429E+03
      2.753  0.9392E+02  0.8450E+03
      2.776  0.7742E+02  0.8468E+03
      2.798  0.6925E+02  0.8484E+03
      2.821  0.7866E+02  0.8501E+03
      2.844  0.9175E+02  0.8522E+03
      2.866  0.1055E+03  0.8546E+03
      2.889  0.1084E+03  0.8570E+03
      2.911  0.1050E+03  0.8594E+03
      2.934  0.1110E+03  0.8619E+03
      2.957  0.1009E+03  0.8642E+03
      2.979  0.5913E+02  0.8655E+03
      3.002  0.1800E+02  0.8659E+03
      3.024  0.2393E+01  0.8660E+03
      3.047  0.1240E+00  0.8660E+03
      3.070  0.2341E-02  0.8660E+03
      3.092  0.1544E-04  0.8660E+03
      3.115  0.3471E-07  0.8660E+03
      3.137  0.2616E-10  0.8660E+03
      3.160  0.4912E-14  0.8660E+03
      3.183  0.0000E+00  0.8660E+03
      3.205  0.0000E+00  0.8660E+03
      3.228  0.0000E+00  0.8660E+03
      3.250  0.0000E+00  0.8660E+03
      3.273  0.0000E+00  0.8660E+03
