 running on   64 total cores
 distrk:  each k-point on   32 cores,    2 groups
 distr:  one band on   32 cores,    1 groups
 vasp.6.2.1 16May21 (build Nov 23 2021 15:40:41) complex                        
  
 POSCAR found type information on POSCAR Li
 POSCAR found :  1 types and     432 ions
 scaLAPACK will be used
 -----------------------------------------------------------------------------
|                                                                             |
|           W    W    AA    RRRRR   N    N  II  N    N   GGGG   !!!           |
|           W    W   A  A   R    R  NN   N  II  NN   N  G    G  !!!           |
|           W    W  A    A  R    R  N N  N  II  N N  N  G       !!!           |
|           W WW W  AAAAAA  RRRRR   N  N N  II  N  N N  G  GGG   !            |
|           WW  WW  A    A  R   R   N   NN  II  N   NN  G    G                |
|           W    W  A    A  R    R  N    N  II  N    N   GGGG   !!!           |
|                                                                             |
|     For optimal performance we recommend to set                             |
|       NCORE = 2 up to number-of-cores-per-socket                            |
|     NCORE specifies how many cores store one orbital (NPAR=cpu/NCORE).      |
|     This setting can greatly improve the performance of VASP for DFT.       |
|     The default, NCORE=1 might be grossly inefficient on modern             |
|     multi-core architectures or massively parallel machines. Do your        |
|     own testing! More info at https://www.vasp.at/wiki/index.php/NCORE      |
|     Unfortunately you need to use the default for GW and RPA                |
|     calculations (for HF NCORE is supported but not extensively tested      |
|     yet).                                                                   |
|                                                                             |
 -----------------------------------------------------------------------------

 -----------------------------------------------------------------------------
|                                                                             |
|               ----> ADVICE to this user running VASP <----                  |
|                                                                             |
|     You have a (more or less) 'large supercell' and for larger cells it     |
|     might be more efficient to use real-space projection operators.         |
|     Therefore, try LREAL= Auto in the INCAR file.                           |
|     Mind: If you want to do very accurate calculations, keep the            |
|     reciprocal projection scheme (i.e. LREAL=.FALSE.).                      |
|                                                                             |
 -----------------------------------------------------------------------------

 LDA part: xc-table for Pade appr. of Perdew
 POSCAR found type information on POSCAR Li
 POSCAR found :  1 types and     432 ions
 POSCAR, INCAR and KPOINTS ok, starting setup
 FFT: planning ...
 WAVECAR not read
 entering main loop
       N       E                     dE             d eps       ncg     rms          rms(c)
DAV:   1    -0.262009904750E+03   -0.26201E+03   -0.10286E+05  3464   0.649E+02
DAV:   2    -0.759955336119E+03   -0.49795E+03   -0.45515E+03  4004   0.653E+01
DAV:   3    -0.795794628634E+03   -0.35839E+02   -0.32772E+02  4440   0.138E+01
DAV:   4    -0.797008619198E+03   -0.12140E+01   -0.11978E+01  3968   0.280E+00
DAV:   5    -0.797036592297E+03   -0.27973E-01   -0.27941E-01  4136   0.452E-01    0.867E+00
DAV:   6    -0.795473997451E+03    0.15626E+01   -0.90649E+00  4080   0.482E+00    0.744E+00
DAV:   7    -0.787052004591E+03    0.84220E+01   -0.94446E+00  4104   0.431E+00    0.372E+00
DAV:   8    -0.785792122777E+03    0.12599E+01   -0.48998E+00  3848   0.194E+00    0.183E+00
DAV:   9    -0.785669857079E+03    0.12227E+00   -0.18576E+00  3824   0.116E+00    0.111E+00
DAV:  10    -0.785692545177E+03   -0.22688E-01   -0.31471E-01  4040   0.670E-01    0.933E-01
DAV:  11    -0.785600220419E+03    0.92325E-01   -0.12350E-01  3952   0.437E-01    0.454E-01
DAV:  12    -0.785596414256E+03    0.38062E-02   -0.53314E-02  3712   0.185E-01    0.195E-01
DAV:  13    -0.785597658579E+03   -0.12443E-02   -0.89419E-03  4168   0.117E-01    0.154E-01
DAV:  14    -0.785595077324E+03    0.25813E-02   -0.29431E-03  3984   0.766E-02    0.733E-02
DAV:  15    -0.785594841675E+03    0.23565E-03   -0.12189E-03  3824   0.357E-02    0.362E-02
DAV:  16    -0.785594782346E+03    0.59328E-04   -0.50906E-04  3824   0.211E-02    0.167E-02
DAV:  17    -0.785594774560E+03    0.77864E-05   -0.86767E-05  4016   0.116E-02
   1 F= -.78559477E+03 E0= -.78555232E+03  d E =-.849058E-01
