Li                                      
           1
    21.052800    0.000000    0.000000
     0.000000   21.052800    0.000000
     0.000000    0.000000   21.052800
   Li
   432
Direct configuration=     1
   0.98225606  0.97781634  0.99721551
   0.92141598  0.07095030  0.07865236
   0.83612580  0.18175167  0.16893956
   0.76616613  0.25508658  0.27002142
   0.63982106  0.34112535  0.33542388
   0.56516921  0.41910270  0.42368860
   0.49493503  0.49391391  0.53716227
   0.41444353  0.58404520  0.58332751
   0.34629169  0.63677827  0.68876046
   0.25596442  0.72989604  0.72930789
   0.16121939  0.83130291  0.82485256
   0.09087515  0.91394273  0.92041581
   0.08986579  0.90985322  0.08599110
   0.99812546  0.99227442  0.14107110
   0.93792410  0.09896740  0.23843633
   0.85823148  0.15724348  0.32976313
   0.74274943  0.23931461  0.40548002
   0.63200006  0.30964969  0.47693986
   0.58352037  0.40655945  0.58666488
   0.50001427  0.50472747  0.65184887
   0.42911212  0.57833291  0.76637751
   0.34705907  0.66267237  0.83523385
   0.26136148  0.75530697  0.92289564
   0.16817793  0.81873878  0.01100489
   0.17722449  0.81583966  0.17478942
   0.08131635  0.89531568  0.24013768
   0.99732262  0.00711394  0.31487956
   0.93614093  0.08922442  0.43044394
   0.81792769  0.18022144  0.49772272
   0.73790149  0.25834228  0.55976331
   0.66456168  0.31054520  0.65464439
   0.60386304  0.39320615  0.73216516
   0.52812743  0.48225925  0.83744747
   0.43202225  0.57172900  0.90446185
   0.34258304  0.67737706  0.98015865
   0.25907157  0.73611752  0.06636552
   0.29241873  0.74740888  0.27930946
   0.18403863  0.82833112  0.35562704
   0.09469880  0.91788039  0.41518732
   0.00985801  0.99911878  0.50560783
   0.92215225  0.10272388  0.59821007
   0.83174839  0.18140256  0.67032802
   0.76330230  0.25534689  0.76912502
   0.66736318  0.34711777  0.82105759
   0.57477485  0.42462482  0.92145962
   0.51756939  0.50921518  0.00844906
   0.41634533  0.58066167  0.10154824
   0.35147191  0.67701978  0.15964709
   0.36363663  0.67389542  0.35346479
   0.26461414  0.76039106  0.43031887
   0.16813311  0.83068510  0.51762008
   0.08214724  0.91857463  0.59848861
   0.98501352  0.00310310  0.69355707
   0.88902134  0.09496990  0.73721791
   0.84176767  0.14322871  0.84715140
   0.76198733  0.25909105  0.92177162
   0.65976474  0.32656092  0.00077580
   0.59269305  0.42043405  0.09191920
   0.49598090  0.49061748  0.16399724
   0.41532904  0.56864228  0.25515809
   0.41528953  0.55065122  0.45584594
   0.34311189  0.67078992  0.48511654
   0.24408632  0.73533795  0.56200364
   0.15952575  0.83023518  0.65578868
   0.07350568  0.91762766  0.74312816
   0.98463430  0.00060211  0.81912808
   0.92551324  0.07202380  0.91749542
   0.83212543  0.15806155  0.99992355
   0.77189526  0.23501567  0.06919424
   0.67924726  0.33003158  0.17509674
   0.56598984  0.41524452  0.24369722
   0.48894473  0.48205606  0.34714875
   0.06874435  0.03369036  0.91806721
   0.98989747  0.14203776  0.99107560
   0.92643745  0.25783041  0.09810385
   0.83033370  0.33322794  0.17554718
   0.73408134  0.42861225  0.25385545
   0.67614102  0.47993989  0.34530378
   0.56677001  0.55738685  0.41522612
   0.50211710  0.67381472  0.51292565
   0.40535935  0.73659339  0.59120481
   0.33617034  0.81671477  0.66513040
   0.24469191  0.89292281  0.74758460
   0.14182562  0.00539724  0.81786986
   0.16498031  0.99608668  0.01387173
   0.09036344  0.07785019  0.09767944
   0.00013490  0.14487280  0.16799203
   0.93096457  0.24800719  0.25799110
   0.82299551  0.33317075  0.32548118
   0.74751784  0.39580283  0.43704749
   0.67844844  0.48601251  0.50016535
   0.59165194  0.58366351  0.56303148
   0.52363083  0.67050887  0.67189285
   0.44523236  0.75439467  0.74741406
   0.31962277  0.82576157  0.83105291
   0.23346172  0.92402329  0.91348331
   0.24044978  0.91665009  0.08869843
   0.18598433  0.97230531  0.17243079
   0.09825544  0.06314896  0.24218735
   0.02416759  0.16727801  0.32177669
   0.91230812  0.24564702  0.39529161
   0.82507225  0.32611909  0.49849344
   0.73880048  0.40645928  0.57859778
   0.64415222  0.50969206  0.65779720
   0.58831532  0.58161999  0.76612917
   0.53692113  0.68407442  0.83521848
   0.42391739  0.75850336  0.91247792
   0.32576676  0.86369366  0.98438570
   0.33774191  0.81668080  0.13594929
   0.28108728  0.88931579  0.24938255
   0.17919653  0.98071042  0.32369320
   0.10033573  0.07044385  0.41370756
   0.01223710  0.15433331  0.50999271
   0.90215888  0.25141503  0.56519970
   0.83003499  0.32268598  0.63913603
   0.75218712  0.42299254  0.72568374
   0.65973316  0.49845982  0.83636340
   0.59635725  0.58059814  0.92307545
   0.48093241  0.65229704  0.98843114
   0.45899213  0.77047668  0.06303498
   0.43719382  0.75937187  0.24074477
   0.37211889  0.82205331  0.35729211
   0.26939266  0.90100058  0.43292872
   0.16705807  0.00727133  0.52366766
   0.06964356  0.08341969  0.60787880
   0.98654890  0.21319094  0.66846852
   0.90328889  0.26287257  0.76544341
   0.82933432  0.34920836  0.84549473
   0.74099583  0.43913827  0.93726313
   0.67179335  0.50679699  0.01020323
   0.59060525  0.56849750  0.06652708
   0.51121941  0.65105045  0.17077083
   0.50529047  0.65119994  0.36898412
   0.44944738  0.75683755  0.43687373
   0.35757293  0.83660941  0.51750767
   0.24270370  0.92166060  0.59671732
   0.17269901  0.00312627  0.68526644
   0.05446960  0.09879659  0.72648836
   0.00013579  0.17344067  0.84324013
   0.90098488  0.26002596  0.93857227
   0.82498403  0.33600966  0.99670200
   0.73139598  0.40713348  0.10025232
   0.66297852  0.51982228  0.15995952
   0.58193699  0.56845850  0.28443865
   0.12926075  0.16588493  0.84187352
   0.06614083  0.25069846  0.90440128
   0.98284977  0.33114261  0.01141293
   0.92601251  0.41985937  0.08397755
   0.81480773  0.49462451  0.16299498
   0.74854533  0.57642266  0.25249115
   0.67201954  0.65517956  0.33430326
   0.60136555  0.74704219  0.43396088
   0.51385742  0.85492080  0.51356357
   0.42468459  0.94372246  0.60394878
   0.30636153  0.99928101  0.68957193
   0.24673192  0.09479293  0.76437142
   0.23641448  0.07069329  0.91059461
   0.15013903  0.14592511  0.99256281
   0.07924174  0.23406791  0.06244236
   0.01553498  0.33838380  0.16375974
   0.92000277  0.41911413  0.24800621
   0.81915493  0.47545272  0.32360104
   0.76891725  0.55930957  0.41758507
   0.65756198  0.64195045  0.50193523
   0.57547521  0.75693695  0.57634993
   0.50111501  0.81964105  0.67355225
   0.40299860  0.91287186  0.75319220
   0.31868998  0.99549608  0.81712908
   0.34240175  0.99332573  0.99104678
   0.25728326  0.08087578  0.06711143
   0.17532021  0.15039546  0.16008177
   0.10076866  0.24783252  0.21454070
   0.04092712  0.30371102  0.31938332
   0.92533971  0.39680273  0.38104766
   0.83989798  0.46110368  0.48549543
   0.77181993  0.56689066  0.57086038
   0.67384049  0.65091737  0.64580527
   0.60201038  0.77540659  0.73447475
   0.48102881  0.86046954  0.82798836
   0.41503611  0.92257250  0.90907569
   0.43413087  0.93119680  0.07373313
   0.33072761  0.00069295  0.16655688
   0.24878904  0.06076851  0.23902106
   0.14933864  0.14147248  0.32032614
   0.09539546  0.24615875  0.41262332
   0.99488982  0.31896488  0.48646147
   0.91901708  0.38643505  0.59257739
   0.86280382  0.49326634  0.68339331
   0.73888837  0.57652175  0.74991469
   0.66593806  0.68828721  0.82552559
   0.58559348  0.77219677  0.92697858
   0.51968350  0.85213089  0.99608172
   0.53065227  0.84476862  0.14575840
   0.42658955  0.91803810  0.23404956
   0.32874658  0.02008256  0.32004291
   0.23929942  0.08093716  0.43829892
   0.16335502  0.17386316  0.53764347
   0.08134326  0.25208687  0.58297008
   0.98951614  0.33094003  0.68350015
   0.91458072  0.41043825  0.78009793
   0.81630838  0.47954099  0.83561952
   0.75183580  0.57852669  0.91592315
   0.66787493  0.65976223  0.99967945
   0.58082614  0.74868035  0.05100520
   0.59217868  0.75290250  0.24659171
   0.52887367  0.82216685  0.33673551
   0.42265063  0.93518747  0.42116700
   0.32170436  0.99688413  0.51311317
   0.22988905  0.10633510  0.60631594
   0.14157200  0.17508794  0.69279505
   0.08420661  0.27899394  0.76911341
   0.97366343  0.33763720  0.84729137
   0.92873160  0.41512865  0.93879328
   0.82784114  0.51141309  0.99520465
   0.75569309  0.59308035  0.07869488
   0.68046647  0.66131961  0.16918589
   0.25313526  0.23888298  0.77278313
   0.13799093  0.34407009  0.83928148
   0.05930596  0.42137732  0.93219356
   0.99359336  0.51735841  0.99432767
   0.93470531  0.57855190  0.11042347
   0.82680342  0.65093244  0.16726755
   0.75842932  0.75763154  0.24162706
   0.68045719  0.85340040  0.34119199
   0.57962966  0.93800403  0.42597895
   0.52740792  0.99686643  0.51267136
   0.41471964  0.10025593  0.59346315
   0.32699561  0.19661718  0.67937850
   0.33007155  0.17065490  0.84778170
   0.23902289  0.25028242  0.91594797
   0.14788419  0.33508632  0.02169077
   0.07508109  0.43454374  0.10373940
   0.00152312  0.53831859  0.17113428
   0.91310101  0.58260445  0.24437326
   0.83788115  0.67848005  0.32866103
   0.73796843  0.75285479  0.42470654
   0.66999855  0.85625841  0.50793821
   0.61516390  0.93707474  0.60021411
   0.49866740  0.00333872  0.68373511
   0.39949117  0.08731481  0.75624380
   0.43146090  0.06679881  0.90248864
   0.35768466  0.17139212  0.97257996
   0.23859278  0.23376781  0.05988384
   0.16591201  0.34253022  0.14236471
   0.08832845  0.40967078  0.24336034
   0.00435921  0.51400086  0.32538245
   0.90117105  0.58022669  0.40374781
   0.83949698  0.66052962  0.49623588
   0.75946401  0.73781878  0.55424872
   0.67294349  0.86204559  0.65072071
   0.59051746  0.92146590  0.73364409
   0.51334061  0.99402732  0.82222714
   0.48044811  0.01512726  0.97401109
   0.41784687  0.08466619  0.07402562
   0.30635001  0.15973524  0.14862703
   0.23442017  0.24548412  0.23033008
   0.15288116  0.33809501  0.31183716
   0.07917713  0.40610979  0.42225728
   0.00224066  0.48474115  0.51074849
   0.91733225  0.55538128  0.58414346
   0.83631026  0.65102093  0.65491149
   0.74630516  0.75352382  0.73100623
   0.66445947  0.83265711  0.85559538
   0.58525206  0.92806293  0.91968938
   0.56298947  0.93097834  0.08191948
   0.50927171  0.02032275  0.17075291
   0.41937202  0.08352664  0.24112958
   0.30543449  0.15809660  0.33010010
   0.21970249  0.23471759  0.40851817
   0.18548712  0.35215816  0.50811803
   0.08190655  0.39983015  0.60088846
   0.99674352  0.48597558  0.67753851
   0.89983136  0.58237116  0.77590118
   0.81829129  0.67573387  0.83347871
   0.77040094  0.75251558  0.91299165
   0.68106888  0.83460914  0.00314586
   0.66261354  0.83387973  0.17034649
   0.59833502  0.93532929  0.23988654
   0.49045659  0.01014311  0.33326416
   0.41523637  0.07397904  0.43230412
   0.30460475  0.17411100  0.51134683
   0.22878158  0.24348369  0.61519352
   0.16498539  0.31509238  0.68108004
   0.08414579  0.39069698  0.75495017
   0.99738123  0.51752414  0.83740626
   0.91123055  0.57316444  0.92513308
   0.82959401  0.66910188  0.99187840
   0.74627259  0.75772868  0.09423876
   0.32711456  0.34185261  0.68505658
   0.25235163  0.40769247  0.74063963
   0.14819155  0.51250495  0.83833394
   0.07989443  0.61214374  0.91337685
   0.98813669  0.68832587  0.01450540
   0.90225458  0.75805505  0.09705561
   0.82596350  0.84568091  0.16644844
   0.76615750  0.93509166  0.26525436
   0.66425280  0.00080659  0.32789255
   0.56355865  0.09367434  0.41319512
   0.49167235  0.18992294  0.49766424
   0.39439253  0.25771723  0.58934918
   0.42279214  0.25170785  0.76979541
   0.34339749  0.32436693  0.86535093
   0.24764173  0.42310939  0.92950580
   0.16478173  0.50190781  0.99037310
   0.09836553  0.60930398  0.06982441
   0.01116107  0.68524701  0.17138847
   0.90294590  0.75232385  0.24151429
   0.84028642  0.83458493  0.34921644
   0.74472490  0.93359325  0.41845301
   0.65521468  0.03984684  0.49605724
   0.57559582  0.08896609  0.60211064
   0.48914836  0.16272761  0.67511583
   0.51913792  0.14588096  0.83289509
   0.44823783  0.25426868  0.89405200
   0.34065015  0.33932162  0.97963603
   0.25726880  0.42434633  0.06738266
   0.16039970  0.51541209  0.15352206
   0.07478875  0.59282867  0.23625808
   0.99159795  0.66918279  0.33834011
   0.92024278  0.74262512  0.41976696
   0.83294327  0.84541427  0.49173092
   0.73848201  0.93026211  0.58209851
   0.66924053  0.01552857  0.68329207
   0.61241794  0.08274416  0.74282586
   0.60908591  0.09611444  0.91640971
   0.51610362  0.16313379  0.98143579
   0.40631819  0.26375985  0.06350145
   0.32150543  0.32732459  0.13848550
   0.23839581  0.41070483  0.22768236
   0.17472713  0.49302011  0.31028333
   0.08953381  0.57833246  0.39422182
   0.98838960  0.65380648  0.49475368
   0.91275692  0.74020847  0.57544878
   0.81342009  0.83504712  0.65928949
   0.74611460  0.91085990  0.76766698
   0.68054521  0.00378296  0.83728507
   0.66112213  0.01924399  0.01595927
   0.58936103  0.09077605  0.07736474
   0.50632515  0.16632644  0.15400662
   0.38180836  0.22495423  0.24551986
   0.30698164  0.33544970  0.32144006
   0.23532347  0.41613320  0.39566843
   0.17436085  0.50605981  0.49913503
   0.08493319  0.58592615  0.58122774
   0.99650967  0.66287075  0.66934325
   0.90406163  0.74445913  0.75181141
   0.82978901  0.81950632  0.82796306
   0.75408592  0.93323950  0.92216800
   0.75616253  0.93348166  0.07981770
   0.65526089  0.99459682  0.17445191
   0.56681392  0.10371641  0.25531179
   0.48521590  0.17977356  0.33791129
   0.38922858  0.25169998  0.41718526
   0.31078934  0.31459550  0.51169255
   0.24173353  0.42338951  0.60615949
   0.14058020  0.49676143  0.66959926
   0.08497789  0.57756850  0.75541823
   0.98974766  0.67972003  0.83076482
   0.89774316  0.75113513  0.91298506
   0.83976763  0.84514020  0.99981651
   0.38729569  0.43258131  0.58633187
   0.31904494  0.50331510  0.66023640
   0.25129424  0.56829339  0.76851998
   0.17430347  0.68542302  0.82769610
   0.08724316  0.74354905  0.90069775
   0.00727579  0.80534118  0.00020051
   0.90744349  0.91366818  0.08264406
   0.84754113  0.00418275  0.16969034
   0.76496286  0.08653931  0.25432666
   0.66906172  0.18064542  0.33376427
   0.54816949  0.24778449  0.40678553
   0.48542313  0.32321952  0.49374510
   0.49789894  0.32273591  0.65199068
   0.41762897  0.43578702  0.73866442
   0.32202349  0.47575372  0.83629004
   0.26281357  0.59542241  0.90031586
   0.16982454  0.67650275  0.00725053
   0.09548839  0.75738492  0.09875129
   0.97878356  0.84261810  0.14581071
   0.93301353  0.90083739  0.24713697
   0.86875891  0.00367028  0.32214574
   0.77430980  0.07239121  0.39815279
   0.65672141  0.15652869  0.47640808
   0.57019021  0.24619442  0.56807111
   0.58006695  0.25173122  0.77936042
   0.49860218  0.35413595  0.83916910
   0.42616772  0.44396481  0.92982512
   0.34252132  0.53233145  0.99551046
   0.25768030  0.58620931  0.06146267
   0.19169217  0.68215704  0.17304366
   0.09845962  0.75632228  0.24024929
   0.03138799  0.83129586  0.34955180
   0.93834011  0.91551816  0.41212763
   0.83215904  0.01040789  0.50034381
   0.74468298  0.08515215  0.59062078
   0.67407266  0.17903432  0.66386561
   0.67512677  0.17869380  0.84233731
   0.59226076  0.25180993  0.89759680
   0.51051933  0.34037391  0.01039896
   0.41010505  0.41425984  0.07515786
   0.31239092  0.49782175  0.15048118
   0.25685884  0.61535884  0.26344247
   0.16170301  0.68769429  0.32764641
   0.05752626  0.73737493  0.42649423
   0.98729921  0.84350199  0.50711328
   0.91424875  0.91476068  0.57022024
   0.83091491  0.99221052  0.66647351
   0.76706407  0.09173222  0.76253921
   0.75569064  0.09009719  0.92054901
   0.67155914  0.16812788  0.99439184
   0.59429196  0.24104067  0.07103826
   0.50002996  0.30611491  0.17515611
   0.41131998  0.41141512  0.24816883
   0.32665665  0.49887027  0.33918683
   0.22737068  0.58662583  0.39460889
   0.16459190  0.65327527  0.47774006
   0.06710278  0.72535054  0.56830595
   0.99208998  0.82156080  0.65103598
   0.94088671  0.89411699  0.74824037
   0.84464585  0.99619029  0.82861319
   0.83042907  0.99849068  0.00238410
   0.76043833  0.09722677  0.07694412
   0.67992057  0.17088185  0.14735757
   0.58585098  0.24940037  0.23282997
   0.49991815  0.33029524  0.34879318
   0.38776753  0.40827201  0.43513624
   0.30052641  0.50453963  0.50421104
   0.24893925  0.59103468  0.57380309
   0.16261313  0.68152031  0.66754438
   0.06406624  0.73646997  0.73245528
   0.00087751  0.81814433  0.82811848
   0.92139558  0.91852175  0.90382040
