 504 504   0   0
  0.2235424E+02  0.2214114E-08  0.2191405E-08  0.2322030E-08  0.5000000E-15
  1.000000000000000E-004
  CAR 
 Li                                      
      2.91991669     -3.53704258  301      0.13976548      1.00000000
     -3.537  0.0000E+00  0.0000E+00
     -3.516  0.0000E+00  0.0000E+00
     -3.494  0.0000E+00  0.0000E+00
     -3.472  0.0000E+00  0.0000E+00
     -3.451  0.0000E+00  0.0000E+00
     -3.429  0.0000E+00  0.0000E+00
     -3.408  0.3482E-13  0.7494E-15
     -3.386  0.8604E-10  0.1853E-11
     -3.365  0.7583E-07  0.1634E-08
     -3.343  0.2444E-04  0.5277E-06
     -3.322  0.2902E-02  0.6298E-04
     -3.300  0.1281E+00  0.2819E-02
     -3.279  0.2127E+01  0.4859E-01
     -3.257  0.1346E+02  0.3383E+00
     -3.236  0.3286E+02  0.1045E+01
     -3.214  0.3121E+02  0.1717E+01
     -3.193  0.1261E+02  0.1989E+01
     -3.171  0.1128E+02  0.2232E+01
     -3.150  0.3603E+02  0.3007E+01
     -3.128  0.7121E+02  0.4540E+01
     -3.107  0.8616E+02  0.6394E+01
     -3.085  0.5652E+02  0.7611E+01
     -3.064  0.2112E+02  0.8065E+01
     -3.042  0.2742E+02  0.8655E+01
     -3.020  0.6649E+02  0.1009E+02
     -2.999  0.9154E+02  0.1206E+02
     -2.977  0.6617E+02  0.1348E+02
     -2.956  0.3044E+02  0.1414E+02
     -2.934  0.3754E+02  0.1494E+02
     -2.913  0.6964E+02  0.1644E+02
     -2.891  0.9299E+02  0.1844E+02
     -2.870  0.9212E+02  0.2043E+02
     -2.848  0.6183E+02  0.2176E+02
     -2.827  0.5138E+02  0.2286E+02
     -2.805  0.8945E+02  0.2479E+02
     -2.784  0.1250E+03  0.2748E+02
     -2.762  0.1278E+03  0.3023E+02
     -2.741  0.1025E+03  0.3243E+02
     -2.719  0.6127E+02  0.3375E+02
     -2.698  0.4431E+02  0.3471E+02
     -2.676  0.6460E+02  0.3610E+02
     -2.655  0.8457E+02  0.3792E+02
     -2.633  0.7534E+02  0.3954E+02
     -2.612  0.6001E+02  0.4083E+02
     -2.590  0.6910E+02  0.4232E+02
     -2.568  0.8963E+02  0.4425E+02
     -2.547  0.1092E+03  0.4660E+02
     -2.525  0.1193E+03  0.4916E+02
     -2.504  0.1185E+03  0.5171E+02
     -2.482  0.1163E+03  0.5422E+02
     -2.461  0.1258E+03  0.5693E+02
     -2.439  0.1473E+03  0.6010E+02
     -2.418  0.1558E+03  0.6345E+02
     -2.396  0.1422E+03  0.6651E+02
     -2.375  0.1189E+03  0.6907E+02
     -2.353  0.8556E+02  0.7091E+02
     -2.332  0.5526E+02  0.7210E+02
     -2.310  0.5635E+02  0.7331E+02
     -2.289  0.7550E+02  0.7494E+02
     -2.267  0.8552E+02  0.7678E+02
     -2.246  0.9867E+02  0.7890E+02
     -2.224  0.1170E+03  0.8142E+02
     -2.203  0.1345E+03  0.8432E+02
     -2.181  0.1431E+03  0.8740E+02
     -2.160  0.1333E+03  0.9027E+02
     -2.138  0.1198E+03  0.9284E+02
     -2.117  0.1248E+03  0.9553E+02
     -2.095  0.1398E+03  0.9854E+02
     -2.073  0.1597E+03  0.1020E+03
     -2.052  0.1705E+03  0.1056E+03
     -2.030  0.1523E+03  0.1089E+03
     -2.009  0.1032E+03  0.1111E+03
     -1.987  0.7024E+02  0.1127E+03
     -1.966  0.9578E+02  0.1147E+03
     -1.944  0.1314E+03  0.1175E+03
     -1.923  0.1373E+03  0.1205E+03
     -1.901  0.1324E+03  0.1234E+03
     -1.880  0.1367E+03  0.1263E+03
     -1.858  0.1536E+03  0.1296E+03
     -1.837  0.1704E+03  0.1333E+03
     -1.815  0.1751E+03  0.1370E+03
     -1.794  0.1579E+03  0.1404E+03
     -1.772  0.1367E+03  0.1434E+03
     -1.751  0.1382E+03  0.1463E+03
     -1.729  0.1465E+03  0.1495E+03
     -1.708  0.1494E+03  0.1527E+03
     -1.686  0.1515E+03  0.1560E+03
     -1.665  0.1397E+03  0.1590E+03
     -1.643  0.1194E+03  0.1616E+03
     -1.621  0.1102E+03  0.1639E+03
     -1.600  0.1135E+03  0.1664E+03
     -1.578  0.1144E+03  0.1688E+03
     -1.557  0.1223E+03  0.1715E+03
     -1.535  0.1382E+03  0.1744E+03
     -1.514  0.1497E+03  0.1777E+03
     -1.492  0.1543E+03  0.1810E+03
     -1.471  0.1631E+03  0.1845E+03
     -1.449  0.1694E+03  0.1881E+03
     -1.428  0.1702E+03  0.1918E+03
     -1.406  0.1803E+03  0.1957E+03
     -1.385  0.1969E+03  0.1999E+03
     -1.363  0.2071E+03  0.2044E+03
     -1.342  0.2058E+03  0.2088E+03
     -1.320  0.2035E+03  0.2132E+03
     -1.299  0.1994E+03  0.2175E+03
     -1.277  0.1858E+03  0.2215E+03
     -1.256  0.1620E+03  0.2250E+03
     -1.234  0.1417E+03  0.2280E+03
     -1.213  0.1319E+03  0.2309E+03
     -1.191  0.1233E+03  0.2335E+03
     -1.169  0.1363E+03  0.2364E+03
     -1.148  0.1653E+03  0.2400E+03
     -1.126  0.1729E+03  0.2437E+03
     -1.105  0.1678E+03  0.2473E+03
     -1.083  0.1658E+03  0.2509E+03
     -1.062  0.1700E+03  0.2546E+03
     -1.040  0.1868E+03  0.2586E+03
     -1.019  0.1956E+03  0.2628E+03
     -0.997  0.1827E+03  0.2667E+03
     -0.976  0.1633E+03  0.2702E+03
     -0.954  0.1506E+03  0.2735E+03
     -0.933  0.1594E+03  0.2769E+03
     -0.911  0.1734E+03  0.2806E+03
     -0.890  0.1642E+03  0.2842E+03
     -0.868  0.1595E+03  0.2876E+03
     -0.847  0.1708E+03  0.2913E+03
     -0.825  0.1901E+03  0.2954E+03
     -0.804  0.2197E+03  0.3001E+03
     -0.782  0.2376E+03  0.3052E+03
     -0.761  0.2289E+03  0.3101E+03
     -0.739  0.2099E+03  0.3147E+03
     -0.718  0.2038E+03  0.3190E+03
     -0.696  0.2137E+03  0.3236E+03
     -0.674  0.2231E+03  0.3284E+03
     -0.653  0.2218E+03  0.3332E+03
     -0.631  0.2075E+03  0.3377E+03
     -0.610  0.1900E+03  0.3418E+03
     -0.588  0.1841E+03  0.3457E+03
     -0.567  0.1787E+03  0.3496E+03
     -0.545  0.1717E+03  0.3533E+03
     -0.524  0.1662E+03  0.3569E+03
     -0.502  0.1744E+03  0.3606E+03
     -0.481  0.1958E+03  0.3648E+03
     -0.459  0.2066E+03  0.3693E+03
     -0.438  0.2036E+03  0.3737E+03
     -0.416  0.1976E+03  0.3779E+03
     -0.395  0.2088E+03  0.3824E+03
     -0.373  0.2222E+03  0.3872E+03
     -0.352  0.2280E+03  0.3921E+03
     -0.330  0.2389E+03  0.3972E+03
     -0.309  0.2508E+03  0.4026E+03
     -0.287  0.2486E+03  0.4080E+03
     -0.266  0.2362E+03  0.4131E+03
     -0.244  0.2250E+03  0.4179E+03
     -0.222  0.2156E+03  0.4225E+03
     -0.201  0.2114E+03  0.4271E+03
     -0.179  0.2137E+03  0.4317E+03
     -0.158  0.2189E+03  0.4364E+03
     -0.136  0.2198E+03  0.4411E+03
     -0.115  0.2174E+03  0.4458E+03
     -0.093  0.2117E+03  0.4504E+03
     -0.072  0.2026E+03  0.4547E+03
     -0.050  0.2059E+03  0.4592E+03
     -0.029  0.2175E+03  0.4639E+03
     -0.007  0.2134E+03  0.4684E+03
      0.014  0.2044E+03  0.4728E+03
      0.036  0.2062E+03  0.4773E+03
      0.057  0.2246E+03  0.4821E+03
      0.079  0.2509E+03  0.4875E+03
      0.100  0.2645E+03  0.4932E+03
      0.122  0.2717E+03  0.4991E+03
      0.143  0.2771E+03  0.5050E+03
      0.165  0.2834E+03  0.5111E+03
      0.186  0.2920E+03  0.5174E+03
      0.208  0.2905E+03  0.5237E+03
      0.230  0.2810E+03  0.5297E+03
      0.251  0.2713E+03  0.5355E+03
      0.273  0.2598E+03  0.5411E+03
      0.294  0.2623E+03  0.5468E+03
      0.316  0.2739E+03  0.5527E+03
      0.337  0.2653E+03  0.5584E+03
      0.359  0.2441E+03  0.5636E+03
      0.380  0.2406E+03  0.5688E+03
      0.402  0.2444E+03  0.5741E+03
      0.423  0.2453E+03  0.5794E+03
      0.445  0.2385E+03  0.5845E+03
      0.466  0.2310E+03  0.5895E+03
      0.488  0.2307E+03  0.5944E+03
      0.509  0.2259E+03  0.5993E+03
      0.531  0.2202E+03  0.6040E+03
      0.552  0.2194E+03  0.6088E+03
      0.574  0.2196E+03  0.6135E+03
      0.595  0.2143E+03  0.6181E+03
      0.617  0.2145E+03  0.6227E+03
      0.638  0.2208E+03  0.6275E+03
      0.660  0.2251E+03  0.6323E+03
      0.682  0.2293E+03  0.6372E+03
      0.703  0.2329E+03  0.6423E+03
      0.725  0.2373E+03  0.6474E+03
      0.746  0.2449E+03  0.6526E+03
      0.768  0.2590E+03  0.6582E+03
      0.789  0.2628E+03  0.6639E+03
      0.811  0.2433E+03  0.6691E+03
      0.832  0.2250E+03  0.6739E+03
      0.854  0.2256E+03  0.6788E+03
      0.875  0.2312E+03  0.6838E+03
      0.897  0.2277E+03  0.6887E+03
      0.918  0.2292E+03  0.6936E+03
      0.940  0.2359E+03  0.6987E+03
      0.961  0.2294E+03  0.7036E+03
      0.983  0.2332E+03  0.7086E+03
      1.004  0.2435E+03  0.7139E+03
      1.026  0.2332E+03  0.7189E+03
      1.047  0.2141E+03  0.7235E+03
      1.069  0.2046E+03  0.7279E+03
      1.090  0.2027E+03  0.7323E+03
      1.112  0.2097E+03  0.7368E+03
      1.133  0.2223E+03  0.7416E+03
      1.155  0.2312E+03  0.7465E+03
      1.177  0.2313E+03  0.7515E+03
      1.198  0.2271E+03  0.7564E+03
      1.220  0.2275E+03  0.7613E+03
      1.241  0.2309E+03  0.7663E+03
      1.263  0.2228E+03  0.7711E+03
      1.284  0.2159E+03  0.7757E+03
      1.306  0.2163E+03  0.7804E+03
      1.327  0.2165E+03  0.7850E+03
      1.349  0.2255E+03  0.7899E+03
      1.370  0.2340E+03  0.7949E+03
      1.392  0.2280E+03  0.7998E+03
      1.413  0.2204E+03  0.8046E+03
      1.435  0.2167E+03  0.8092E+03
      1.456  0.2156E+03  0.8139E+03
      1.478  0.2166E+03  0.8185E+03
      1.499  0.2217E+03  0.8233E+03
      1.521  0.2210E+03  0.8281E+03
      1.542  0.2104E+03  0.8326E+03
      1.564  0.2043E+03  0.8370E+03
      1.585  0.2075E+03  0.8415E+03
      1.607  0.2142E+03  0.8461E+03
      1.629  0.2138E+03  0.8507E+03
      1.650  0.2034E+03  0.8551E+03
      1.672  0.1998E+03  0.8594E+03
      1.693  0.2029E+03  0.8637E+03
      1.715  0.2005E+03  0.8680E+03
      1.736  0.1944E+03  0.8722E+03
      1.758  0.1832E+03  0.8762E+03
      1.779  0.1775E+03  0.8800E+03
      1.801  0.1820E+03  0.8839E+03
      1.822  0.1889E+03  0.8880E+03
      1.844  0.1979E+03  0.8922E+03
      1.865  0.1981E+03  0.8965E+03
      1.887  0.1860E+03  0.9005E+03
      1.908  0.1714E+03  0.9042E+03
      1.930  0.1634E+03  0.9077E+03
      1.951  0.1633E+03  0.9112E+03
      1.973  0.1701E+03  0.9149E+03
      1.994  0.1688E+03  0.9185E+03
      2.016  0.1554E+03  0.9219E+03
      2.037  0.1585E+03  0.9253E+03
      2.059  0.1784E+03  0.9291E+03
      2.081  0.1814E+03  0.9330E+03
      2.102  0.1654E+03  0.9366E+03
      2.124  0.1526E+03  0.9399E+03
      2.145  0.1536E+03  0.9432E+03
      2.167  0.1637E+03  0.9467E+03
      2.188  0.1602E+03  0.9501E+03
      2.210  0.1508E+03  0.9534E+03
      2.231  0.1548E+03  0.9567E+03
      2.253  0.1636E+03  0.9602E+03
      2.274  0.1650E+03  0.9638E+03
      2.296  0.1549E+03  0.9671E+03
      2.317  0.1464E+03  0.9703E+03
      2.339  0.1494E+03  0.9735E+03
      2.360  0.1497E+03  0.9767E+03
      2.382  0.1456E+03  0.9798E+03
      2.403  0.1464E+03  0.9830E+03
      2.425  0.1418E+03  0.9860E+03
      2.446  0.1388E+03  0.9890E+03
      2.468  0.1420E+03  0.9921E+03
      2.489  0.1385E+03  0.9951E+03
      2.511  0.1283E+03  0.9978E+03
      2.532  0.1164E+03  0.1000E+04
      2.554  0.1074E+03  0.1003E+04
      2.576  0.1058E+03  0.1005E+04
      2.597  0.9986E+02  0.1007E+04
      2.619  0.7936E+02  0.1009E+04
      2.640  0.4284E+02  0.1010E+04
      2.662  0.1214E+02  0.1010E+04
      2.683  0.1531E+01  0.1010E+04
      2.705  0.7900E-01  0.1010E+04
      2.726  0.1596E-02  0.1010E+04
      2.748  0.1228E-04  0.1010E+04
      2.769  0.3544E-07  0.1010E+04
      2.791  0.3788E-10  0.1010E+04
      2.812  0.1547E-13  0.1010E+04
      2.834  0.0000E+00  0.1010E+04
      2.855  0.0000E+00  0.1010E+04
      2.877  0.0000E+00  0.1010E+04
      2.898  0.0000E+00  0.1010E+04
      2.920  0.0000E+00  0.1010E+04
