       N       E                     dE             d eps       ncg     rms          rms(c)
DAV:   1    -0.282814947327E+03   -0.28281E+03   -0.11907E+05  4040   0.647E+02
DAV:   2    -0.866288060626E+03   -0.58347E+03   -0.53298E+03  4644   0.650E+01
DAV:   3    -0.910133535582E+03   -0.43845E+02   -0.40233E+02  5264   0.141E+01
DAV:   4    -0.911710947870E+03   -0.15774E+01   -0.15527E+01  4792   0.291E+00
DAV:   5    -0.911749987405E+03   -0.39040E-01   -0.38958E-01  4952   0.478E-01    0.113E+01
DAV:   6    -0.900502184051E+03    0.11248E+02   -0.16292E+01  4784   0.497E+00    0.768E+00
DAV:   7    -0.897713124495E+03    0.27891E+01   -0.13152E+01  4936   0.483E+00    0.629E+00
DAV:   8    -0.892467408031E+03    0.52457E+01   -0.75346E+00  4864   0.316E+00    0.325E+00
DAV:   9    -0.891759326028E+03    0.70808E+00   -0.43809E+00  4680   0.180E+00    0.193E+00
DAV:  10    -0.891736511672E+03    0.22814E-01   -0.15382E+00  4816   0.125E+00    0.159E+00
DAV:  11    -0.891472411577E+03    0.26410E+00   -0.59565E-01  4760   0.749E-01    0.755E-01
DAV:  12    -0.891489750333E+03   -0.17339E-01   -0.15516E-01  4808   0.402E-01    0.628E-01
DAV:  13    -0.891453717741E+03    0.36033E-01   -0.82936E-02  4856   0.311E-01    0.357E-01
DAV:  14    -0.891451985106E+03    0.17326E-02   -0.25492E-02  4768   0.164E-01    0.237E-01
DAV:  15    -0.891449972363E+03    0.20127E-02   -0.12420E-02  4848   0.131E-01    0.172E-01
DAV:  16    -0.891446775015E+03    0.31973E-02   -0.49523E-03  4776   0.792E-02    0.762E-02
DAV:  17    -0.891446641057E+03    0.13396E-03   -0.19443E-03  4416   0.372E-02    0.389E-02
DAV:  18    -0.891446635093E+03    0.59632E-05   -0.42369E-04  4808   0.217E-02    0.298E-02
DAV:  19    -0.891446577398E+03    0.57696E-04   -0.17242E-04  4784   0.155E-02    0.199E-02
DAV:  20    -0.891446531736E+03    0.45662E-04   -0.70155E-05  4632   0.908E-03    0.837E-03
DAV:  21    -0.891446528325E+03    0.34109E-05   -0.35927E-05  3424   0.480E-03
   1 F= -.89144653E+03 E0= -.89138389E+03  d E =-.125282E+00
