Li                                      
           1
   -11.070570   19.174790    0.000000
   -18.978120  -10.957023    0.000000
     0.000000    0.000000   23.220300
   Li
   504
Direct configuration=     1
   0.01685231  0.00777911  0.02137902
   0.92432421  0.05613244  0.68930238
   0.85669349  0.08151215  0.33010653
   0.78784275  0.13152016  0.00268982
   0.70034014  0.16122755  0.66912395
   0.66111471  0.18826989  0.32622900
   0.57513853  0.25316712  0.01616780
   0.48682072  0.30179601  0.66904636
   0.46308319  0.32390418  0.33858110
   0.38777377  0.37858217  0.00070121
   0.27315174  0.41813612  0.65519354
   0.21115882  0.44152474  0.33623323
   0.06567330  0.04408170  0.67603158
   0.99577231  0.07726212  0.36249321
   0.92479240  0.14788060  0.99866055
   0.85574071  0.15129965  0.68065106
   0.80247312  0.20464360  0.32444487
   0.69777616  0.26146520  0.00509225
   0.61844876  0.28492461  0.66255138
   0.58994970  0.32011931  0.34300387
   0.49852277  0.37226406  0.02105225
   0.42978752  0.41556370  0.67464948
   0.37703286  0.46920884  0.33940097
   0.29109892  0.49257685  0.97628797
   0.17957606  0.07664051  0.32675312
   0.08802327  0.11992484  0.00444278
   0.00425511  0.16113509  0.66995588
   0.94850080  0.17767902  0.32941238
   0.84374595  0.25916956  0.00120221
   0.76901645  0.29361629  0.68769664
   0.71915320  0.30978400  0.33049615
   0.62037165  0.40970093  0.98752588
   0.57916220  0.43184277  0.68159941
   0.50440037  0.44678547  0.34259058
   0.42553980  0.52502075  0.99898446
   0.36220418  0.53399033  0.65764973
   0.22567958  0.13081571  0.99673010
   0.12341295  0.18780270  0.69748517
   0.08674623  0.23372211  0.34854764
   0.97334514  0.27731196  0.00009987
   0.91934264  0.30929240  0.66381347
   0.86005898  0.30265663  0.32718766
   0.77662678  0.36981596  0.98038419
   0.71052054  0.41321512  0.66225739
   0.60279473  0.44978207  0.35666838
   0.56185684  0.50173713  0.98785720
   0.50800288  0.54950090  0.68343529
   0.43567063  0.57127770  0.32462304
   0.27633297  0.18867781  0.66767678
   0.28680294  0.23556984  0.34185632
   0.12313239  0.23928103  0.01094638
   0.05120497  0.31428000  0.65136491
   0.03248408  0.32691875  0.33260547
   0.91949517  0.37523758  0.97964854
   0.83351503  0.40868750  0.64295655
   0.75746581  0.42675261  0.32625173
   0.70649456  0.51207242  0.96634460
   0.64674154  0.54479560  0.63698945
   0.54936919  0.61405260  0.31413411
   0.47251688  0.64156434  0.01535718
   0.39391058  0.20794161  0.33275532
   0.27888020  0.25729466  0.98490513
   0.19876288  0.32255138  0.68981563
   0.15830800  0.35269536  0.33285912
   0.06412352  0.38805281  0.00632002
   0.97416847  0.42681043  0.68243509
   0.94211522  0.42810594  0.31498835
   0.86001343  0.49808487  0.99082523
   0.77512471  0.56245907  0.67181441
   0.71153749  0.58205933  0.33495523
   0.63094230  0.61677754  0.99956952
   0.56315024  0.66909703  0.66788819
   0.42033117  0.22702229  0.00428752
   0.32597183  0.30420092  0.65757527
   0.30886180  0.36690866  0.33898269
   0.23008383  0.37420638  0.00112493
   0.14779538  0.45870941  0.69001019
   0.08043144  0.46923992  0.32356743
   0.98264714  0.51848163  0.00070911
   0.93487647  0.53350787  0.66279667
   0.84737009  0.56856753  0.33630269
   0.79261539  0.64440306  0.00922060
   0.72951717  0.67364360  0.64090753
   0.65574610  0.73453775  0.32563400
   0.13136583  0.50226761  0.99469745
   0.07209753  0.54974676  0.64653210
   0.01140425  0.57800119  0.34824758
   0.92735163  0.61588385  0.00192402
   0.85110214  0.65877290  0.67720007
   0.77283482  0.69565122  0.31662931
   0.68422462  0.74124975  0.97914805
   0.22346371  0.56843674  0.64481157
   0.13073368  0.59080017  0.35107604
   0.06715309  0.62689195  0.02983195
   0.99815606  0.66742895  0.68344746
   0.92908226  0.68849834  0.34303437
   0.85597701  0.74591647  0.00555382
   0.79530910  0.78835900  0.65218734
   0.29772399  0.54824165  0.34325402
   0.18716535  0.58618206  0.02251889
   0.11835227  0.67771869  0.66330495
   0.08115547  0.68753517  0.32680266
   0.99865124  0.74847026  0.01632746
   0.92632416  0.77530218  0.68573090
   0.84133610  0.81475761  0.35148590
   0.36974448  0.63577921  0.00030596
   0.28722022  0.68121620  0.65670710
   0.21882946  0.65527938  0.35814937
   0.15736799  0.74025591  0.99482705
   0.05580589  0.79421557  0.66269896
   0.99392716  0.81884824  0.32797966
   0.93300028  0.91827879  0.00366121
   0.44719421  0.68146124  0.68654049
   0.34242091  0.68769676  0.33919311
   0.27880300  0.71981010  0.00928158
   0.20204004  0.77526552  0.65730656
   0.15709518  0.82361631  0.32585269
   0.09254688  0.87345252  0.01222796
   0.01919144  0.92405732  0.68188587
   0.91982317  0.96432716  0.33464413
   0.85807852  0.02259384  0.99928169
   0.75411638  0.04645559  0.65018461
   0.71623983  0.08766962  0.34896467
   0.64257747  0.10472161  0.99696166
   0.57222188  0.15973897  0.67643961
   0.52490584  0.17376651  0.36251465
   0.05537746  0.94949814  0.33929002
   0.13795205  0.98521590  0.02027454
   0.20381121  0.05655696  0.66128789
   0.29920720  0.10498275  0.35590807
   0.34910625  0.14412768  0.97611592
   0.40397723  0.15650743  0.65307036
   0.86841977  0.93047272  0.65930243
   0.78848051  0.96561964  0.33622602
   0.71447783  0.98930837  0.02065566
   0.63168926  0.04109068  0.65808678
   0.58878714  0.06117410  0.32149925
   0.50192795  0.10889580  0.99466370
   0.15391029  0.91076609  0.65096006
   0.22408712  0.97585783  0.32665061
   0.27651906  0.01222795  0.98347395
   0.35164819  0.05632563  0.64467750
   0.43080284  0.05996050  0.33537227
   0.76992005  0.86333270  0.00494237
   0.71751084  0.89059250  0.64925939
   0.66265509  0.94945307  0.32647780
   0.54680921  0.96041207  0.98095860
   0.49333610  0.02900858  0.66984820
   0.22631908  0.86488557  0.00298481
   0.28610820  0.93246499  0.66613698
   0.36436532  0.96464282  0.32763615
   0.40279934  0.99267275  0.96856778
   0.73780181  0.83084691  0.31733999
   0.65268548  0.85947673  0.97215906
   0.55383616  0.91844545  0.65971275
   0.53387442  0.95792119  0.31922150
   0.28351942  0.83324958  0.32340610
   0.33946108  0.85968606  0.99938108
   0.41919996  0.93876423  0.66269693
   0.62964742  0.75872695  0.63861846
   0.59092890  0.83460325  0.35957445
   0.49378064  0.85377897  0.00553344
   0.36948443  0.80660983  0.67097763
   0.44742611  0.82971798  0.34039625
   0.57822046  0.74537242  0.99204699
   0.50408609  0.82003325  0.65901342
   0.45641898  0.76712321  0.00855187
   0.52074300  0.73458839  0.33311495
   0.96213867  0.98819574  0.78264010
   0.94325438  0.03094736  0.45587769
   0.86557734  0.09031855  0.08947252
   0.79336217  0.11325025  0.79948361
   0.72551572  0.17207877  0.42836548
   0.65370860  0.20522979  0.12491833
   0.53880055  0.26030091  0.78919889
   0.50203492  0.24778972  0.44193507
   0.44387873  0.32670531  0.12806631
   0.33727520  0.35915282  0.77618112
   0.29478063  0.42829264  0.44340944
   0.19782189  0.46331465  0.08594935
   0.07956234  0.05220413  0.46049572
   0.01401303  0.08808365  0.11678221
   0.93142676  0.15098795  0.79824262
   0.88172884  0.17743047  0.44794594
   0.79123270  0.20408107  0.09328982
   0.71340627  0.23398690  0.77365566
   0.64926236  0.29393367  0.44996157
   0.59765513  0.34974950  0.12644230
   0.49021153  0.39519894  0.79301400
   0.44477505  0.41419789  0.45611445
   0.37468919  0.44407137  0.09060447
   0.26732982  0.50276242  0.76898445
   0.16339668  0.10102461  0.09726031
   0.02585950  0.10295662  0.79234707
   0.01024964  0.18862144  0.45216193
   0.94744286  0.19841366  0.11191386
   0.85053349  0.24729316  0.78105269
   0.79215832  0.29175554  0.47072071
   0.69739451  0.35213638  0.10675777
   0.66067989  0.34413293  0.78921961
   0.55772318  0.38106481  0.45746222
   0.50876459  0.47371960  0.10469135
   0.40824477  0.48511907  0.78435385
   0.37310578  0.56854115  0.44180668
   0.19542138  0.13936899  0.76861093
   0.18698342  0.18265205  0.43938630
   0.08923323  0.23071690  0.10142711
   0.97576912  0.25664971  0.77898505
   0.94619315  0.29984422  0.44020547
   0.86842011  0.31447515  0.11407175
   0.79666834  0.36193204  0.77882390
   0.69768934  0.42011468  0.42106308
   0.63153477  0.45813054  0.08443680
   0.56488339  0.49950413  0.77428513
   0.49441650  0.52495100  0.43733963
   0.39716336  0.59104950  0.12534400
   0.32033123  0.16363947  0.48331722
   0.21703131  0.21271752  0.12631157
   0.09950283  0.26435068  0.79777725
   0.06663780  0.29703949  0.45747575
   0.99158708  0.34223421  0.11196899
   0.91000950  0.38404791  0.77672159
   0.84696702  0.42675943  0.41840389
   0.77825447  0.44351114  0.08064488
   0.70220515  0.48536852  0.77590195
   0.64459702  0.53939543  0.44352962
   0.56064150  0.61277982  0.08635748
   0.47957861  0.62920802  0.79362052
   0.37632957  0.18963518  0.10096428
   0.26522836  0.25591124  0.78154261
   0.24121752  0.29533454  0.46511777
   0.13396585  0.34450750  0.10517105
   0.05667894  0.38131549  0.79980114
   0.00157414  0.42980760  0.43675526
   0.96007708  0.44341018  0.11890190
   0.86748620  0.48521710  0.77864193
   0.79744120  0.54720321  0.46155495
   0.71049820  0.59678367  0.11216434
   0.64439329  0.62254100  0.77846172
   0.56002811  0.65908517  0.43027397
   0.40240436  0.25578986  0.76925055
   0.37129870  0.27271813  0.41787883
   0.31774690  0.34617928  0.10679069
   0.22402647  0.37909646  0.78818898
   0.12839435  0.43001440  0.44346465
   0.06604815  0.46662885  0.09353957
   0.01572347  0.53934997  0.77839213
   0.92662006  0.55712855  0.42850671
   0.85342005  0.55472659  0.11266025
   0.77471568  0.62884766  0.78085434
   0.68835525  0.68146685  0.43310343
   0.66019113  0.72270980  0.09001380
   0.13611583  0.51402921  0.76489244
   0.07163560  0.51545940  0.44828906
   0.98424964  0.59184209  0.13108013
   0.90583656  0.61818761  0.76890739
   0.86254142  0.67064310  0.43651950
   0.78370428  0.72941369  0.10642686
   0.70499870  0.74738441  0.74581681
   0.19810233  0.55788130  0.42208663
   0.11437222  0.58356707  0.11821135
   0.07287065  0.64024732  0.78469345
   0.01105039  0.63641597  0.45927768
   0.92951109  0.70000563  0.12780069
   0.86065491  0.73737634  0.78835955
   0.76007024  0.76200197  0.44412791
   0.27325481  0.57438873  0.12276194
   0.21753653  0.63909795  0.78362527
   0.13083911  0.67383211  0.47756727
   0.06220272  0.70347088  0.12804116
   0.01028588  0.77148346  0.80145352
   0.92253581  0.78717935  0.45300364
   0.87291537  0.83806865  0.09892653
   0.34896111  0.60800598  0.75855270
   0.30818254  0.66803049  0.47714726
   0.22679812  0.72845243  0.11180445
   0.15203967  0.76922786  0.78465713
   0.07286380  0.80097589  0.45097674
   0.01822287  0.85390421  0.13644877
   0.93067531  0.87619406  0.77096198
   0.45118220  0.66642974  0.43909380
   0.35760036  0.72545557  0.12497074
   0.31401779  0.76278697  0.77570656
   0.21924530  0.79066314  0.46866528
   0.15609018  0.85274196  0.16455617
   0.05820400  0.88382936  0.77267175
   0.00740439  0.90534962  0.45540700
   0.92085364  0.97097283  0.12421432
   0.84767056  0.00772373  0.77901893
   0.79737473  0.05429548  0.44975059
   0.74102375  0.06798785  0.10974543
   0.62261081  0.14105043  0.77840558
   0.58785296  0.13142618  0.45285767
   0.52528194  0.19850712  0.09638814
   0.10483667  0.97428464  0.11741348
   0.15039964  0.00618536  0.77401818
   0.20939569  0.04321563  0.45000518
   0.31257798  0.08027142  0.10184805
   0.37661082  0.14657013  0.77992950
   0.45131469  0.15536127  0.44066170
   0.85948241  0.91221862  0.44733283
   0.79968978  0.94667117  0.12994186
   0.70966120  0.01720117  0.76768907
   0.64972120  0.00869940  0.40157795
   0.58756681  0.07520810  0.11471360
   0.48338002  0.14265244  0.77823225
   0.13470768  0.93291424  0.42925892
   0.23450473  0.96012960  0.11361771
   0.28443059  0.04050217  0.78227571
   0.37786062  0.04683104  0.43165159
   0.45552004  0.08262179  0.09731419
   0.78316639  0.87737240  0.76183063
   0.72878354  0.89952840  0.44737840
   0.67701034  0.95615409  0.09132757
   0.54743300  0.01195808  0.76875799
   0.51133374  0.05827979  0.42047069
   0.22542442  0.86240443  0.76815624
   0.29337396  0.92081180  0.42719731
   0.35669555  0.95312612  0.10091100
   0.40717292  0.02360078  0.78847936
   0.74332634  0.83614367  0.10870592
   0.64498470  0.89821541  0.76233563
   0.54990222  0.89946099  0.43617453
   0.50528729  0.95030350  0.09622604
   0.30440219  0.84576487  0.12210927
   0.36182979  0.88118735  0.79757498
   0.40514136  0.90614792  0.41495969
   0.64934652  0.78799172  0.43725968
   0.58848512  0.84526389  0.09824292
   0.49903436  0.88178481  0.77462709
   0.34981914  0.77858699  0.43524873
   0.44221402  0.82968447  0.12870101
   0.55760257  0.76274056  0.75670401
   0.52501975  0.79381406  0.44334117
   0.43712062  0.74563027  0.78503950
   0.50167427  0.70462501  0.10034304
   0.02376936  0.99418017  0.25378706
   0.93081752  0.06117552  0.89755254
   0.83006879  0.07477048  0.55757770
   0.78366952  0.11775078  0.21995295
   0.72010132  0.16122988  0.88609413
   0.63947159  0.19510357  0.55785851
   0.57539711  0.25070164  0.23535845
   0.46840264  0.28046531  0.89517392
   0.41394523  0.33688500  0.55779301
   0.39053787  0.37768798  0.24022039
   0.27199335  0.40385100  0.86943536
   0.17694528  0.45976081  0.55863668
   0.04503656  0.06563935  0.88602691
   0.01603054  0.08070658  0.57658694
   0.94306704  0.11609294  0.21807779
   0.88103367  0.17812174  0.88920297
   0.78733515  0.19272841  0.54224709
   0.72309767  0.22780489  0.23091877
   0.63798271  0.28655478  0.90524563
   0.57204942  0.31350546  0.58154790
   0.52338738  0.40069217  0.22538425
   0.42579752  0.39720590  0.91924653
   0.34986045  0.46841389  0.55649405
   0.26808410  0.47835212  0.20633662
   0.15798217  0.08295423  0.55951183
   0.07044332  0.11842000  0.23041849
   0.99292557  0.18330436  0.88372862
   0.92939975  0.19968162  0.56687326
   0.87192200  0.22612960  0.21538608
   0.76626887  0.28794132  0.87375578
   0.68751203  0.32302028  0.55337163
   0.66645520  0.38487264  0.22447027
   0.56272480  0.40433717  0.90722087
   0.50594542  0.45582953  0.56448374
   0.44257850  0.51299541  0.21555713
   0.32841530  0.51915394  0.88350859
   0.25172053  0.10971093  0.23359380
   0.12454596  0.17619060  0.88336938
   0.09801478  0.20058714  0.56536117
   0.99601595  0.24365556  0.22394610
   0.90230254  0.30578093  0.89338998
   0.84002726  0.33755181  0.54429972
   0.79642662  0.36424645  0.19996471
   0.71247307  0.41960651  0.85840655
   0.64890468  0.46431431  0.54213390
   0.56443097  0.50861571  0.20614469
   0.48960092  0.55028285  0.87302828
   0.44632697  0.57935147  0.56767816
   0.25576768  0.14448672  0.89253857
   0.21756901  0.19339814  0.56311740
   0.15994564  0.23518364  0.23888145
   0.06082758  0.29950322  0.89662785
   0.98552010  0.31784307  0.55861189
   0.94702980  0.39083409  0.21755565
   0.84575634  0.40591028  0.89931416
   0.77265647  0.44362277  0.56091737
   0.69703647  0.48574165  0.22139995
   0.62239787  0.51785948  0.86738098
   0.56207868  0.59240965  0.54570178
   0.49937348  0.61581556  0.22842580
   0.36575478  0.21166501  0.53551690
   0.33702740  0.25944155  0.20409927
   0.19721188  0.28732237  0.87594563
   0.15781057  0.34220711  0.57500325
   0.08828805  0.36664778  0.21757165
   0.98189121  0.45015737  0.89828404
   0.89307800  0.43699948  0.52158882
   0.83318519  0.48158140  0.21254112
   0.78781601  0.54303266  0.86039393
   0.72508595  0.59277670  0.54247026
   0.63705798  0.63066591  0.21768860
   0.56247145  0.65486214  0.90738257
   0.44412456  0.25198406  0.19956474
   0.35626681  0.26562774  0.88797568
   0.28342461  0.34907532  0.55266158
   0.21757958  0.36607803  0.19789081
   0.12468308  0.43121324  0.88582252
   0.04554230  0.44954242  0.58520085
   0.99487102  0.48891409  0.21955300
   0.93130878  0.55715712  0.89561187
   0.86118237  0.59177427  0.56050138
   0.75335338  0.60708153  0.19877299
   0.68987737  0.65273041  0.88835308
   0.64072147  0.70168477  0.54085348
   0.14788937  0.49685709  0.22129790
   0.07712542  0.56015499  0.89585893
   0.98814320  0.57256711  0.53003777
   0.89946734  0.62935779  0.24369377
   0.85101760  0.68465236  0.91034684
   0.76405047  0.71571041  0.55598725
   0.71454133  0.74813860  0.21729601
   0.21596926  0.55484263  0.86789063
   0.13381212  0.56660260  0.53722303
   0.05869069  0.61188446  0.22682905
   0.98307104  0.68264774  0.90375705
   0.93992317  0.71268929  0.58610034
   0.86579966  0.76862556  0.23428330
   0.74061184  0.81190170  0.88168504
   0.26884952  0.58638485  0.54760022
   0.21479178  0.61549809  0.22927217
   0.12053359  0.67230017  0.87697528
   0.06876952  0.71525260  0.56140890
   0.99522354  0.73624689  0.23616236
   0.91985014  0.80787408  0.90813168
   0.82606889  0.81111330  0.53869284
   0.35914051  0.61365576  0.23329050
   0.26962276  0.65364578  0.88132217
   0.21644253  0.71558243  0.54283131
   0.15293931  0.74446691  0.23175303
   0.05904529  0.81382865  0.89935245
   0.95831466  0.86453343  0.57771719
   0.92516268  0.88645617  0.21539799
   0.40941330  0.64751235  0.89367858
   0.36921028  0.72902455  0.55683728
   0.27531041  0.76478941  0.22214926
   0.20629647  0.79347695  0.90425482
   0.11151631  0.84403618  0.53511526
   0.06353642  0.86775722  0.22759331
   0.00041094  0.92048956  0.89578469
   0.91619791  0.96900908  0.56800212
   0.86920660  0.02046020  0.21821393
   0.79854951  0.03483981  0.91113476
   0.70398697  0.08434977  0.56199023
   0.65875655  0.10038645  0.21060929
   0.58727395  0.17669733  0.89015081
   0.53988962  0.18296277  0.57562800
   0.07535246  0.94742165  0.55813531
   0.15235318  0.96693096  0.22813042
   0.19137787  0.05815596  0.90068178
   0.27528424  0.08327956  0.56554424
   0.37735216  0.12730703  0.23749519
   0.42690913  0.16607785  0.87894337
   0.87637038  0.93681808  0.89464043
   0.78637310  0.93712540  0.54235763
   0.71028197  0.01082474  0.21824345
   0.62777210  0.04748446  0.90535986
   0.57287694  0.04464929  0.54881550
   0.51813481  0.13168529  0.24220569
   0.14436053  0.92310676  0.88982465
   0.21805088  0.95655354  0.55052193
   0.30216059  0.01153928  0.21359079
   0.35043017  0.02822991  0.87979942
   0.43583316  0.07277791  0.55470770
   0.81704581  0.88525608  0.22223050
   0.74043062  0.94031201  0.88350961
   0.63510595  0.93517018  0.55074320
   0.57218918  0.96872396  0.20316837
   0.47920318  0.06182749  0.88417148
   0.23103164  0.87378998  0.22511139
   0.29187634  0.90166460  0.87300481
   0.35456071  0.95011377  0.55667045
   0.42733687  0.99747037  0.20364980
   0.70225565  0.81706907  0.53620553
   0.65941777  0.87663671  0.20850053
   0.58282629  0.88764181  0.89252638
   0.49254245  0.97206651  0.53159178
   0.29516911  0.83295799  0.55975110
   0.37074608  0.87262859  0.21669792
   0.45182672  0.88367232  0.91739129
   0.62397442  0.80609598  0.85783998
   0.57887196  0.82795851  0.56155215
   0.51801055  0.85223695  0.22964789
   0.34142978  0.76967803  0.90752443
   0.43084642  0.84961850  0.53311745
   0.58463710  0.74587912  0.23342138
   0.50730106  0.78884675  0.88963961
   0.43310795  0.73959477  0.21286236
   0.49703609  0.71218725  0.54853801
