 432 432   0   0
  0.1857636E+02  0.2002080E-08  0.2002080E-08  0.2002080E-08  0.5000000E-15
  1.000000000000000E-004
  CAR 
 Li                                      
      4.11982363     -3.33598748  301      0.65136043      1.00000000
     -3.336  0.0000E+00  0.0000E+00
     -3.311  0.0000E+00  0.0000E+00
     -3.286  0.0000E+00  0.0000E+00
     -3.261  0.0000E+00  0.0000E+00
     -3.237  0.0000E+00  0.0000E+00
     -3.212  0.0000E+00  0.0000E+00
     -3.187  0.0000E+00  0.0000E+00
     -3.162  0.2971E-12  0.7383E-14
     -3.137  0.1586E-08  0.3942E-10
     -3.112  0.2207E-05  0.5489E-07
     -3.087  0.8090E-03  0.2016E-04
     -3.063  0.7931E-01  0.1991E-02
     -3.038  0.2127E+01  0.5486E-01
     -3.013  0.1607E+02  0.4542E+00
     -2.988  0.3515E+02  0.1328E+01
     -2.963  0.2259E+02  0.1889E+01
     -2.938  0.4325E+01  0.1997E+01
     -2.913  0.2988E+01  0.2071E+01
     -2.889  0.2543E+02  0.2703E+01
     -2.864  0.8100E+02  0.4716E+01
     -2.839  0.9190E+02  0.7000E+01
     -2.814  0.3568E+02  0.7887E+01
     -2.789  0.5039E+01  0.8012E+01
     -2.764  0.1028E+02  0.8268E+01
     -2.740  0.5359E+02  0.9599E+01
     -2.715  0.9912E+02  0.1206E+02
     -2.690  0.6362E+02  0.1364E+02
     -2.665  0.1360E+02  0.1398E+02
     -2.640  0.5126E+01  0.1411E+02
     -2.615  0.3627E+02  0.1501E+02
     -2.590  0.1091E+03  0.1772E+02
     -2.566  0.1198E+03  0.2070E+02
     -2.541  0.4629E+02  0.2185E+02
     -2.516  0.7975E+01  0.2205E+02
     -2.491  0.2570E+02  0.2269E+02
     -2.466  0.1091E+03  0.2540E+02
     -2.441  0.1828E+03  0.2994E+02
     -2.416  0.1260E+03  0.3307E+02
     -2.392  0.3411E+02  0.3392E+02
     -2.367  0.6138E+01  0.3407E+02
     -2.342  0.2889E+02  0.3479E+02
     -2.317  0.8850E+02  0.3699E+02
     -2.292  0.8860E+02  0.3919E+02
     -2.267  0.2932E+02  0.3992E+02
     -2.242  0.5137E+01  0.4005E+02
     -2.218  0.2524E+02  0.4068E+02
     -2.193  0.1097E+03  0.4340E+02
     -2.168  0.1841E+03  0.4798E+02
     -2.143  0.1251E+03  0.5109E+02
     -2.118  0.3443E+02  0.5194E+02
     -2.093  0.1970E+02  0.5243E+02
     -2.068  0.9709E+02  0.5484E+02
     -2.044  0.2257E+03  0.6045E+02
     -2.019  0.2395E+03  0.6641E+02
     -1.994  0.1186E+03  0.6935E+02
     -1.969  0.2508E+02  0.6998E+02
     -1.944  0.1351E+02  0.7031E+02
     -1.919  0.5364E+02  0.7165E+02
     -1.895  0.9486E+02  0.7400E+02
     -1.870  0.6421E+02  0.7560E+02
     -1.845  0.1592E+02  0.7600E+02
     -1.820  0.1679E+02  0.7641E+02
     -1.795  0.8943E+02  0.7864E+02
     -1.770  0.1959E+03  0.8351E+02
     -1.745  0.1813E+03  0.8801E+02
     -1.721  0.6976E+02  0.8974E+02
     -1.696  0.1447E+02  0.9010E+02
     -1.671  0.4448E+02  0.9121E+02
     -1.646  0.1603E+03  0.9519E+02
     -1.621  0.2541E+03  0.1015E+03
     -1.596  0.1900E+03  0.1062E+03
     -1.571  0.6301E+02  0.1078E+03
     -1.547  0.1287E+02  0.1081E+03
     -1.522  0.4402E+02  0.1092E+03
     -1.497  0.1388E+03  0.1127E+03
     -1.472  0.1764E+03  0.1170E+03
     -1.447  0.9651E+02  0.1194E+03
     -1.422  0.2924E+02  0.1202E+03
     -1.397  0.6560E+02  0.1218E+03
     -1.373  0.1910E+03  0.1265E+03
     -1.348  0.2535E+03  0.1328E+03
     -1.323  0.1598E+03  0.1368E+03
     -1.298  0.4533E+02  0.1379E+03
     -1.273  0.3168E+02  0.1387E+03
     -1.248  0.1248E+03  0.1418E+03
     -1.224  0.2420E+03  0.1479E+03
     -1.199  0.2209E+03  0.1533E+03
     -1.174  0.9125E+02  0.1556E+03
     -1.149  0.1917E+02  0.1561E+03
     -1.124  0.3802E+02  0.1570E+03
     -1.099  0.1242E+03  0.1601E+03
     -1.074  0.1757E+03  0.1645E+03
     -1.050  0.1107E+03  0.1672E+03
     -1.025  0.2898E+02  0.1680E+03
     -1.000  0.1433E+02  0.1683E+03
     -0.975  0.6281E+02  0.1699E+03
     -0.950  0.1308E+03  0.1731E+03
     -0.925  0.1452E+03  0.1767E+03
     -0.900  0.1021E+03  0.1793E+03
     -0.876  0.7429E+02  0.1811E+03
     -0.851  0.1696E+03  0.1853E+03
     -0.826  0.2895E+03  0.1925E+03
     -0.801  0.3129E+03  0.2003E+03
     -0.776  0.2456E+03  0.2064E+03
     -0.751  0.1226E+03  0.2095E+03
     -0.726  0.7746E+02  0.2114E+03
     -0.702  0.1683E+03  0.2156E+03
     -0.677  0.2280E+03  0.2212E+03
     -0.652  0.1727E+03  0.2255E+03
     -0.627  0.8047E+02  0.2275E+03
     -0.602  0.2390E+02  0.2281E+03
     -0.577  0.5061E+02  0.2294E+03
     -0.552  0.1570E+03  0.2333E+03
     -0.528  0.2074E+03  0.2384E+03
     -0.503  0.1167E+03  0.2413E+03
     -0.478  0.3873E+02  0.2423E+03
     -0.453  0.8848E+02  0.2445E+03
     -0.428  0.2294E+03  0.2502E+03
     -0.403  0.3007E+03  0.2577E+03
     -0.379  0.2325E+03  0.2634E+03
     -0.354  0.1257E+03  0.2666E+03
     -0.329  0.1036E+03  0.2691E+03
     -0.304  0.8329E+02  0.2712E+03
     -0.279  0.2879E+02  0.2719E+03
     -0.254  0.1049E+02  0.2722E+03
     -0.229  0.5340E+02  0.2735E+03
     -0.205  0.1640E+03  0.2776E+03
     -0.180  0.2511E+03  0.2838E+03
     -0.155  0.2458E+03  0.2899E+03
     -0.130  0.1778E+03  0.2944E+03
     -0.105  0.1124E+03  0.2971E+03
     -0.080  0.1411E+03  0.3007E+03
     -0.055  0.1986E+03  0.3056E+03
     -0.031  0.2222E+03  0.3111E+03
     -0.006  0.2200E+03  0.3166E+03
      0.019  0.2097E+03  0.3218E+03
      0.044  0.2148E+03  0.3271E+03
      0.069  0.1653E+03  0.3312E+03
      0.094  0.1118E+03  0.3340E+03
      0.119  0.1109E+03  0.3368E+03
      0.143  0.1122E+03  0.3396E+03
      0.168  0.1282E+03  0.3428E+03
      0.193  0.1385E+03  0.3462E+03
      0.218  0.2107E+03  0.3514E+03
      0.243  0.2953E+03  0.3588E+03
      0.268  0.3228E+03  0.3668E+03
      0.293  0.2816E+03  0.3738E+03
      0.317  0.1803E+03  0.3783E+03
      0.342  0.8388E+02  0.3804E+03
      0.367  0.1126E+03  0.3832E+03
      0.392  0.2152E+03  0.3885E+03
      0.417  0.2494E+03  0.3947E+03
      0.442  0.2088E+03  0.3999E+03
      0.466  0.1288E+03  0.4031E+03
      0.491  0.7559E+02  0.4050E+03
      0.516  0.1043E+03  0.4076E+03
      0.541  0.1400E+03  0.4110E+03
      0.566  0.1816E+03  0.4156E+03
      0.591  0.2093E+03  0.4208E+03
      0.616  0.1882E+03  0.4254E+03
      0.640  0.1768E+03  0.4298E+03
      0.665  0.2109E+03  0.4351E+03
      0.690  0.2446E+03  0.4411E+03
      0.715  0.2553E+03  0.4475E+03
      0.740  0.2285E+03  0.4532E+03
      0.765  0.1832E+03  0.4577E+03
      0.790  0.1602E+03  0.4617E+03
      0.814  0.1478E+03  0.4654E+03
      0.839  0.1379E+03  0.4688E+03
      0.864  0.1490E+03  0.4725E+03
      0.889  0.1913E+03  0.4773E+03
      0.914  0.2225E+03  0.4828E+03
      0.939  0.2207E+03  0.4883E+03
      0.964  0.2289E+03  0.4940E+03
      0.988  0.2617E+03  0.5005E+03
      1.013  0.2884E+03  0.5076E+03
      1.038  0.2881E+03  0.5148E+03
      1.063  0.2634E+03  0.5213E+03
      1.088  0.2328E+03  0.5271E+03
      1.113  0.2113E+03  0.5324E+03
      1.137  0.2135E+03  0.5377E+03
      1.162  0.2357E+03  0.5435E+03
      1.187  0.2484E+03  0.5497E+03
      1.212  0.2458E+03  0.5558E+03
      1.237  0.2422E+03  0.5618E+03
      1.262  0.2215E+03  0.5673E+03
      1.287  0.1973E+03  0.5723E+03
      1.311  0.1905E+03  0.5770E+03
      1.336  0.2226E+03  0.5825E+03
      1.361  0.2562E+03  0.5889E+03
      1.386  0.2604E+03  0.5954E+03
      1.411  0.2426E+03  0.6014E+03
      1.436  0.2221E+03  0.6069E+03
      1.461  0.2133E+03  0.6122E+03
      1.485  0.2063E+03  0.6173E+03
      1.510  0.1785E+03  0.6218E+03
      1.535  0.1631E+03  0.6258E+03
      1.560  0.1803E+03  0.6303E+03
      1.585  0.1938E+03  0.6351E+03
      1.610  0.2021E+03  0.6401E+03
      1.635  0.1988E+03  0.6451E+03
      1.659  0.1586E+03  0.6490E+03
      1.684  0.9310E+02  0.6513E+03
      1.709  0.5860E+02  0.6528E+03
      1.734  0.9373E+02  0.6551E+03
      1.759  0.1344E+03  0.6585E+03
      1.784  0.1258E+03  0.6616E+03
      1.809  0.8771E+02  0.6638E+03
      1.833  0.9530E+02  0.6661E+03
      1.858  0.1551E+03  0.6700E+03
      1.883  0.1900E+03  0.6747E+03
      1.908  0.2061E+03  0.6798E+03
      1.933  0.2057E+03  0.6850E+03
      1.958  0.1719E+03  0.6892E+03
      1.982  0.1223E+03  0.6923E+03
      2.007  0.7278E+02  0.6941E+03
      2.032  0.8829E+02  0.6963E+03
      2.057  0.1560E+03  0.7002E+03
      2.082  0.1787E+03  0.7046E+03
      2.107  0.1664E+03  0.7087E+03
      2.132  0.1661E+03  0.7129E+03
      2.156  0.1833E+03  0.7174E+03
      2.181  0.1883E+03  0.7221E+03
      2.206  0.1869E+03  0.7267E+03
      2.231  0.1923E+03  0.7315E+03
      2.256  0.2008E+03  0.7365E+03
      2.281  0.1984E+03  0.7414E+03
      2.306  0.1868E+03  0.7461E+03
      2.330  0.1618E+03  0.7501E+03
      2.355  0.1413E+03  0.7536E+03
      2.380  0.1408E+03  0.7571E+03
      2.405  0.1546E+03  0.7610E+03
      2.430  0.1637E+03  0.7650E+03
      2.455  0.1617E+03  0.7690E+03
      2.480  0.1574E+03  0.7730E+03
      2.504  0.1401E+03  0.7764E+03
      2.529  0.1164E+03  0.7793E+03
      2.554  0.1012E+03  0.7818E+03
      2.579  0.7792E+02  0.7838E+03
      2.604  0.7589E+02  0.7857E+03
      2.629  0.1046E+03  0.7883E+03
      2.654  0.1048E+03  0.7909E+03
      2.678  0.8963E+02  0.7931E+03
      2.703  0.7120E+02  0.7949E+03
      2.728  0.3625E+02  0.7958E+03
      2.753  0.8712E+01  0.7960E+03
      2.778  0.4348E+01  0.7961E+03
      2.803  0.2805E+02  0.7968E+03
      2.827  0.7680E+02  0.7987E+03
      2.852  0.8363E+02  0.8008E+03
      2.877  0.4022E+02  0.8018E+03
      2.902  0.8368E+01  0.8020E+03
      2.927  0.6605E+00  0.8020E+03
      2.952  0.1815E-01  0.8020E+03
      2.977  0.8555E-01  0.8020E+03
      3.001  0.2365E+01  0.8021E+03
      3.026  0.2107E+02  0.8026E+03
      3.051  0.6886E+02  0.8043E+03
      3.076  0.1037E+03  0.8069E+03
      3.101  0.1034E+03  0.8094E+03
      3.126  0.9700E+02  0.8119E+03
      3.151  0.9002E+02  0.8141E+03
      3.175  0.8430E+02  0.8162E+03
      3.200  0.6271E+02  0.8177E+03
      3.225  0.5708E+02  0.8192E+03
      3.250  0.9302E+02  0.8215E+03
      3.275  0.1114E+03  0.8242E+03
      3.300  0.1260E+03  0.8274E+03
      3.325  0.1522E+03  0.8312E+03
      3.349  0.1716E+03  0.8354E+03
      3.374  0.1562E+03  0.8393E+03
      3.399  0.1082E+03  0.8420E+03
      3.424  0.8537E+02  0.8441E+03
      3.449  0.7924E+02  0.8461E+03
      3.474  0.5444E+02  0.8474E+03
      3.499  0.2018E+02  0.8479E+03
      3.523  0.7723E+01  0.8481E+03
      3.548  0.2706E+02  0.8488E+03
      3.573  0.5681E+02  0.8502E+03
      3.598  0.6134E+02  0.8517E+03
      3.623  0.6171E+02  0.8533E+03
      3.648  0.8580E+02  0.8554E+03
      3.672  0.1096E+03  0.8581E+03
      3.697  0.9872E+02  0.8606E+03
      3.722  0.5431E+02  0.8619E+03
      3.747  0.4198E+02  0.8630E+03
      3.772  0.6082E+02  0.8645E+03
      3.797  0.4590E+02  0.8656E+03
      3.822  0.1366E+02  0.8660E+03
      3.846  0.1402E+01  0.8660E+03
      3.871  0.4435E-01  0.8660E+03
      3.896  0.4020E-03  0.8660E+03
      3.921  0.9994E-06  0.8660E+03
      3.946  0.6647E-09  0.8660E+03
      3.971  0.1161E-12  0.8660E+03
      3.996  0.0000E+00  0.8660E+03
      4.020  0.0000E+00  0.8660E+03
      4.045  0.0000E+00  0.8660E+03
      4.070  0.0000E+00  0.8660E+03
      4.095  0.0000E+00  0.8660E+03
      4.120  0.0000E+00  0.8660E+03
