Li                                      
           1
    20.020800    0.000000    0.000000
     0.000000   20.020800    0.000000
     0.000000    0.000000   20.020800
   Li
   432
Direct configuration=     1
   0.99715738  0.00523552  0.99330183
   0.90446702  0.08406577  0.07455362
   0.83600343  0.17969978  0.15395084
   0.74801413  0.24585578  0.25371633
   0.65250701  0.32740607  0.33430214
   0.56363199  0.42723984  0.42505335
   0.49368195  0.50454848  0.49298932
   0.42370605  0.59573030  0.58288396
   0.33381226  0.66358427  0.64103355
   0.25511802  0.74355171  0.75731093
   0.16650213  0.82995509  0.83474446
   0.06907368  0.90958616  0.92505283
   0.08421277  0.92436853  0.08970664
   0.99522103  0.01135236  0.16029591
   0.91651917  0.08622666  0.24558128
   0.83887652  0.15744510  0.32971528
   0.74366243  0.23783724  0.40014558
   0.65235582  0.31757890  0.50088512
   0.57685824  0.40986795  0.57384439
   0.49629495  0.49326347  0.65947068
   0.40730105  0.58843427  0.74823024
   0.34239085  0.67057609  0.83487042
   0.23732325  0.75186869  0.91271524
   0.17101420  0.84085125  0.00740405
   0.17139527  0.83344285  0.16563078
   0.07148065  0.90339200  0.24867280
   0.99414074  0.99287417  0.34008055
   0.91291496  0.07447355  0.42515925
   0.84171908  0.16878807  0.50052760
   0.73184698  0.25413076  0.57467245
   0.65631571  0.34633159  0.66950467
   0.56824924  0.43426571  0.74298217
   0.50452489  0.51665322  0.83053870
   0.42813332  0.59126322  0.92754624
   0.32844020  0.67681218  0.00498394
   0.26171880  0.75707189  0.08946361
   0.25588097  0.74910921  0.24463985
   0.16681868  0.82028061  0.32858508
   0.09174521  0.89321426  0.41525730
   0.01276802  0.99753345  0.50607491
   0.92158157  0.09022853  0.57720691
   0.82219019  0.17627501  0.67122983
   0.72312332  0.25135422  0.74273402
   0.65513805  0.34612967  0.81624477
   0.58615280  0.43522535  0.91907590
   0.50425652  0.50784753  0.00883080
   0.43042127  0.58339499  0.08873388
   0.33389979  0.66895410  0.15330739
   0.32551784  0.66843252  0.32484565
   0.23809457  0.75047978  0.41988247
   0.16272573  0.82949466  0.49264793
   0.10114900  0.92096788  0.59533372
   0.00826558  0.99677628  0.65373616
   0.91575120  0.08956778  0.72853942
   0.83708115  0.16502170  0.82089111
   0.74946396  0.24903121  0.89021724
   0.67508328  0.31518671  0.98582521
   0.58533014  0.41324270  0.07390832
   0.50986793  0.49877020  0.16136234
   0.42268753  0.58836588  0.25061010
   0.41009129  0.58827294  0.41386085
   0.33043097  0.66468316  0.50465306
   0.23003140  0.74093895  0.58501931
   0.16604219  0.83002288  0.67909837
   0.09578286  0.93143275  0.76075224
   0.00452952  0.03118132  0.82295993
   0.91188960  0.08571839  0.91835872
   0.81978456  0.17683529  0.98254916
   0.74962404  0.25733229  0.08423009
   0.65313394  0.31649262  0.15559381
   0.58018088  0.40149062  0.25903271
   0.49970253  0.50448181  0.33359950
   0.06194570  0.09474181  0.93918473
   0.98727321  0.19250536  0.99594681
   0.91154492  0.27195694  0.07234372
   0.81962616  0.34157575  0.17018721
   0.73794283  0.41471932  0.23706495
   0.64818308  0.50518717  0.33919004
   0.58031380  0.60062314  0.42439128
   0.50954837  0.69110101  0.49977238
   0.42168346  0.76082263  0.58034116
   0.32529836  0.84858978  0.66218432
   0.24367784  0.91537798  0.74085974
   0.16437328  0.99769990  0.84229774
   0.16111019  0.00954155  0.98455392
   0.08958372  0.09114013  0.08621052
   0.98849856  0.18521617  0.15653541
   0.89908812  0.25662287  0.24846679
   0.82557118  0.34400798  0.34372812
   0.73253635  0.41519139  0.43162817
   0.65499833  0.51238753  0.49533369
   0.57292297  0.57883847  0.58712144
   0.49975627  0.67959239  0.67712632
   0.40946439  0.76771752  0.73553905
   0.33566205  0.83620214  0.82748106
   0.24073958  0.91952162  0.92372471
   0.26166894  0.92701612  0.08799483
   0.17595067  0.00183645  0.18462935
   0.07435801  0.07453424  0.25589586
   0.98839217  0.16016385  0.33923495
   0.90407110  0.25412610  0.40828961
   0.82758958  0.31118773  0.49286463
   0.73706403  0.41495379  0.58247950
   0.65027069  0.50228006  0.66011174
   0.59098370  0.60103031  0.74114965
   0.48856474  0.67037213  0.84236567
   0.41954190  0.76129129  0.92664690
   0.33075284  0.84507866  0.99728901
   0.34147054  0.84305544  0.17894148
   0.24190464  0.91149831  0.25082216
   0.16032387  0.01084420  0.33753316
   0.07913756  0.07399859  0.41614418
   0.99642521  0.17926110  0.51307324
   0.90967924  0.25324945  0.58717021
   0.81717006  0.32925118  0.65590968
   0.74859755  0.41458592  0.74292890
   0.66330777  0.51198637  0.81687024
   0.58922230  0.56811977  0.90652615
   0.52161126  0.66665724  0.01556017
   0.41577395  0.76261154  0.07074743
   0.41845289  0.75617397  0.23990847
   0.33716971  0.83787508  0.34642746
   0.23634407  0.91377442  0.41441688
   0.16529482  0.00069099  0.50194628
   0.08181504  0.09480897  0.58052665
   0.00065276  0.18599902  0.66818293
   0.90190450  0.27520449  0.74758502
   0.82443192  0.34472742  0.81770067
   0.75514054  0.42655584  0.89283009
   0.67284569  0.50525603  0.00550701
   0.59243410  0.58206177  0.09342170
   0.50692953  0.67945342  0.16278071
   0.49027469  0.68196831  0.35164546
   0.40936911  0.76177989  0.41930689
   0.31819762  0.83791457  0.49274555
   0.23286484  0.91911112  0.58552367
   0.17107092  0.01743471  0.67446341
   0.08369456  0.09614279  0.73663549
   0.97700729  0.16304143  0.82061046
   0.91019969  0.26431196  0.91661933
   0.82141752  0.33166485  0.99374429
   0.75509054  0.40524244  0.07167666
   0.66483817  0.50245710  0.17583811
   0.57566454  0.60116475  0.25160337
   0.16512283  0.16804544  0.85211629
   0.08093872  0.24280440  0.91498782
   0.00585863  0.33431990  0.99417081
   0.93758960  0.41410051  0.09178086
   0.83134485  0.49574881  0.16298612
   0.75727155  0.59299618  0.24886856
   0.67547708  0.66609214  0.34035503
   0.60104857  0.75817557  0.42477510
   0.49749119  0.82305455  0.50817217
   0.41646317  0.91860451  0.58478444
   0.32408025  0.01187337  0.65663569
   0.25738278  0.08535672  0.75737765
   0.23915553  0.09389785  0.91700250
   0.16053406  0.16793483  0.00397990
   0.09275657  0.25882269  0.08421582
   0.99455101  0.32913042  0.16127867
   0.90854297  0.41442257  0.23811749
   0.82194987  0.50374445  0.33871643
   0.75087213  0.58639025  0.41608393
   0.67815316  0.66619700  0.52117935
   0.58160573  0.73671686  0.60706230
   0.50011075  0.84814392  0.66452049
   0.42006374  0.92307484  0.75073348
   0.32326935  0.00327394  0.83997522
   0.33004652  0.99298637  0.97614616
   0.25272918  0.07999874  0.09163304
   0.17076096  0.16131847  0.18908258
   0.08455042  0.24165225  0.26472176
   0.99706006  0.31855972  0.31698509
   0.90240476  0.40472158  0.40589264
   0.82987822  0.48178314  0.49668245
   0.76099643  0.57397795  0.58014859
   0.67172889  0.66873718  0.65810411
   0.56817886  0.73651159  0.76116135
   0.49688388  0.82639292  0.83427817
   0.42709602  0.91821446  0.92057195
   0.42131515  0.91585107  0.07360914
   0.33448206  0.98461874  0.18009691
   0.26115717  0.09163804  0.24710254
   0.18071311  0.15994837  0.33709356
   0.07730294  0.24137036  0.40643944
   0.99636963  0.32735633  0.48141275
   0.90903757  0.39055771  0.57007941
   0.83207767  0.49325041  0.65908154
   0.74876884  0.58597206  0.74747253
   0.66044803  0.66130730  0.83820582
   0.58930109  0.74747945  0.92448657
   0.51189540  0.83640829  0.00038558
   0.51671993  0.83152165  0.15854278
   0.43794613  0.91466367  0.25548693
   0.33939293  0.99082018  0.33670914
   0.25806281  0.08386893  0.42771770
   0.16373416  0.17176070  0.48468939
   0.09689350  0.25345546  0.58040608
   0.01037187  0.33657330  0.67549921
   0.91153218  0.40985065  0.75616809
   0.83714090  0.50849746  0.82846864
   0.74628104  0.57674856  0.91367518
   0.67204961  0.65364397  0.98714256
   0.59335679  0.75251336  0.09302509
   0.58557167  0.75726407  0.26215792
   0.51467878  0.84781807  0.33426909
   0.41847537  0.92246051  0.43403527
   0.32608057  0.99725483  0.51196107
   0.24082020  0.09799637  0.58029448
   0.16027088  0.17740271  0.67478386
   0.07444192  0.25331834  0.76700397
   0.99911082  0.33658878  0.85694480
   0.90534586  0.42516528  0.92790038
   0.82659619  0.50098939  0.00845544
   0.73918670  0.58392335  0.07973743
   0.66881686  0.66185651  0.16546337
   0.25447635  0.24596477  0.77602393
   0.16874832  0.34179521  0.82765396
   0.08700775  0.41754050  0.92647131
   0.02184463  0.49001446  0.00898444
   0.93028085  0.57725044  0.08244984
   0.83229603  0.66029387  0.16382665
   0.75646061  0.76472645  0.24137129
   0.67454933  0.84198303  0.32403580
   0.60750520  0.93313517  0.42011517
   0.48737591  0.99048301  0.51366644
   0.41354302  0.08659879  0.57760094
   0.32369864  0.18190783  0.66373116
   0.34052458  0.16746425  0.84299465
   0.25516263  0.26133244  0.92662058
   0.17437256  0.33200090  0.99834026
   0.09512857  0.41877665  0.09245048
   0.00364510  0.50289095  0.17322918
   0.91223510  0.58086655  0.24029790
   0.83572321  0.67791448  0.32561861
   0.74601435  0.74153163  0.42547388
   0.65697834  0.80656317  0.51696906
   0.59101995  0.92372878  0.58782572
   0.50014594  0.98854572  0.66015389
   0.40730364  0.09371526  0.75277401
   0.42723836  0.07895291  0.89742984
   0.33970146  0.16641141  0.99393250
   0.24628541  0.25054253  0.08637104
   0.16067581  0.32556033  0.18418567
   0.07220975  0.40589726  0.24949220
   0.98758959  0.50721794  0.33116890
   0.91750938  0.59038384  0.41926245
   0.83384442  0.66511354  0.49570511
   0.75576065  0.75194267  0.58347340
   0.65732383  0.80831660  0.67341587
   0.59822307  0.92247849  0.75380963
   0.50440706  0.00509825  0.81737321
   0.51495640  0.99762113  0.98447901
   0.41202875  0.06358651  0.06326672
   0.35712864  0.18137449  0.14783499
   0.25009272  0.25155416  0.25686732
   0.16437213  0.33842263  0.34582735
   0.07931684  0.42286075  0.41583251
   0.98981283  0.48596115  0.50790771
   0.92146921  0.58221308  0.57366766
   0.84471139  0.66060302  0.67522010
   0.75462169  0.73090901  0.76530437
   0.68895865  0.81322395  0.83380761
   0.60428179  0.91733417  0.89944000
   0.58777406  0.93420647  0.07662896
   0.50254016  0.99997255  0.14564689
   0.42639410  0.09117112  0.24771681
   0.34634643  0.15802078  0.34018809
   0.25302659  0.23632094  0.42272639
   0.16511079  0.32334892  0.49605708
   0.09698424  0.41451870  0.59779058
   0.97924292  0.49473760  0.67704654
   0.91742933  0.58412087  0.74672979
   0.84665453  0.65254839  0.83687963
   0.75867226  0.72919267  0.91500546
   0.67970873  0.83721609  0.99610719
   0.66986054  0.84084687  0.15592742
   0.58577202  0.94070352  0.24196655
   0.50937585  0.99320888  0.33596412
   0.41346334  0.06480668  0.42230405
   0.33977061  0.16632553  0.50101048
   0.23897863  0.25601661  0.58335048
   0.17135751  0.32320921  0.68846406
   0.08381913  0.40870121  0.75980831
   0.01048776  0.50102636  0.85451064
   0.92708919  0.57816017  0.92122561
   0.84808535  0.66119735  0.99338569
   0.75713071  0.73650825  0.08078140
   0.31963942  0.33791262  0.67162352
   0.25498161  0.41060737  0.75560182
   0.17207539  0.50807904  0.84133571
   0.11439717  0.57794052  0.93399475
   0.01087211  0.67173454  0.00696189
   0.92348204  0.73661585  0.09482299
   0.84006585  0.84889348  0.15170985
   0.76442615  0.90897757  0.25794703
   0.67990664  0.00307114  0.32593657
   0.56487718  0.07588347  0.41858405
   0.49340771  0.16915370  0.50531810
   0.40663502  0.25640199  0.58109907
   0.39888296  0.24908588  0.75618808
   0.32547040  0.32398339  0.85133936
   0.24780467  0.41764745  0.92516078
   0.18237562  0.49906542  0.00797578
   0.09400183  0.57911718  0.08979093
   0.00557405  0.65481830  0.16778017
   0.92080876  0.75558570  0.23719703
   0.84171685  0.82040783  0.33334363
   0.76829317  0.90576290  0.42579398
   0.66742715  0.00284637  0.50123931
   0.55748518  0.07734346  0.57221916
   0.47321648  0.17050897  0.66888277
   0.49249639  0.16438112  0.82340591
   0.42798232  0.24599641  0.92029098
   0.34383664  0.33343618  0.98597098
   0.24384425  0.40324440  0.08625769
   0.16559659  0.49346158  0.18732858
   0.07701823  0.58524916  0.26086517
   0.98471470  0.65540822  0.33216719
   0.92070774  0.73811500  0.44163764
   0.82992509  0.82317501  0.49954779
   0.75466529  0.90031971  0.58435867
   0.65540218  0.00979546  0.66056643
   0.57424662  0.08221035  0.73982758
   0.58882718  0.07251153  0.89217770
   0.51335600  0.15348635  0.98940243
   0.43086472  0.25218309  0.05688390
   0.34811207  0.33837792  0.16164405
   0.25364746  0.41445254  0.25183693
   0.16725559  0.48441719  0.32466210
   0.07765230  0.57472028  0.41185424
   0.00857092  0.65828467  0.50120009
   0.93767207  0.76021759  0.59373010
   0.83105944  0.82598358  0.67594792
   0.75049142  0.92739537  0.73932137
   0.66082086  0.00115751  0.81211173
   0.67777353  0.00028068  0.98356171
   0.58132077  0.08380859  0.07732764
   0.50085703  0.15078293  0.14964149
   0.42484281  0.25924132  0.24364533
   0.33315835  0.33425967  0.33074809
   0.25451676  0.41864486  0.43101956
   0.16202145  0.49000979  0.50750088
   0.07956632  0.55922620  0.59033900
   0.99710180  0.65913521  0.66358413
   0.93769884  0.74812340  0.75113296
   0.84121559  0.82022100  0.83459569
   0.76703754  0.91501705  0.91088398
   0.74847138  0.90660968  0.07915315
   0.68530646  0.00402703  0.16348343
   0.57759253  0.07360299  0.23767568
   0.48731281  0.15729795  0.33597146
   0.40964890  0.26465989  0.41645054
   0.32431602  0.33478673  0.49719317
   0.24858547  0.41101027  0.59163457
   0.16924612  0.50576105  0.69256714
   0.07223898  0.57460717  0.76364749
   0.01467991  0.66192590  0.83544762
   0.94788821  0.74896605  0.90751845
   0.84788252  0.81462888  0.99354045
   0.41004000  0.40423431  0.57440730
   0.33645354  0.50851193  0.67689967
   0.25578962  0.59170259  0.74478734
   0.16643284  0.64997536  0.83913758
   0.08237208  0.74254146  0.93927158
   0.00017881  0.83186003  0.01945816
   0.92008914  0.92836200  0.07106210
   0.82902996  0.99650946  0.17212972
   0.75821193  0.09230774  0.24272789
   0.63729165  0.15196687  0.34055453
   0.55881835  0.25168745  0.40155142
   0.49599982  0.32636442  0.49540712
   0.50195917  0.31380184  0.67195530
   0.41637478  0.41448299  0.75074987
   0.33724259  0.50676976  0.83486468
   0.25746449  0.59138333  0.92775772
   0.16928573  0.67593172  0.02316805
   0.09146682  0.75491044  0.10623308
   0.98536197  0.84016103  0.16739487
   0.91917986  0.92179759  0.26584372
   0.83853496  0.00912395  0.33806322
   0.74643230  0.08673319  0.41935531
   0.65241339  0.16744493  0.48377856
   0.58751195  0.23485670  0.58207620
   0.57247679  0.25382063  0.73824118
   0.50150384  0.33299375  0.82865718
   0.42426052  0.42533837  0.91518901
   0.34062199  0.50395130  0.00501837
   0.24585080  0.58277329  0.09092478
   0.16955084  0.66371378  0.18161463
   0.07399711  0.74382187  0.24872453
   0.98694504  0.81993807  0.34492339
   0.90530429  0.91056339  0.42014448
   0.82600922  0.00546785  0.50972789
   0.75071702  0.10439888  0.57996872
   0.65662035  0.16294592  0.64996421
   0.66558717  0.16934013  0.83504631
   0.59358333  0.24145834  0.90338330
   0.49997392  0.34629196  0.99161976
   0.42804471  0.42123304  0.08461801
   0.32917712  0.50033927  0.16430405
   0.25657836  0.57590650  0.24437586
   0.16879852  0.66120669  0.32972790
   0.07787142  0.73416712  0.41210818
   0.00225820  0.83547370  0.51057338
   0.91836636  0.90501809  0.58653182
   0.81240355  0.99135675  0.65489932
   0.74787136  0.09319164  0.74135120
   0.75060298  0.07448783  0.88803843
   0.67331322  0.16606860  0.98420129
   0.58597296  0.24590584  0.07050332
   0.50335429  0.33341923  0.15651851
   0.41435311  0.42655061  0.24879346
   0.33099255  0.49802347  0.34107244
   0.24096168  0.57502309  0.41494489
   0.17933918  0.64814703  0.49733347
   0.09506792  0.74340171  0.58534323
   0.02321756  0.84231494  0.68876774
   0.93513670  0.90550953  0.73996151
   0.85075632  0.00365186  0.81862131
   0.81640329  0.99828690  0.98867518
   0.75542586  0.09413670  0.07861451
   0.65879717  0.15902567  0.16811287
   0.55578823  0.23038642  0.25573760
   0.49390383  0.32898007  0.33987791
   0.42127328  0.40133961  0.41735378
   0.33888409  0.50878386  0.50171296
   0.24144260  0.57140314  0.58112527
   0.15937683  0.65852147  0.66788488
   0.09074621  0.74457636  0.75510607
   0.01691857  0.83545559  0.84194448
   0.92838126  0.91214872  0.90912372
