 432 432   0   0
  0.1857636E+02  0.2002080E-08  0.2002080E-08  0.2002080E-08  0.5000000E-15
  1.000000000000000E-004
  CAR 
 Li                                      
      4.12488160     -3.34008666  301      0.65076636      1.00000000
     -3.340  0.0000E+00  0.0000E+00
     -3.315  0.0000E+00  0.0000E+00
     -3.290  0.0000E+00  0.0000E+00
     -3.265  0.0000E+00  0.0000E+00
     -3.241  0.0000E+00  0.0000E+00
     -3.216  0.0000E+00  0.0000E+00
     -3.191  0.0000E+00  0.0000E+00
     -3.166  0.2722E-12  0.6772E-14
     -3.141  0.1486E-08  0.3698E-10
     -3.116  0.2108E-05  0.5248E-07
     -3.091  0.7845E-03  0.1957E-04
     -3.066  0.7786E-01  0.1957E-02
     -3.041  0.2107E+01  0.5439E-01
     -3.017  0.1601E+02  0.4528E+00
     -2.992  0.3514E+02  0.1327E+01
     -2.967  0.2259E+02  0.1889E+01
     -2.942  0.4285E+01  0.1996E+01
     -2.917  0.2417E+01  0.2056E+01
     -2.892  0.2309E+02  0.2631E+01
     -2.867  0.7979E+02  0.4616E+01
     -2.842  0.9370E+02  0.6948E+01
     -2.818  0.3727E+02  0.7875E+01
     -2.793  0.5201E+01  0.8004E+01
     -2.768  0.7726E+01  0.8197E+01
     -2.743  0.4769E+02  0.9383E+01
     -2.718  0.9865E+02  0.1184E+02
     -2.693  0.6912E+02  0.1356E+02
     -2.668  0.1658E+02  0.1397E+02
     -2.643  0.4974E+01  0.1409E+02
     -2.618  0.3367E+02  0.1493E+02
     -2.594  0.1061E+03  0.1757E+02
     -2.569  0.1209E+03  0.2058E+02
     -2.544  0.4972E+02  0.2182E+02
     -2.519  0.8477E+01  0.2203E+02
     -2.494  0.2037E+02  0.2254E+02
     -2.469  0.9821E+02  0.2498E+02
     -2.444  0.1842E+03  0.2956E+02
     -2.419  0.1365E+03  0.3296E+02
     -2.395  0.3814E+02  0.3391E+02
     -2.370  0.5298E+01  0.3404E+02
     -2.345  0.2089E+02  0.3456E+02
     -2.320  0.8060E+02  0.3656E+02
     -2.295  0.9721E+02  0.3898E+02
     -2.270  0.3659E+02  0.3989E+02
     -2.245  0.6095E+01  0.4004E+02
     -2.220  0.2416E+02  0.4065E+02
     -2.195  0.1070E+03  0.4331E+02
     -2.171  0.1852E+03  0.4792E+02
     -2.146  0.1280E+03  0.5110E+02
     -2.121  0.3382E+02  0.5194E+02
     -2.096  0.1587E+02  0.5234E+02
     -2.071  0.8417E+02  0.5443E+02
     -2.046  0.2176E+03  0.5985E+02
     -2.021  0.2496E+03  0.6606E+02
     -1.996  0.1290E+03  0.6927E+02
     -1.972  0.2765E+02  0.6996E+02
     -1.947  0.8922E+01  0.7018E+02
     -1.922  0.4342E+02  0.7126E+02
     -1.897  0.9459E+02  0.7361E+02
     -1.872  0.7377E+02  0.7545E+02
     -1.847  0.2095E+02  0.7597E+02
     -1.822  0.1494E+02  0.7634E+02
     -1.797  0.8381E+02  0.7843E+02
     -1.772  0.1978E+03  0.8335E+02
     -1.748  0.1860E+03  0.8798E+02
     -1.723  0.7065E+02  0.8974E+02
     -1.698  0.1322E+02  0.9006E+02
     -1.673  0.3604E+02  0.9096E+02
     -1.648  0.1501E+03  0.9469E+02
     -1.623  0.2596E+03  0.1012E+03
     -1.598  0.1999E+03  0.1061E+03
     -1.573  0.6645E+02  0.1078E+03
     -1.548  0.1205E+02  0.1081E+03
     -1.524  0.3740E+02  0.1090E+03
     -1.499  0.1353E+03  0.1124E+03
     -1.474  0.1872E+03  0.1170E+03
     -1.449  0.9923E+02  0.1195E+03
     -1.424  0.2498E+02  0.1201E+03
     -1.399  0.5691E+02  0.1215E+03
     -1.374  0.1824E+03  0.1261E+03
     -1.349  0.2554E+03  0.1324E+03
     -1.325  0.1693E+03  0.1366E+03
     -1.300  0.5076E+02  0.1379E+03
     -1.275  0.2947E+02  0.1386E+03
     -1.250  0.1183E+03  0.1416E+03
     -1.225  0.2435E+03  0.1476E+03
     -1.200  0.2280E+03  0.1533E+03
     -1.175  0.9255E+02  0.1556E+03
     -1.150  0.1645E+02  0.1560E+03
     -1.125  0.2580E+02  0.1567E+03
     -1.101  0.1083E+03  0.1594E+03
     -1.076  0.1823E+03  0.1639E+03
     -1.051  0.1265E+03  0.1671E+03
     -1.026  0.3505E+02  0.1679E+03
     -1.001  0.1286E+02  0.1682E+03
     -0.976  0.6128E+02  0.1698E+03
     -0.951  0.1420E+03  0.1733E+03
     -0.926  0.1569E+03  0.1772E+03
     -0.902  0.9403E+02  0.1795E+03
     -0.877  0.6567E+02  0.1812E+03
     -0.852  0.1714E+03  0.1854E+03
     -0.827  0.2823E+03  0.1925E+03
     -0.802  0.3118E+03  0.2002E+03
     -0.777  0.2578E+03  0.2066E+03
     -0.752  0.1172E+03  0.2096E+03
     -0.727  0.5980E+02  0.2111E+03
     -0.702  0.1488E+03  0.2148E+03
     -0.678  0.2269E+03  0.2204E+03
     -0.653  0.1881E+03  0.2251E+03
     -0.628  0.9416E+02  0.2274E+03
     -0.603  0.2810E+02  0.2281E+03
     -0.578  0.5386E+02  0.2295E+03
     -0.553  0.1627E+03  0.2335E+03
     -0.528  0.2090E+03  0.2387E+03
     -0.503  0.1095E+03  0.2414E+03
     -0.479  0.3238E+02  0.2422E+03
     -0.454  0.7565E+02  0.2441E+03
     -0.429  0.2101E+03  0.2494E+03
     -0.404  0.3032E+03  0.2569E+03
     -0.379  0.2528E+03  0.2632E+03
     -0.354  0.1372E+03  0.2666E+03
     -0.329  0.1092E+03  0.2693E+03
     -0.304  0.8142E+02  0.2713E+03
     -0.279  0.2429E+02  0.2719E+03
     -0.255  0.1042E+02  0.2722E+03
     -0.230  0.5768E+02  0.2736E+03
     -0.205  0.1697E+03  0.2779E+03
     -0.180  0.2542E+03  0.2842E+03
     -0.155  0.2370E+03  0.2901E+03
     -0.130  0.1702E+03  0.2943E+03
     -0.105  0.1217E+03  0.2974E+03
     -0.080  0.1457E+03  0.3010E+03
     -0.056  0.1811E+03  0.3055E+03
     -0.031  0.2162E+03  0.3109E+03
     -0.006  0.2262E+03  0.3165E+03
      0.019  0.2243E+03  0.3221E+03
      0.044  0.2215E+03  0.3276E+03
      0.069  0.1571E+03  0.3315E+03
      0.094  0.1016E+03  0.3340E+03
      0.119  0.1017E+03  0.3366E+03
      0.144  0.1125E+03  0.3394E+03
      0.168  0.1314E+03  0.3426E+03
      0.193  0.1438E+03  0.3462E+03
      0.218  0.2116E+03  0.3515E+03
      0.243  0.2889E+03  0.3587E+03
      0.268  0.3331E+03  0.3669E+03
      0.293  0.2981E+03  0.3744E+03
      0.318  0.1712E+03  0.3786E+03
      0.343  0.7138E+02  0.3804E+03
      0.368  0.9774E+02  0.3828E+03
      0.392  0.1942E+03  0.3877E+03
      0.417  0.2579E+03  0.3941E+03
      0.442  0.2343E+03  0.3999E+03
      0.467  0.1324E+03  0.4032E+03
      0.492  0.6822E+02  0.4049E+03
      0.517  0.9886E+02  0.4074E+03
      0.542  0.1495E+03  0.4111E+03
      0.567  0.2055E+03  0.4162E+03
      0.591  0.2194E+03  0.4217E+03
      0.616  0.1751E+03  0.4260E+03
      0.641  0.1686E+03  0.4302E+03
      0.666  0.1971E+03  0.4351E+03
      0.691  0.2229E+03  0.4407E+03
      0.716  0.2425E+03  0.4467E+03
      0.741  0.2353E+03  0.4525E+03
      0.766  0.2035E+03  0.4576E+03
      0.791  0.1601E+03  0.4616E+03
      0.815  0.1362E+03  0.4650E+03
      0.840  0.1407E+03  0.4685E+03
      0.865  0.1684E+03  0.4727E+03
      0.890  0.1985E+03  0.4776E+03
      0.915  0.2016E+03  0.4826E+03
      0.940  0.2001E+03  0.4876E+03
      0.965  0.2230E+03  0.4932E+03
      0.990  0.2663E+03  0.4998E+03
      1.014  0.2981E+03  0.5072E+03
      1.039  0.2985E+03  0.5146E+03
      1.064  0.2795E+03  0.5216E+03
      1.089  0.2579E+03  0.5280E+03
      1.114  0.2270E+03  0.5336E+03
      1.139  0.2193E+03  0.5391E+03
      1.164  0.2260E+03  0.5447E+03
      1.189  0.2240E+03  0.5503E+03
      1.214  0.2210E+03  0.5558E+03
      1.238  0.2231E+03  0.5614E+03
      1.263  0.2194E+03  0.5668E+03
      1.288  0.2060E+03  0.5719E+03
      1.313  0.2059E+03  0.5771E+03
      1.338  0.2376E+03  0.5830E+03
      1.363  0.2693E+03  0.5897E+03
      1.388  0.2643E+03  0.5963E+03
      1.413  0.2383E+03  0.6022E+03
      1.437  0.2276E+03  0.6078E+03
      1.462  0.2109E+03  0.6131E+03
      1.487  0.1772E+03  0.6175E+03
      1.512  0.1613E+03  0.6215E+03
      1.537  0.1709E+03  0.6258E+03
      1.562  0.1986E+03  0.6307E+03
      1.587  0.2126E+03  0.6360E+03
      1.612  0.1964E+03  0.6409E+03
      1.637  0.1770E+03  0.6453E+03
      1.661  0.1450E+03  0.6489E+03
      1.686  0.8953E+02  0.6511E+03
      1.711  0.4837E+02  0.6523E+03
      1.736  0.7688E+02  0.6542E+03
      1.761  0.1342E+03  0.6576E+03
      1.786  0.1448E+03  0.6612E+03
      1.811  0.1132E+03  0.6640E+03
      1.836  0.1137E+03  0.6668E+03
      1.861  0.1600E+03  0.6708E+03
      1.885  0.1938E+03  0.6756E+03
      1.910  0.2139E+03  0.6810E+03
      1.935  0.2086E+03  0.6862E+03
      1.960  0.1649E+03  0.6903E+03
      1.985  0.1151E+03  0.6931E+03
      2.010  0.9331E+02  0.6954E+03
      2.035  0.1210E+03  0.6985E+03
      2.060  0.1582E+03  0.7024E+03
      2.084  0.1668E+03  0.7065E+03
      2.109  0.1573E+03  0.7105E+03
      2.134  0.1553E+03  0.7143E+03
      2.159  0.1796E+03  0.7188E+03
      2.184  0.1866E+03  0.7234E+03
      2.209  0.1741E+03  0.7278E+03
      2.234  0.1807E+03  0.7323E+03
      2.259  0.2071E+03  0.7374E+03
      2.284  0.2128E+03  0.7427E+03
      2.308  0.1907E+03  0.7475E+03
      2.333  0.1539E+03  0.7513E+03
      2.358  0.1268E+03  0.7544E+03
      2.383  0.1286E+03  0.7576E+03
      2.408  0.1486E+03  0.7613E+03
      2.433  0.1593E+03  0.7653E+03
      2.458  0.1697E+03  0.7695E+03
      2.483  0.1623E+03  0.7736E+03
      2.507  0.1403E+03  0.7771E+03
      2.532  0.1305E+03  0.7803E+03
      2.557  0.1034E+03  0.7829E+03
      2.582  0.5519E+02  0.7842E+03
      2.607  0.6421E+02  0.7858E+03
      2.632  0.1099E+03  0.7886E+03
      2.657  0.1183E+03  0.7915E+03
      2.682  0.9329E+02  0.7938E+03
      2.707  0.6098E+02  0.7954E+03
      2.731  0.2243E+02  0.7959E+03
      2.756  0.3307E+01  0.7960E+03
      2.781  0.3517E+01  0.7961E+03
      2.806  0.2761E+02  0.7968E+03
      2.831  0.8057E+02  0.7988E+03
      2.856  0.8790E+02  0.8010E+03
      2.881  0.3601E+02  0.8019E+03
      2.906  0.5273E+01  0.8020E+03
      2.930  0.2553E+00  0.8020E+03
      2.955  0.1429E+00  0.8020E+03
      2.980  0.2568E+01  0.8021E+03
      3.005  0.1649E+02  0.8025E+03
      3.030  0.4687E+02  0.8036E+03
      3.055  0.7836E+02  0.8056E+03
      3.080  0.9406E+02  0.8079E+03
      3.105  0.9521E+02  0.8103E+03
      3.130  0.8797E+02  0.8125E+03
      3.154  0.8355E+02  0.8146E+03
      3.179  0.8463E+02  0.8167E+03
      3.204  0.8391E+02  0.8188E+03
      3.229  0.9223E+02  0.8211E+03
      3.254  0.1170E+03  0.8240E+03
      3.279  0.1262E+03  0.8271E+03
      3.304  0.1203E+03  0.8301E+03
      3.329  0.1277E+03  0.8333E+03
      3.354  0.1401E+03  0.8368E+03
      3.378  0.1295E+03  0.8400E+03
      3.403  0.8991E+02  0.8422E+03
      3.428  0.7023E+02  0.8440E+03
      3.453  0.7227E+02  0.8458E+03
      3.478  0.6164E+02  0.8473E+03
      3.503  0.2942E+02  0.8480E+03
      3.528  0.2502E+02  0.8487E+03
      3.553  0.4228E+02  0.8497E+03
      3.577  0.4788E+02  0.8509E+03
      3.602  0.4086E+02  0.8519E+03
      3.627  0.6192E+02  0.8535E+03
      3.652  0.9082E+02  0.8557E+03
      3.677  0.9112E+02  0.8580E+03
      3.702  0.8633E+02  0.8601E+03
      3.727  0.6978E+02  0.8619E+03
      3.752  0.5760E+02  0.8633E+03
      3.777  0.5719E+02  0.8647E+03
      3.801  0.3845E+02  0.8657E+03
      3.826  0.1129E+02  0.8660E+03
      3.851  0.1120E+01  0.8660E+03
      3.876  0.3364E-01  0.8660E+03
      3.901  0.2905E-03  0.8660E+03
      3.926  0.6982E-06  0.8660E+03
      3.951  0.4556E-09  0.8660E+03
      3.976  0.7585E-13  0.8660E+03
      4.000  0.0000E+00  0.8660E+03
      4.025  0.0000E+00  0.8660E+03
      4.050  0.0000E+00  0.8660E+03
      4.075  0.0000E+00  0.8660E+03
      4.100  0.0000E+00  0.8660E+03
      4.125  0.0000E+00  0.8660E+03
