       N       E                     dE             d eps       ncg     rms          rms(c)
DAV:   1    -0.234939575414E+03   -0.23494E+03   -0.10726E+05  3464   0.664E+02
DAV:   2    -0.770666276168E+03   -0.53573E+03   -0.48958E+03  3996   0.697E+01
DAV:   3    -0.806899286188E+03   -0.36233E+02   -0.32990E+02  4304   0.144E+01
DAV:   4    -0.808042879984E+03   -0.11436E+01   -0.11279E+01  3888   0.282E+00
DAV:   5    -0.808067742793E+03   -0.24863E-01   -0.24836E-01  4056   0.445E-01    0.740E+00
DAV:   6    -0.811127996651E+03   -0.30603E+01   -0.77333E+00  3952   0.506E+00    0.800E+00
DAV:   7    -0.801018119482E+03    0.10110E+02   -0.69603E+00  3976   0.429E+00    0.339E+00
DAV:   8    -0.800016936064E+03    0.10012E+01   -0.27881E+00  3816   0.169E+00    0.194E+00
DAV:   9    -0.799805568059E+03    0.21137E+00   -0.12514E+00  3752   0.978E-01    0.113E+00
DAV:  10    -0.799812553722E+03   -0.69857E-02   -0.23028E-01  4016   0.590E-01    0.933E-01
DAV:  11    -0.799724600270E+03    0.87953E-01   -0.10146E-01  3944   0.418E-01    0.470E-01
DAV:  12    -0.799715853917E+03    0.87464E-02   -0.37432E-02  3728   0.174E-01    0.191E-01
DAV:  13    -0.799716269656E+03   -0.41574E-03   -0.82068E-03  3864   0.106E-01    0.134E-01
DAV:  14    -0.799714960897E+03    0.13088E-02   -0.25170E-03  3856   0.712E-02    0.781E-02
DAV:  15    -0.799714451386E+03    0.50951E-03   -0.78744E-04  3840   0.352E-02    0.353E-02
DAV:  16    -0.799714370061E+03    0.81325E-04   -0.47333E-04  3704   0.184E-02    0.137E-02
DAV:  17    -0.799714361271E+03    0.87899E-05   -0.60723E-05  4048   0.973E-03
   1 F= -.79971436E+03 E0= -.79967066E+03  d E =-.873962E-01
