Li                                      
           1
    20.020800    0.000000    0.000000
     0.000000   20.020800    0.000000
     0.000000    0.000000   20.020800
   Li
   432
Direct configuration=     1
   0.00073760  0.01092018  0.00583548
   0.90945524  0.09511203  0.10599042
   0.82233953  0.18652427  0.16885372
   0.73513647  0.24727360  0.24761986
   0.65232893  0.33861015  0.33938578
   0.58523211  0.43256706  0.43358091
   0.48796063  0.52191853  0.51185815
   0.40940968  0.59808732  0.59029302
   0.32096632  0.66219414  0.65887126
   0.24035999  0.73839410  0.73407156
   0.16276825  0.83031734  0.81982126
   0.08721058  0.93594082  0.91730164
   0.07707400  0.93231174  0.08127061
   0.99642535  0.00389825  0.18695474
   0.91212009  0.09054420  0.25589706
   0.82183648  0.17836847  0.33579373
   0.73012518  0.25639252  0.43082584
   0.65589403  0.34599472  0.50811142
   0.55687868  0.41683831  0.57432749
   0.49990608  0.50905812  0.67127499
   0.40895496  0.59146828  0.74409918
   0.32259984  0.65800260  0.81739460
   0.23575155  0.75606193  0.92075094
   0.17182223  0.84276987  0.00317525
   0.15945442  0.84104071  0.17072579
   0.09044024  0.91497560  0.26170971
   0.98038789  0.01205170  0.33048816
   0.89596355  0.09386344  0.43389265
   0.80061091  0.18908436  0.49502951
   0.72054531  0.25305955  0.58036008
   0.65488166  0.33701076  0.66935634
   0.58291626  0.42582355  0.74785342
   0.49595671  0.50478589  0.81929952
   0.41927207  0.58281759  0.90727479
   0.31688147  0.65974069  0.99586755
   0.24751499  0.74656481  0.08400720
   0.25617843  0.75206709  0.24325197
   0.17772249  0.83550827  0.33602689
   0.08702292  0.91047544  0.40530698
   0.99240705  0.99888103  0.48972328
   0.90490173  0.10546991  0.55686625
   0.82622649  0.18586427  0.65781527
   0.74619705  0.26839380  0.74314821
   0.64934398  0.33990113  0.83693052
   0.56731387  0.41694278  0.91475754
   0.49127828  0.51901575  0.00298799
   0.40922734  0.58370089  0.08091900
   0.32889919  0.65341153  0.16071411
   0.32326022  0.66416736  0.32802874
   0.25411071  0.76005600  0.42087649
   0.16683379  0.83512929  0.49593799
   0.07654946  0.92040246  0.57108978
   0.99283439  0.01041999  0.64417718
   0.92516428  0.09460187  0.72667611
   0.84108038  0.16741766  0.84071021
   0.73915712  0.24777542  0.92567695
   0.65190046  0.35137369  0.99732362
   0.56858354  0.42669165  0.08338464
   0.49039888  0.50933237  0.17386884
   0.40907587  0.57892526  0.27141750
   0.41623712  0.58641766  0.41860008
   0.34151313  0.67422495  0.50586865
   0.25104746  0.75298264  0.58636391
   0.15570789  0.83014768  0.66320374
   0.07893256  0.93360825  0.74086017
   0.99809434  0.01729335  0.83052333
   0.91976033  0.09046866  0.92566172
   0.82615186  0.17196393  0.00439566
   0.74748079  0.26706411  0.08673608
   0.65205761  0.34562802  0.16234025
   0.57460687  0.42812567  0.24690029
   0.50700411  0.49837987  0.34259281
   0.08792169  0.08808945  0.91891983
   0.00103706  0.17410149  0.01267911
   0.90789974  0.25338541  0.09279858
   0.82534287  0.33610023  0.17141913
   0.74688677  0.40885499  0.24222186
   0.65621786  0.49579420  0.32633155
   0.59770132  0.58373804  0.43371465
   0.48755717  0.67669491  0.48410789
   0.40122998  0.76212069  0.59541308
   0.33541826  0.84078487  0.66072401
   0.24540445  0.90664680  0.73825964
   0.17324750  0.02254839  0.83410844
   0.16989507  0.01337379  0.00220670
   0.07911615  0.09146098  0.10005471
   0.99547956  0.17958962  0.16661734
   0.90399949  0.24088587  0.25352422
   0.81672160  0.33224821  0.35211622
   0.72922638  0.41063942  0.42313676
   0.66633275  0.50250365  0.51466673
   0.56934870  0.59998698  0.58162756
   0.48604183  0.68349010  0.65623017
   0.40870023  0.74840122  0.74276034
   0.33811541  0.83246626  0.81493435
   0.25164014  0.91821730  0.92086286
   0.26029991  0.91382878  0.09448171
   0.15820079  0.99834698  0.17851816
   0.07955866  0.09518674  0.25216439
   0.98900649  0.17187254  0.34519380
   0.90784556  0.24425610  0.41978543
   0.81664547  0.34636005  0.49107642
   0.74418062  0.41413451  0.58677418
   0.65028579  0.50188399  0.65937061
   0.57561550  0.59899838  0.73342339
   0.49418707  0.68053751  0.83715161
   0.40436609  0.74998987  0.91463867
   0.33681047  0.82857572  0.01602178
   0.35492001  0.83833669  0.17016758
   0.25728442  0.92405329  0.24939957
   0.16996157  0.00716925  0.32986609
   0.08899133  0.07874011  0.41077916
   0.99094740  0.16631235  0.48101866
   0.90052696  0.25526975  0.56053218
   0.82660725  0.32510484  0.65751751
   0.74046524  0.41858286  0.74777583
   0.65058070  0.52087930  0.82219761
   0.57449179  0.57641623  0.91281649
   0.50225883  0.66528837  0.99819478
   0.43192752  0.73376915  0.08348243
   0.41994467  0.73524127  0.24735370
   0.32101245  0.82978277  0.31722091
   0.25426674  0.91366312  0.38952885
   0.18156844  0.00133464  0.50295389
   0.07890969  0.07950638  0.57806136
   0.99233730  0.17534444  0.66769537
   0.90927730  0.25622079  0.75858737
   0.82108977  0.33224232  0.85002455
   0.73098670  0.43673495  0.90695724
   0.65363143  0.50643607  0.98860233
   0.56946104  0.58533299  0.09499846
   0.48486212  0.64852801  0.16915519
   0.49734863  0.66195703  0.33272430
   0.40633422  0.75968933  0.41539411
   0.33057819  0.83986467  0.50133007
   0.25961121  0.90340652  0.59594172
   0.17248529  0.99733489  0.65141676
   0.08556744  0.09356803  0.74649555
   0.99300796  0.16596948  0.83957011
   0.90567820  0.24727854  0.93562598
   0.82409046  0.35121755  0.99549145
   0.73913337  0.42878511  0.08234182
   0.67444476  0.49887502  0.16838256
   0.58456291  0.59374696  0.25471490
   0.16277355  0.16397973  0.84444926
   0.08956397  0.23326750  0.92767732
   0.01900938  0.32973180  0.00736891
   0.92883304  0.38442815  0.08533047
   0.84824825  0.48235536  0.15276367
   0.74811954  0.56316589  0.23504945
   0.66854265  0.66459455  0.32582515
   0.59200664  0.75030702  0.40710634
   0.50118560  0.83872940  0.48804849
   0.41841775  0.90873694  0.58510901
   0.33360258  0.00425590  0.66284309
   0.25575016  0.08232741  0.74098434
   0.24962418  0.08764222  0.91396126
   0.17285027  0.15690537  0.01095618
   0.10346757  0.24462464  0.07916094
   0.01122917  0.32004579  0.17858535
   0.92623231  0.39890495  0.25513992
   0.83272601  0.48604304  0.33401875
   0.74672851  0.58590625  0.40447826
   0.67239642  0.67800164  0.50851121
   0.57303030  0.75920219  0.57565775
   0.50570451  0.83777658  0.66182619
   0.41375109  0.91655603  0.74519762
   0.33860477  0.98801388  0.83705936
   0.32162932  0.99650215  0.99547703
   0.24091927  0.07655596  0.08797171
   0.18924328  0.16481031  0.16704192
   0.08737873  0.23105312  0.25115147
   0.00082199  0.31546993  0.32970697
   0.93174060  0.40827093  0.42986922
   0.82840679  0.49141123  0.49524932
   0.76342457  0.57585618  0.60159746
   0.68122753  0.67390323  0.65239181
   0.59876242  0.76184322  0.74050307
   0.49123755  0.83817372  0.82803711
   0.42399688  0.90131344  0.91899975
   0.42613715  0.92631435  0.09127389
   0.33023078  0.00571654  0.16994998
   0.25052093  0.08402965  0.26922129
   0.17379692  0.17658778  0.34407947
   0.09836345  0.24845611  0.41604325
   0.00152148  0.32298501  0.49083755
   0.89397741  0.41698545  0.57814670
   0.84170487  0.50117893  0.67920617
   0.74079932  0.59477053  0.74277076
   0.67155044  0.67470802  0.84601807
   0.57541082  0.76667353  0.90584343
   0.49599910  0.82154580  0.01763228
   0.51342323  0.84148096  0.16680508
   0.41836301  0.92311116  0.25530504
   0.34576352  0.01844152  0.34572728
   0.25103972  0.08167309  0.41821766
   0.15408730  0.17440064  0.49125190
   0.09000463  0.24628013  0.58628759
   0.99913801  0.32159171  0.65267817
   0.90533388  0.39298884  0.75127801
   0.83871367  0.50772711  0.83844298
   0.76273028  0.57179406  0.91667574
   0.66615940  0.65224089  0.99954152
   0.59782877  0.73467457  0.09115601
   0.57361446  0.75213466  0.23792716
   0.49247565  0.82958746  0.34198976
   0.41275066  0.90515775  0.40927587
   0.34014143  0.98162284  0.48762045
   0.25276222  0.09331429  0.56465940
   0.17468226  0.15447376  0.65899821
   0.09048397  0.24179279  0.74291554
   0.00048473  0.30464936  0.84278802
   0.93385962  0.40163557  0.90845412
   0.84720221  0.49369563  0.02090637
   0.75003962  0.56836597  0.08548965
   0.68253072  0.65875773  0.16007338
   0.24835372  0.24819679  0.73596335
   0.16226094  0.31691200  0.83278476
   0.09777200  0.40721000  0.92047308
   0.02310378  0.48804248  0.00459504
   0.92863877  0.57958540  0.08610342
   0.83456447  0.65800814  0.16051064
   0.75165786  0.75560963  0.22796094
   0.67695138  0.82646581  0.31549946
   0.60063709  0.91940550  0.40116288
   0.51236029  0.98698187  0.49673058
   0.42597112  0.08334745  0.57682225
   0.33274047  0.17015790  0.65464775
   0.33847116  0.17572268  0.82611290
   0.25732811  0.24226553  0.92369748
   0.17535811  0.32164809  0.99071818
   0.10075922  0.40122995  0.09075433
   0.01614921  0.49115151  0.16335831
   0.91289461  0.56953898  0.23878933
   0.82617975  0.65677460  0.33535297
   0.74368858  0.74501608  0.40676276
   0.67992713  0.85655798  0.50164200
   0.57615378  0.91362867  0.58198588
   0.51232835  0.00403063  0.65919045
   0.43354521  0.08400705  0.75053128
   0.40895487  0.07943615  0.89992336
   0.33279102  0.16166587  0.00452251
   0.25151145  0.24768385  0.07834181
   0.17192166  0.32490192  0.17878736
   0.07897882  0.41057958  0.25720643
   0.99403247  0.47814661  0.33833034
   0.89432987  0.56946464  0.41437350
   0.83484496  0.65732400  0.50477452
   0.75387431  0.75828866  0.56655023
   0.66969570  0.84659211  0.65532514
   0.58973729  0.91943535  0.75094912
   0.49061212  0.99626113  0.83801307
   0.50118468  0.98071405  0.99529470
   0.40833026  0.07684419  0.07009041
   0.33780016  0.16654781  0.17694454
   0.25262061  0.26126967  0.27601677
   0.16188596  0.34261274  0.33673578
   0.07717163  0.42096848  0.41790348
   0.99602670  0.50478295  0.51232198
   0.90907944  0.58964591  0.57550738
   0.83824016  0.66804578  0.67121449
   0.74576604  0.74930075  0.74633534
   0.66600443  0.84068812  0.83354536
   0.59470976  0.90233845  0.91662761
   0.59055542  0.92859048  0.08711058
   0.50019264  0.00490417  0.16450718
   0.42861855  0.08910188  0.24440141
   0.33692380  0.17559743  0.34663027
   0.25584517  0.26074468  0.41725154
   0.17630541  0.32676200  0.50254096
   0.07813420  0.40897775  0.57715230
   0.99093911  0.48338982  0.66167907
   0.92595426  0.58796390  0.75542032
   0.83633651  0.66706220  0.82956859
   0.75754852  0.74537444  0.93515520
   0.67653626  0.82948514  0.00199064
   0.67670976  0.83939989  0.16365240
   0.59113260  0.92293867  0.24863140
   0.50931286  0.01056854  0.33787931
   0.42421468  0.09380008  0.42078967
   0.33238043  0.17151237  0.49273091
   0.25084183  0.24529383  0.57575535
   0.17088424  0.34367539  0.66981493
   0.08298526  0.40229588  0.73964454
   0.99803075  0.48585636  0.82034687
   0.92095259  0.55953052  0.91351140
   0.83357017  0.64521448  0.00994589
   0.75432570  0.75599805  0.09090873
   0.33491658  0.32064853  0.66756614
   0.25110068  0.39930445  0.74911747
   0.16452242  0.48245133  0.82025407
   0.08609227  0.57574433  0.91616657
   0.01370416  0.66070368  0.99890107
   0.90049127  0.76353400  0.07823560
   0.83610746  0.83467381  0.16877565
   0.74764872  0.93363511  0.26035322
   0.65848692  0.00966802  0.32770119
   0.58103164  0.07913355  0.43646039
   0.51842642  0.17356963  0.49961627
   0.41985392  0.25758537  0.56741754
   0.40533560  0.24721048  0.73759297
   0.32561706  0.33805671  0.82701068
   0.24193747  0.41828470  0.90898810
   0.17522933  0.49488233  0.99450970
   0.08646130  0.57763984  0.08680424
   0.00068580  0.66784927  0.15702316
   0.90507646  0.74343566  0.24389379
   0.82541356  0.83489465  0.33357433
   0.74887746  0.92352529  0.40754187
   0.66313707  0.00176622  0.51842442
   0.57727518  0.07882972  0.59627077
   0.50665991  0.17530245  0.65972428
   0.50175853  0.18454021  0.83284615
   0.40107079  0.25022752  0.91873836
   0.32792408  0.33746364  0.98712458
   0.23807553  0.40591477  0.08133293
   0.17397079  0.48367684  0.18638791
   0.08265940  0.58073079  0.24922524
   0.00361026  0.64439294  0.33803721
   0.90334560  0.74447853  0.41674927
   0.83501471  0.83899741  0.48050211
   0.77691755  0.90974090  0.58290651
   0.67751142  0.99521883  0.65811586
   0.57959385  0.07534988  0.75135338
   0.59224419  0.08112141  0.92088448
   0.49947126  0.17607515  0.98585430
   0.40597973  0.24707378  0.07744725
   0.33171287  0.33206112  0.16671134
   0.25726328  0.39037373  0.25629581
   0.17553546  0.49847078  0.32708460
   0.09188458  0.56066677  0.41579844
   0.00422084  0.66180633  0.48189021
   0.91014223  0.74943661  0.58196225
   0.82663611  0.83184390  0.67991736
   0.76050846  0.92350968  0.76399569
   0.67590455  0.00493599  0.83434257
   0.66414721  0.00532155  0.99702948
   0.58113649  0.08406618  0.07888815
   0.48701980  0.18102603  0.14488354
   0.41835374  0.25980634  0.25665512
   0.34223229  0.35271043  0.35142347
   0.23533476  0.42916584  0.41824471
   0.16287323  0.48915407  0.50426353
   0.08479710  0.58005472  0.57608029
   0.00449980  0.65970583  0.66499350
   0.92416565  0.75605984  0.76231772
   0.84189745  0.83610343  0.85095571
   0.76898862  0.92713233  0.91188005
   0.76019222  0.92608769  0.08617415
   0.66104528  0.01192347  0.17221742
   0.57239236  0.09711238  0.24526853
   0.50015390  0.16468271  0.33018848
   0.42802427  0.24935580  0.41969368
   0.34405665  0.33890483  0.48964404
   0.25774632  0.42032179  0.59678555
   0.16353877  0.49636077  0.67190978
   0.09392874  0.57206366  0.75037303
   0.00711607  0.67071666  0.83537387
   0.92403142  0.75083420  0.92498034
   0.83822111  0.84037937  0.99461715
   0.42790241  0.41625561  0.58704991
   0.32387368  0.49815243  0.67714201
   0.23735822  0.58883175  0.75765136
   0.16296107  0.66056697  0.83648530
   0.08246683  0.74112126  0.92144402
   0.01114710  0.83175929  0.00168145
   0.93461253  0.90333083  0.08405120
   0.85416532  0.98880818  0.17459422
   0.75851325  0.09029683  0.24935946
   0.66405771  0.17571687  0.33445408
   0.59270758  0.25129470  0.41939648
   0.50809153  0.32369941  0.49390613
   0.51173836  0.33128920  0.67056041
   0.40586352  0.40936074  0.75254750
   0.32764680  0.50114204  0.83540744
   0.24298888  0.58597136  0.91086733
   0.15830697  0.65724670  0.00455843
   0.09475728  0.74406488  0.08858607
   0.00429110  0.83762353  0.17252282
   0.91630206  0.90315560  0.26412945
   0.84452161  0.01352548  0.33218084
   0.74969812  0.07781553  0.40184168
   0.68105758  0.15937328  0.50701039
   0.59413329  0.25378476  0.58618041
   0.59817625  0.24741500  0.75915519
   0.50132720  0.31303145  0.84704965
   0.40958286  0.42219441  0.91778492
   0.32104775  0.50498123  0.99015342
   0.24528889  0.56464708  0.10400734
   0.16506607  0.65104465  0.18558924
   0.08480197  0.74777813  0.26911951
   0.99319308  0.80893475  0.33590685
   0.92200104  0.92684819  0.40738156
   0.81893122  0.00107701  0.48193744
   0.74870878  0.07085314  0.57999023
   0.66770645  0.14936165  0.67448757
   0.68632946  0.15499449  0.83760329
   0.59784473  0.23947701  0.92778880
   0.50167423  0.33957199  0.99354723
   0.41625464  0.42260957  0.08298930
   0.33177355  0.49509908  0.17335976
   0.25994244  0.57550737  0.25112964
   0.17446154  0.65213171  0.34165351
   0.09299513  0.72603205  0.40905361
   0.00529207  0.83100974  0.49134396
   0.91278145  0.91455334  0.57180240
   0.83748053  0.99998026  0.65597428
   0.75448251  0.07957328  0.74858448
   0.76394397  0.07552295  0.91669990
   0.68267973  0.16547620  0.00880399
   0.57953539  0.26258803  0.08004106
   0.50268043  0.34280995  0.15666637
   0.41458334  0.41597257  0.24383557
   0.33806608  0.48874798  0.34311531
   0.25496559  0.58190075  0.41997293
   0.17185567  0.66994417  0.50161036
   0.08732118  0.74961599  0.57730117
   0.00724490  0.82787439  0.65948989
   0.92175313  0.90933766  0.74536390
   0.86445711  0.02111233  0.84655259
   0.85566090  0.99977589  0.01699322
   0.75801398  0.06806651  0.09537257
   0.65666217  0.16264329  0.16304099
   0.57530320  0.25434796  0.25062487
   0.51657981  0.34031830  0.35952391
   0.42619354  0.42240717  0.42844861
   0.32765696  0.50777383  0.50784165
   0.23909067  0.56960181  0.58073484
   0.15471590  0.67703802  0.65901713
   0.08221508  0.74116455  0.73438104
   0.01534899  0.84068519  0.84298496
   0.91326564  0.92091888  0.92967664
