 500 500   0   0
  0.2029568E+02  0.2165000E-08  0.2165000E-08  0.2165000E-08  0.5000000E-15
  1.000000000000000E-004
  CAR 
 Li                                      
      3.34056326     -3.42493206  301      0.38481118      1.00000000
     -3.425  0.0000E+00  0.0000E+00
     -3.402  0.0000E+00  0.0000E+00
     -3.380  0.0000E+00  0.0000E+00
     -3.357  0.0000E+00  0.0000E+00
     -3.335  0.0000E+00  0.0000E+00
     -3.312  0.0000E+00  0.0000E+00
     -3.290  0.1969E-13  0.4441E-15
     -3.267  0.7435E-10  0.1677E-11
     -3.245  0.8966E-07  0.2024E-08
     -3.222  0.3585E-04  0.8106E-06
     -3.199  0.4796E-02  0.1090E-03
     -3.177  0.2172E+00  0.5006E-02
     -3.154  0.3380E+01  0.8124E-01
     -3.132  0.1840E+02  0.4962E+00
     -3.109  0.3555E+02  0.1298E+01
     -3.087  0.2457E+02  0.1852E+01
     -3.064  0.6765E+01  0.2005E+01
     -3.042  0.9832E+01  0.2226E+01
     -3.019  0.4514E+02  0.3244E+01
     -2.996  0.8928E+02  0.5258E+01
     -2.974  0.7977E+02  0.7057E+01
     -2.951  0.3481E+02  0.7842E+01
     -2.929  0.1289E+02  0.8133E+01
     -2.906  0.3452E+02  0.8911E+01
     -2.884  0.7930E+02  0.1070E+02
     -2.861  0.8604E+02  0.1264E+02
     -2.839  0.4729E+02  0.1371E+02
     -2.816  0.1826E+02  0.1412E+02
     -2.793  0.3647E+02  0.1494E+02
     -2.771  0.8839E+02  0.1693E+02
     -2.748  0.1118E+03  0.1946E+02
     -2.726  0.7920E+02  0.2124E+02
     -2.703  0.3699E+02  0.2208E+02
     -2.681  0.4807E+02  0.2316E+02
     -2.658  0.1086E+03  0.2561E+02
     -2.636  0.1450E+03  0.2888E+02
     -2.613  0.1240E+03  0.3168E+02
     -2.591  0.7444E+02  0.3335E+02
     -2.568  0.3411E+02  0.3412E+02
     -2.545  0.4517E+02  0.3514E+02
     -2.523  0.8431E+02  0.3704E+02
     -2.500  0.8149E+02  0.3888E+02
     -2.478  0.4144E+02  0.3982E+02
     -2.455  0.2650E+02  0.4041E+02
     -2.433  0.7099E+02  0.4201E+02
     -2.410  0.1372E+03  0.4511E+02
     -2.388  0.1490E+03  0.4847E+02
     -2.365  0.1065E+03  0.5087E+02
     -2.342  0.7061E+02  0.5246E+02
     -2.320  0.9618E+02  0.5463E+02
     -2.297  0.1541E+03  0.5811E+02
     -2.275  0.1865E+03  0.6231E+02
     -2.252  0.1703E+03  0.6615E+02
     -2.230  0.1136E+03  0.6871E+02
     -2.207  0.5617E+02  0.6998E+02
     -2.185  0.5133E+02  0.7114E+02
     -2.162  0.8283E+02  0.7301E+02
     -2.139  0.8093E+02  0.7483E+02
     -2.117  0.4621E+02  0.7587E+02
     -2.094  0.4271E+02  0.7684E+02
     -2.072  0.9916E+02  0.7907E+02
     -2.049  0.1603E+03  0.8269E+02
     -2.027  0.1638E+03  0.8638E+02
     -2.004  0.1150E+03  0.8898E+02
     -1.982  0.7772E+02  0.9073E+02
     -1.959  0.1041E+03  0.9308E+02
     -1.937  0.1604E+03  0.9669E+02
     -1.914  0.1920E+03  0.1010E+03
     -1.891  0.1691E+03  0.1048E+03
     -1.869  0.1039E+03  0.1072E+03
     -1.846  0.6590E+02  0.1087E+03
     -1.824  0.9945E+02  0.1109E+03
     -1.801  0.1494E+03  0.1143E+03
     -1.779  0.1418E+03  0.1175E+03
     -1.756  0.9544E+02  0.1196E+03
     -1.734  0.8972E+02  0.1217E+03
     -1.711  0.1419E+03  0.1249E+03
     -1.688  0.1847E+03  0.1290E+03
     -1.666  0.1812E+03  0.1331E+03
     -1.643  0.1385E+03  0.1362E+03
     -1.621  0.9640E+02  0.1384E+03
     -1.598  0.1232E+03  0.1412E+03
     -1.576  0.1829E+03  0.1453E+03
     -1.553  0.1880E+03  0.1495E+03
     -1.531  0.1500E+03  0.1529E+03
     -1.508  0.1084E+03  0.1554E+03
     -1.485  0.9251E+02  0.1575E+03
     -1.463  0.1183E+03  0.1601E+03
     -1.440  0.1387E+03  0.1633E+03
     -1.418  0.1179E+03  0.1659E+03
     -1.395  0.8754E+02  0.1679E+03
     -1.373  0.8638E+02  0.1698E+03
     -1.350  0.1146E+03  0.1724E+03
     -1.328  0.1365E+03  0.1755E+03
     -1.305  0.1235E+03  0.1783E+03
     -1.283  0.1055E+03  0.1807E+03
     -1.260  0.1440E+03  0.1839E+03
     -1.237  0.2133E+03  0.1887E+03
     -1.215  0.2536E+03  0.1944E+03
     -1.192  0.2564E+03  0.2002E+03
     -1.170  0.2210E+03  0.2052E+03
     -1.147  0.1724E+03  0.2091E+03
     -1.125  0.1594E+03  0.2127E+03
     -1.102  0.1846E+03  0.2168E+03
     -1.080  0.1981E+03  0.2213E+03
     -1.057  0.1687E+03  0.2251E+03
     -1.034  0.1131E+03  0.2277E+03
     -1.012  0.9082E+02  0.2297E+03
     -0.989  0.1242E+03  0.2325E+03
     -0.967  0.1660E+03  0.2363E+03
     -0.944  0.1659E+03  0.2400E+03
     -0.922  0.1573E+03  0.2436E+03
     -0.899  0.1824E+03  0.2477E+03
     -0.877  0.2100E+03  0.2524E+03
     -0.854  0.2106E+03  0.2572E+03
     -0.831  0.1842E+03  0.2613E+03
     -0.809  0.1372E+03  0.2644E+03
     -0.786  0.8081E+02  0.2662E+03
     -0.764  0.6881E+02  0.2678E+03
     -0.741  0.8568E+02  0.2697E+03
     -0.719  0.8692E+02  0.2717E+03
     -0.696  0.1039E+03  0.2740E+03
     -0.674  0.1637E+03  0.2777E+03
     -0.651  0.2235E+03  0.2827E+03
     -0.629  0.2564E+03  0.2885E+03
     -0.606  0.2669E+03  0.2945E+03
     -0.583  0.2547E+03  0.3003E+03
     -0.561  0.2355E+03  0.3056E+03
     -0.538  0.2325E+03  0.3108E+03
     -0.516  0.2373E+03  0.3162E+03
     -0.493  0.2371E+03  0.3215E+03
     -0.471  0.2264E+03  0.3266E+03
     -0.448  0.1959E+03  0.3311E+03
     -0.426  0.1630E+03  0.3347E+03
     -0.403  0.1493E+03  0.3381E+03
     -0.380  0.1509E+03  0.3415E+03
     -0.358  0.1455E+03  0.3448E+03
     -0.335  0.1586E+03  0.3484E+03
     -0.313  0.1935E+03  0.3527E+03
     -0.290  0.2053E+03  0.3574E+03
     -0.268  0.1904E+03  0.3617E+03
     -0.245  0.1694E+03  0.3655E+03
     -0.223  0.1659E+03  0.3692E+03
     -0.200  0.1950E+03  0.3736E+03
     -0.177  0.2302E+03  0.3788E+03
     -0.155  0.2481E+03  0.3844E+03
     -0.132  0.2436E+03  0.3899E+03
     -0.110  0.2259E+03  0.3950E+03
     -0.087  0.2120E+03  0.3998E+03
     -0.065  0.2038E+03  0.4044E+03
     -0.042  0.1947E+03  0.4088E+03
     -0.020  0.1816E+03  0.4128E+03
      0.003  0.1691E+03  0.4167E+03
      0.025  0.1784E+03  0.4207E+03
      0.048  0.2032E+03  0.4253E+03
      0.071  0.2146E+03  0.4301E+03
      0.093  0.2183E+03  0.4350E+03
      0.116  0.2228E+03  0.4401E+03
      0.138  0.2253E+03  0.4451E+03
      0.161  0.2218E+03  0.4501E+03
      0.183  0.2143E+03  0.4550E+03
      0.206  0.2089E+03  0.4597E+03
      0.228  0.1971E+03  0.4641E+03
      0.251  0.1984E+03  0.4686E+03
      0.274  0.2193E+03  0.4736E+03
      0.296  0.2342E+03  0.4788E+03
      0.319  0.2370E+03  0.4842E+03
      0.341  0.2367E+03  0.4895E+03
      0.364  0.2383E+03  0.4949E+03
      0.386  0.2429E+03  0.5004E+03
      0.409  0.2452E+03  0.5059E+03
      0.431  0.2359E+03  0.5112E+03
      0.454  0.2308E+03  0.5164E+03
      0.477  0.2360E+03  0.5217E+03
      0.499  0.2499E+03  0.5274E+03
      0.522  0.2706E+03  0.5335E+03
      0.544  0.2835E+03  0.5399E+03
      0.567  0.2884E+03  0.5464E+03
      0.589  0.2854E+03  0.5528E+03
      0.612  0.2752E+03  0.5590E+03
      0.634  0.2664E+03  0.5650E+03
      0.657  0.2597E+03  0.5709E+03
      0.679  0.2571E+03  0.5767E+03
      0.702  0.2533E+03  0.5824E+03
      0.725  0.2402E+03  0.5878E+03
      0.747  0.2259E+03  0.5929E+03
      0.770  0.2085E+03  0.5976E+03
      0.792  0.1965E+03  0.6020E+03
      0.815  0.1998E+03  0.6065E+03
      0.837  0.2086E+03  0.6112E+03
      0.860  0.2039E+03  0.6158E+03
      0.882  0.1936E+03  0.6202E+03
      0.905  0.1885E+03  0.6245E+03
      0.928  0.1979E+03  0.6289E+03
      0.950  0.2111E+03  0.6337E+03
      0.973  0.2061E+03  0.6383E+03
      0.995  0.2000E+03  0.6428E+03
      1.018  0.2016E+03  0.6474E+03
      1.040  0.2073E+03  0.6521E+03
      1.063  0.2190E+03  0.6570E+03
      1.085  0.2295E+03  0.6622E+03
      1.108  0.2400E+03  0.6676E+03
      1.131  0.2418E+03  0.6730E+03
      1.153  0.2280E+03  0.6782E+03
      1.176  0.2263E+03  0.6833E+03
      1.198  0.2411E+03  0.6887E+03
      1.221  0.2352E+03  0.6940E+03
      1.243  0.2288E+03  0.6992E+03
      1.266  0.2345E+03  0.7045E+03
      1.288  0.2273E+03  0.7096E+03
      1.311  0.2153E+03  0.7145E+03
      1.333  0.2114E+03  0.7192E+03
      1.356  0.2125E+03  0.7240E+03
      1.379  0.2121E+03  0.7288E+03
      1.401  0.2153E+03  0.7337E+03
      1.424  0.2145E+03  0.7385E+03
      1.446  0.2022E+03  0.7431E+03
      1.469  0.1904E+03  0.7474E+03
      1.491  0.1882E+03  0.7516E+03
      1.514  0.1896E+03  0.7559E+03
      1.536  0.1867E+03  0.7601E+03
      1.559  0.1766E+03  0.7641E+03
      1.582  0.1684E+03  0.7679E+03
      1.604  0.1598E+03  0.7715E+03
      1.627  0.1636E+03  0.7752E+03
      1.649  0.1747E+03  0.7791E+03
      1.672  0.1726E+03  0.7830E+03
      1.694  0.1631E+03  0.7867E+03
      1.717  0.1524E+03  0.7901E+03
      1.739  0.1474E+03  0.7934E+03
      1.762  0.1604E+03  0.7970E+03
      1.784  0.1786E+03  0.8011E+03
      1.807  0.1838E+03  0.8052E+03
      1.830  0.1819E+03  0.8093E+03
      1.852  0.1863E+03  0.8135E+03
      1.875  0.1989E+03  0.8180E+03
      1.897  0.2076E+03  0.8227E+03
      1.920  0.2069E+03  0.8274E+03
      1.942  0.1961E+03  0.8318E+03
      1.965  0.1895E+03  0.8361E+03
      1.987  0.1919E+03  0.8404E+03
      2.010  0.1886E+03  0.8446E+03
      2.033  0.1792E+03  0.8487E+03
      2.055  0.1677E+03  0.8525E+03
      2.078  0.1547E+03  0.8559E+03
      2.100  0.1501E+03  0.8593E+03
      2.123  0.1538E+03  0.8628E+03
      2.145  0.1481E+03  0.8661E+03
      2.168  0.1442E+03  0.8694E+03
      2.190  0.1567E+03  0.8729E+03
      2.213  0.1580E+03  0.8765E+03
      2.236  0.1523E+03  0.8799E+03
      2.258  0.1517E+03  0.8833E+03
      2.281  0.1485E+03  0.8867E+03
      2.303  0.1544E+03  0.8902E+03
      2.326  0.1640E+03  0.8939E+03
      2.348  0.1624E+03  0.8975E+03
      2.371  0.1540E+03  0.9010E+03
      2.393  0.1478E+03  0.9043E+03
      2.416  0.1480E+03  0.9077E+03
      2.438  0.1440E+03  0.9109E+03
      2.461  0.1448E+03  0.9142E+03
      2.484  0.1628E+03  0.9179E+03
      2.506  0.1776E+03  0.9219E+03
      2.529  0.1680E+03  0.9257E+03
      2.551  0.1518E+03  0.9291E+03
      2.574  0.1424E+03  0.9323E+03
      2.596  0.1424E+03  0.9355E+03
      2.619  0.1506E+03  0.9389E+03
      2.641  0.1538E+03  0.9424E+03
      2.664  0.1503E+03  0.9458E+03
      2.687  0.1446E+03  0.9490E+03
      2.709  0.1486E+03  0.9524E+03
      2.732  0.1570E+03  0.9559E+03
      2.754  0.1572E+03  0.9595E+03
      2.777  0.1580E+03  0.9630E+03
      2.799  0.1630E+03  0.9667E+03
      2.822  0.1664E+03  0.9704E+03
      2.844  0.1682E+03  0.9742E+03
      2.867  0.1696E+03  0.9781E+03
      2.890  0.1576E+03  0.9816E+03
      2.912  0.1416E+03  0.9848E+03
      2.935  0.1357E+03  0.9879E+03
      2.957  0.1450E+03  0.9911E+03
      2.980  0.1600E+03  0.9948E+03
      3.002  0.1469E+03  0.9981E+03
      3.025  0.1025E+03  0.1000E+04
      3.047  0.5267E+02  0.1002E+04
      3.070  0.1673E+02  0.1002E+04
      3.092  0.2501E+01  0.1002E+04
      3.115  0.1459E+00  0.1002E+04
      3.138  0.3049E-02  0.1002E+04
      3.160  0.2191E-04  0.1002E+04
      3.183  0.5310E-07  0.1002E+04
      3.205  0.4286E-10  0.1002E+04
      3.228  0.9846E-14  0.1002E+04
      3.250  0.0000E+00  0.1002E+04
      3.273  0.0000E+00  0.1002E+04
      3.295  0.0000E+00  0.1002E+04
      3.318  0.0000E+00  0.1002E+04
      3.341  0.0000E+00  0.1002E+04
