 running on   64 total cores
 distrk:  each k-point on   32 cores,    2 groups
 distr:  one band on   32 cores,    1 groups
 vasp.6.2.1 16May21 (build Nov 23 2021 15:40:41) complex                        
  
 POSCAR found type information on POSCAR Li
 POSCAR found :  1 types and     500 ions
 scaLAPACK will be used
 -----------------------------------------------------------------------------
|                                                                             |
|           W    W    AA    RRRRR   N    N  II  N    N   GGGG   !!!           |
|           W    W   A  A   R    R  NN   N  II  NN   N  G    G  !!!           |
|           W    W  A    A  R    R  N N  N  II  N N  N  G       !!!           |
|           W WW W  AAAAAA  RRRRR   N  N N  II  N  N N  G  GGG   !            |
|           WW  WW  A    A  R   R   N   NN  II  N   NN  G    G                |
|           W    W  A    A  R    R  N    N  II  N    N   GGGG   !!!           |
|                                                                             |
|     For optimal performance we recommend to set                             |
|       NCORE = 2 up to number-of-cores-per-socket                            |
|     NCORE specifies how many cores store one orbital (NPAR=cpu/NCORE).      |
|     This setting can greatly improve the performance of VASP for DFT.       |
|     The default, NCORE=1 might be grossly inefficient on modern             |
|     multi-core architectures or massively parallel machines. Do your        |
|     own testing! More info at https://www.vasp.at/wiki/index.php/NCORE      |
|     Unfortunately you need to use the default for GW and RPA                |
|     calculations (for HF NCORE is supported but not extensively tested      |
|     yet).                                                                   |
|                                                                             |
 -----------------------------------------------------------------------------

 -----------------------------------------------------------------------------
|                                                                             |
|               ----> ADVICE to this user running VASP <----                  |
|                                                                             |
|     You have a (more or less) 'large supercell' and for larger cells it     |
|     might be more efficient to use real-space projection operators.         |
|     Therefore, try LREAL= Auto in the INCAR file.                           |
|     Mind: If you want to do very accurate calculations, keep the            |
|     reciprocal projection scheme (i.e. LREAL=.FALSE.).                      |
|                                                                             |
 -----------------------------------------------------------------------------

 LDA part: xc-table for Pade appr. of Perdew
 POSCAR found type information on POSCAR Li
 POSCAR found :  1 types and     500 ions
 -----------------------------------------------------------------------------
|                                                                             |
|           W    W    AA    RRRRR   N    N  II  N    N   GGGG   !!!           |
|           W    W   A  A   R    R  NN   N  II  NN   N  G    G  !!!           |
|           W    W  A    A  R    R  N N  N  II  N N  N  G       !!!           |
|           W WW W  AAAAAA  RRRRR   N  N N  II  N  N N  G  GGG   !            |
|           WW  WW  A    A  R   R   N   NN  II  N   NN  G    G                |
|           W    W  A    A  R    R  N    N  II  N    N   GGGG   !!!           |
|                                                                             |
|     The distance between some ions is very small. Please check the          |
|     nearest-neighbor list in the OUTCAR file.                               |
|     I HOPE YOU KNOW WHAT YOU ARE DOING!                                     |
|                                                                             |
 -----------------------------------------------------------------------------

 POSCAR, INCAR and KPOINTS ok, starting setup
 FFT: planning ...
 WAVECAR not read
 entering main loop
       N       E                     dE             d eps       ncg     rms          rms(c)
DAV:   1    -0.250902210373E+03   -0.25090E+03   -0.12142E+05  4008   0.656E+02
DAV:   2    -0.857357682163E+03   -0.60646E+03   -0.55451E+03  4612   0.676E+01
DAV:   3    -0.901808293286E+03   -0.44451E+02   -0.40679E+02  5224   0.144E+01
DAV:   4    -0.903351239512E+03   -0.15429E+01   -0.15198E+01  4752   0.293E+00
DAV:   5    -0.903389812849E+03   -0.38573E-01   -0.38495E-01  4904   0.479E-01    0.112E+01
DAV:   6    -0.894699511520E+03    0.86903E+01   -0.15230E+01  4736   0.503E+00    0.828E+00
DAV:   7    -0.889276303412E+03    0.54232E+01   -0.12823E+01  5008   0.508E+00    0.601E+00
DAV:   8    -0.884938257661E+03    0.43380E+01   -0.71717E+00  4856   0.295E+00    0.310E+00
DAV:   9    -0.884164033970E+03    0.77422E+00   -0.39161E+00  4560   0.162E+00    0.156E+00
DAV:  10    -0.884336544198E+03   -0.17251E+00   -0.10860E+00  4824   0.104E+00    0.154E+00
DAV:  11    -0.884062598234E+03    0.27395E+00   -0.48123E-01  4776   0.711E-01    0.693E-01
DAV:  12    -0.884053778070E+03    0.88202E-02   -0.12205E-01  4616   0.294E-01    0.396E-01
DAV:  13    -0.884053009664E+03    0.76841E-03   -0.40011E-02  4824   0.220E-01    0.314E-01
DAV:  14    -0.884045428140E+03    0.75815E-02   -0.13544E-02  4760   0.138E-01    0.164E-01
DAV:  15    -0.884043856391E+03    0.15717E-02   -0.46473E-03  4632   0.706E-02    0.792E-02
DAV:  16    -0.884044373656E+03   -0.51726E-03   -0.16825E-03  4936   0.496E-02    0.770E-02
DAV:  17    -0.884043597103E+03    0.77655E-03   -0.10139E-03  4888   0.365E-02    0.263E-02
DAV:  18    -0.884043583188E+03    0.13915E-04   -0.32833E-04  4488   0.151E-02    0.151E-02
DAV:  19    -0.884043575199E+03    0.79892E-05   -0.69790E-05  4792   0.870E-03
   1 F= -.88404358E+03 E0= -.88398836E+03  d E =-.110437E+00
