Li                                      
           1
    21.650000    0.000000    0.000000
     0.000000   21.650000    0.000000
    -0.000000   -0.000000   21.650000
   Li
   500
Direct configuration=     1
   0.99707836  0.00111064  0.01515414
   0.01155481  0.08956905  0.07291473
   0.00107094  0.20140131  0.15915310
   0.98303010  0.29403048  0.32290890
   0.98308000  0.36939837  0.40740744
   0.98412852  0.46792615  0.48696875
   0.99696078  0.55522604  0.60494504
   0.99939601  0.69927047  0.69108837
   0.00816434  0.82080938  0.82241788
   0.99051956  0.91613044  0.88171133
   0.08853439  0.99282996  0.12690357
   0.11459707  0.10713644  0.18655678
   0.08984067  0.18342665  0.28535288
   0.08292869  0.28052985  0.39095832
   0.10081717  0.37895120  0.50822881
   0.10461391  0.47715095  0.61055484
   0.10686986  0.61812722  0.72185763
   0.07571556  0.68900223  0.81304139
   0.10165966  0.80837218  0.92526398
   0.09805365  0.92500991  0.01655718
   0.22071198  0.00144115  0.18866342
   0.20157166  0.09556167  0.30918419
   0.19237127  0.22393086  0.38961646
   0.21291407  0.30208301  0.50865339
   0.21643186  0.39768951  0.59521966
   0.20167152  0.48556001  0.72536007
   0.18389842  0.60952212  0.83691980
   0.20136798  0.68824506  0.94062113
   0.22383606  0.80484912  0.02142550
   0.20678601  0.92056520  0.08601777
   0.29963788  0.00928427  0.29393458
   0.29041148  0.10733838  0.39384629
   0.30953811  0.19328367  0.51252323
   0.33541892  0.28780470  0.59810995
   0.35160685  0.41258302  0.69876672
   0.32844924  0.51644215  0.81631978
   0.34121729  0.59018719  0.94457986
   0.29204703  0.68093919  0.03701071
   0.30947667  0.81272505  0.11118697
   0.29085305  0.88215738  0.20022516
   0.36670039  0.99705229  0.42699462
   0.40386775  0.09567553  0.49088500
   0.39417399  0.19363489  0.58116987
   0.42306539  0.29319209  0.69879658
   0.44830744  0.42140736  0.80439050
   0.41684390  0.51238842  0.89333907
   0.41339863  0.58624928  0.05593262
   0.40412670  0.69657980  0.11100054
   0.39378845  0.81230808  0.22213744
   0.37287490  0.92513607  0.29065087
   0.50497514  0.96781907  0.49514029
   0.50473923  0.10798876  0.58100226
   0.50510768  0.20673642  0.68522799
   0.52103723  0.28806447  0.80607880
   0.49909820  0.42357567  0.88597404
   0.48771341  0.49784752  0.99101040
   0.48785996  0.60509847  0.12989322
   0.49140353  0.70830392  0.19825769
   0.46032063  0.82470976  0.30299779
   0.47966056  0.90872544  0.37853770
   0.59310845  0.98947570  0.58303363
   0.61931949  0.09359310  0.69627640
   0.60203319  0.19674653  0.80457997
   0.59733747  0.30410850  0.91885829
   0.59577667  0.42131751  0.00418820
   0.57977941  0.50576685  0.10399052
   0.57998134  0.60032437  0.21558266
   0.59662709  0.72412831  0.26768736
   0.59654824  0.81335263  0.37387923
   0.59642695  0.88741053  0.51420450
   0.71639559  0.02944456  0.69790797
   0.71668147  0.09465260  0.80511328
   0.70696080  0.20315019  0.88918647
   0.70566075  0.30173091  0.99352435
   0.72297989  0.41476648  0.08928186
   0.72063141  0.48590628  0.18552038
   0.71363317  0.60182333  0.29734508
   0.69545788  0.70244461  0.38010775
   0.70037835  0.79333758  0.47937526
   0.69845085  0.91025174  0.59816961
   0.81817912  0.98991931  0.77537520
   0.82325492  0.08189835  0.88126890
   0.79413293  0.21745460  0.97830225
   0.80569122  0.29396324  0.07368859
   0.81349309  0.37671332  0.19436241
   0.78806110  0.49799230  0.29650139
   0.81577859  0.59876467  0.40949633
   0.80105165  0.69945674  0.51703483
   0.78842451  0.77880328  0.57546314
   0.79257283  0.89891715  0.67403041
   0.89745728  0.98178891  0.85863441
   0.89697438  0.07967795  0.98104892
   0.89705528  0.18325307  0.08834186
   0.91670484  0.27594433  0.18992249
   0.87108518  0.37597823  0.31546775
   0.87650040  0.47020921  0.39496524
   0.89232170  0.57416535  0.50018844
   0.90377614  0.69076096  0.58220697
   0.90018517  0.80736405  0.66179949
   0.88886514  0.87649927  0.76044454
   0.09739896  0.08619067  0.00073873
   0.08858588  0.20676164  0.08226160
   0.09465725  0.29230293  0.19427331
   0.07076852  0.38722456  0.29566711
   0.09991232  0.48015276  0.39807310
   0.10146182  0.58375882  0.48863339
   0.09725543  0.67446390  0.59286840
   0.09059663  0.80064019  0.68614728
   0.08542436  0.89810087  0.77472086
   0.08843964  0.99189413  0.88402444
   0.20914551  0.10298057  0.09886781
   0.20109472  0.19621126  0.18549712
   0.18601687  0.28448284  0.25773228
   0.19614505  0.38523011  0.38415718
   0.20886270  0.50345967  0.49167102
   0.18266612  0.57982423  0.62149142
   0.21378841  0.69584054  0.73537411
   0.18909804  0.77682207  0.80708392
   0.20955870  0.87552797  0.90065390
   0.18576932  0.02300978  0.98642193
   0.30201260  0.08323443  0.20710814
   0.29792331  0.17788740  0.27840577
   0.27255787  0.29721944  0.37568521
   0.29662503  0.41359902  0.48910738
   0.29390630  0.50461733  0.59821119
   0.28262900  0.60722428  0.72655266
   0.33019951  0.65682633  0.81629947
   0.30283334  0.76286647  0.90777929
   0.29473736  0.91757088  0.96773992
   0.28286339  0.01371961  0.07959922
   0.41673591  0.08504625  0.31787931
   0.39658101  0.19903602  0.41141233
   0.39346647  0.31118784  0.48261418
   0.42180567  0.39212351  0.57412947
   0.41803449  0.50776249  0.69036071
   0.41727807  0.59211240  0.79136682
   0.42813043  0.67204809  0.92424416
   0.40831081  0.80495659  0.97999972
   0.39200546  0.91655992  0.08201494
   0.37677632  0.01891248  0.17203198
   0.50048768  0.09699169  0.40271747
   0.47720480  0.19938468  0.47308764
   0.49540189  0.30812543  0.58246130
   0.50676035  0.37671990  0.71659642
   0.53712106  0.53351712  0.76974849
   0.51467226  0.61594231  0.91615151
   0.53109823  0.69765752  0.03045140
   0.46159662  0.82188693  0.08073748
   0.50098366  0.90774661  0.18884458
   0.47597424  0.02056450  0.30145852
   0.60530546  0.08888967  0.49717668
   0.58357860  0.20507340  0.61203364
   0.59392002  0.31237780  0.68639079
   0.61217449  0.42271954  0.80717346
   0.60922972  0.51895378  0.90750793
   0.59985117  0.60412496  0.01361772
   0.59438898  0.73020409  0.11860372
   0.58795428  0.82722757  0.20195092
   0.59860401  0.89894671  0.28827811
   0.58024386  0.98730779  0.38273814
   0.67996856  0.09220898  0.58576438
   0.71290121  0.21598515  0.71180015
   0.68245697  0.30923551  0.82425515
   0.70924176  0.42504895  0.92486342
   0.70152906  0.53152691  0.03704385
   0.67771556  0.61284705  0.12532685
   0.68798638  0.71134685  0.21295957
   0.73603086  0.79690557  0.29053099
   0.69480803  0.90471134  0.41189052
   0.68755549  0.99378266  0.48038742
   0.80395735  0.11532510  0.72087353
   0.81247330  0.20722805  0.80558479
   0.79167117  0.30126541  0.89259126
   0.80529584  0.43214087  0.02048882
   0.81380934  0.52222589  0.10597271
   0.79658489  0.60169481  0.19642478
   0.83653234  0.70070569  0.29097701
   0.81875674  0.80051191  0.40778847
   0.79779462  0.92631535  0.48961607
   0.78806908  0.02629542  0.59852511
   0.93503023  0.10154414  0.78343520
   0.90528927  0.19499580  0.88917691
   0.90452188  0.30772923  0.99451928
   0.90391403  0.38560653  0.09783611
   0.90131692  0.49014981  0.22795399
   0.89722632  0.58794212  0.29242538
   0.91014368  0.68278782  0.42053602
   0.89387832  0.82535372  0.48295385
   0.88563557  0.89504804  0.58389132
   0.90051546  0.99754531  0.68726602
   0.99184783  0.09482824  0.89798677
   0.97083128  0.19969377  0.98098938
   0.99077228  0.31579939  0.08473366
   0.95984332  0.39558148  0.19704478
   0.98715982  0.46513231  0.31724816
   0.98335924  0.58072769  0.38845369
   0.00742301  0.68530758  0.49536628
   0.02005998  0.80576285  0.59355042
   0.99666401  0.89652627  0.67615070
   0.99584613  0.00782639  0.79828693
   0.20033556  0.17204232  0.98406356
   0.19691380  0.31071277  0.10768902
   0.20010404  0.39228103  0.20049060
   0.17406246  0.46188056  0.27236661
   0.17981372  0.57896038  0.39320526
   0.22589869  0.66898732  0.50887343
   0.20763475  0.76426250  0.60914836
   0.19532342  0.88156485  0.72440055
   0.18511007  0.00426999  0.79234056
   0.20561904  0.10418830  0.88305552
   0.30300615  0.20360506  0.10186829
   0.28278258  0.29519057  0.21075176
   0.31242688  0.39301554  0.29942870
   0.26125464  0.49445112  0.38808940
   0.27979714  0.60053170  0.52463036
   0.28018562  0.68624501  0.63778954
   0.29232499  0.78981373  0.73299324
   0.29764608  0.88730581  0.81944764
   0.31373649  0.01868777  0.87592194
   0.29692601  0.10559006  0.96903208
   0.39255288  0.19953257  0.19266419
   0.39305219  0.28821152  0.30104201
   0.37346255  0.39751580  0.38346686
   0.37524210  0.48747931  0.48330209
   0.42666201  0.59989929  0.59933354
   0.40534028  0.68968290  0.72379905
   0.43347944  0.78966752  0.80735260
   0.40590378  0.90104629  0.88709284
   0.39511928  0.00883274  0.00403331
   0.37608784  0.09031949  0.07435231
   0.50100333  0.18675606  0.32454846
   0.50079162  0.33584980  0.37795094
   0.51456308  0.40539314  0.47190775
   0.50140369  0.50905663  0.57421083
   0.52879348  0.60818529  0.69116445
   0.52440607  0.68691510  0.80115875
   0.51638063  0.79652684  0.91805236
   0.50326137  0.90553076  0.97929387
   0.53309329  0.00369020  0.09543942
   0.50095004  0.09645830  0.18093396
   0.59399926  0.20628826  0.41966898
   0.61395823  0.30816678  0.50907058
   0.58704608  0.38925807  0.60537421
   0.60937161  0.51216718  0.69021193
   0.62371287  0.61809650  0.80090372
   0.62488979  0.70451915  0.90257772
   0.61206180  0.79412781  0.00192463
   0.61565561  0.88815190  0.07922723
   0.60496031  0.98350275  0.22725136
   0.59802346  0.09867223  0.31186970
   0.69651518  0.20459080  0.49076864
   0.70547846  0.30144150  0.60172197
   0.67325462  0.42203879  0.71133906
   0.68298972  0.52382856  0.81769736
   0.71620900  0.60930288  0.91377104
   0.69720548  0.72273481  0.00188373
   0.74295957  0.81101525  0.09965802
   0.71070124  0.86800225  0.20100868
   0.70308465  0.00149307  0.30411231
   0.69723507  0.08964503  0.39140185
   0.79298125  0.17951944  0.61016222
   0.77614840  0.30807319  0.69750962
   0.78438870  0.39920539  0.79384019
   0.78168088  0.51841327  0.90879847
   0.79123551  0.60195062  0.01028321
   0.81908039  0.70213932  0.08894063
   0.83549001  0.78882036  0.21128094
   0.77685260  0.91197011  0.31783734
   0.80658851  0.01660974  0.40862055
   0.79565372  0.11486143  0.49100678
   0.89876302  0.24901168  0.69440819
   0.89750683  0.30682854  0.80619063
   0.91832016  0.39005751  0.89685336
   0.90357240  0.51280928  0.01536850
   0.91970832  0.61714714  0.11069634
   0.92680054  0.69947172  0.19197870
   0.89613402  0.80509438  0.34762884
   0.90407572  0.92680301  0.41950977
   0.90023790  0.01410210  0.50909453
   0.90987927  0.11014689  0.60543545
   0.01615306  0.21848956  0.78887978
   0.00732027  0.29708298  0.88927769
   0.97593841  0.39712822  0.98627530
   0.97168286  0.50312340  0.09197903
   0.01805123  0.61768095  0.22695210
   0.99637497  0.72269976  0.30319446
   0.02007020  0.79322710  0.43597577
   0.00325887  0.90264668  0.49740544
   0.99387347  0.99819596  0.59546558
   0.98073898  0.10503832  0.72504555
   0.09425561  0.17096424  0.88649256
   0.10180281  0.28194370  0.99298131
   0.07423943  0.39408872  0.10027336
   0.07303719  0.46646356  0.20851158
   0.08313905  0.57933875  0.33022942
   0.11192156  0.67545193  0.41084615
   0.13188303  0.77208534  0.48381626
   0.10112391  0.88098321  0.60699176
   0.07495030  0.01637066  0.70100115
   0.09788652  0.09198004  0.79636711
   0.31786002  0.29893226  0.98753485
   0.29782306  0.37752651  0.08132997
   0.28359256  0.48348359  0.19807651
   0.30517234  0.60704865  0.30408776
   0.28140874  0.68439062  0.39313447
   0.29127549  0.76843553  0.49449401
   0.31142231  0.87303339  0.63513249
   0.31032993  0.97930112  0.71416852
   0.31779263  0.09017957  0.76201121
   0.31732379  0.22625155  0.88573820
   0.40032031  0.31249757  0.13754359
   0.40078819  0.39769490  0.20386111
   0.38627875  0.51226081  0.30109390
   0.38789284  0.59946532  0.42167648
   0.41457480  0.69783264  0.49000586
   0.38917478  0.78043288  0.58763236
   0.42436126  0.88405340  0.72194754
   0.39958357  0.99203312  0.79433751
   0.39106121  0.09186857  0.90097875
   0.40657684  0.20912464  0.98979561
   0.51113991  0.28491381  0.21881039
   0.50049305  0.42197955  0.31836660
   0.51150725  0.49411970  0.41101900
   0.51115005  0.59462855  0.50613527
   0.50611239  0.70875293  0.59057975
   0.52791322  0.81473097  0.67740875
   0.52918576  0.89893517  0.79461999
   0.49461802  0.99806099  0.88340436
   0.47542597  0.10983406  0.98896695
   0.48398897  0.17722092  0.08520723
   0.61125275  0.30049292  0.30318572
   0.64626796  0.38706022  0.41901789
   0.62051157  0.50660203  0.49226315
   0.63237312  0.61534304  0.57725061
   0.60751336  0.71069984  0.69742399
   0.61170100  0.82172777  0.78624615
   0.60711243  0.90356651  0.90789379
   0.61825681  0.01326815  0.98689334
   0.62456182  0.10091281  0.08744401
   0.57348609  0.20461721  0.19809231
   0.71706653  0.29956725  0.39565612
   0.70643140  0.40007407  0.53383977
   0.69345430  0.49702780  0.60519598
   0.65997358  0.60788853  0.69357574
   0.68594661  0.72274133  0.78793326
   0.70919386  0.83758085  0.89126104
   0.72526232  0.88897257  0.99977792
   0.70635586  0.98857209  0.09120604
   0.69226973  0.13396532  0.19435725
   0.70340726  0.21928715  0.28840892
   0.81321442  0.29456097  0.52578049
   0.79845890  0.41132635  0.62116868
   0.78326435  0.52091141  0.72408738
   0.80929007  0.64481655  0.77956230
   0.76159045  0.70467174  0.88882712
   0.82896766  0.82037062  0.99882519
   0.82870270  0.91258759  0.11720204
   0.79935590  0.01284118  0.17323874
   0.78059282  0.09177370  0.31332473
   0.80875960  0.17716082  0.39698572
   0.89202238  0.31396301  0.62525473
   0.87367286  0.38931515  0.72878657
   0.90663360  0.49030535  0.81201687
   0.84904640  0.61367806  0.90552971
   0.90700680  0.69437872  0.98981305
   0.91655507  0.79109652  0.09505113
   0.89883773  0.90739110  0.22507954
   0.92194329  0.00906229  0.30862365
   0.91637387  0.07429596  0.39464881
   0.91619499  0.19003699  0.50597528
   0.99542435  0.32824038  0.69887138
   0.98873924  0.39777675  0.79927042
   0.98187150  0.50732438  0.91940681
   0.99643291  0.61868975  0.01748861
   0.99259359  0.71151659  0.10700389
   0.00056325  0.81813641  0.19761094
   0.98109517  0.88808026  0.29737200
   0.01303323  0.99616912  0.40755646
   0.02306907  0.10053632  0.48884773
   0.00504148  0.18871333  0.61195337
   0.11503361  0.31542421  0.79227697
   0.10195079  0.42188464  0.88299540
   0.06231498  0.48760239  0.98575639
   0.10526922  0.55398211  0.11544148
   0.08626785  0.68475596  0.19059230
   0.11194955  0.79523152  0.30799544
   0.09715435  0.88352382  0.40615316
   0.10619249  0.99970128  0.50141483
   0.09290176  0.08976861  0.60582874
   0.10848697  0.19930525  0.70173440
   0.21818740  0.29626946  0.87225468
   0.18539514  0.40287251  0.99491809
   0.18898568  0.46670457  0.10143579
   0.19904087  0.59148824  0.19459079
   0.19342380  0.69906437  0.29508991
   0.20336904  0.80150546  0.40465007
   0.20514231  0.89826937  0.51935808
   0.20589958  0.99411102  0.63258176
   0.22645246  0.08824547  0.70683215
   0.20903834  0.21501378  0.74862995
   0.39951609  0.38611434  0.00464651
   0.41046245  0.49529973  0.11014078
   0.40685603  0.58848492  0.21215872
   0.38596662  0.68784391  0.30696455
   0.40718332  0.79926406  0.41397650
   0.39528578  0.88068928  0.48879681
   0.38998876  0.98700813  0.58815305
   0.39415719  0.11043152  0.70003869
   0.41321751  0.20102456  0.79643330
   0.40181364  0.31905107  0.88361651
   0.49756955  0.39109004  0.10246786
   0.49681098  0.49268286  0.22656017
   0.50013459  0.60576731  0.31180090
   0.49883806  0.69000324  0.37527116
   0.49946192  0.79838472  0.50968793
   0.46939384  0.91327029  0.58965533
   0.48576087  0.98867942  0.69452581
   0.50479503  0.11573034  0.77821986
   0.47871187  0.20839681  0.91101312
   0.50706390  0.30436391  0.99668348
   0.59669249  0.38136838  0.19726104
   0.61537585  0.50438945  0.31072084
   0.61960949  0.59965602  0.37872535
   0.58993059  0.70373068  0.46360960
   0.60760321  0.81339825  0.58757012
   0.59517673  0.92749831  0.68053659
   0.57268579  0.00666613  0.79966291
   0.57696679  0.10707809  0.88887538
   0.59872704  0.20602247  0.00642114
   0.59332708  0.30892095  0.08930921
   0.70957753  0.38426933  0.28658670
   0.73292179  0.48315036  0.40675127
   0.70962685  0.58703675  0.48287903
   0.65131474  0.70807624  0.59236747
   0.69618578  0.81340216  0.69349607
   0.70773099  0.92711032  0.80075463
   0.68837994  0.98874002  0.88251445
   0.70501864  0.08690460  0.97250190
   0.69065215  0.20544852  0.10570143
   0.68147813  0.29386599  0.18989978
   0.79220924  0.37379301  0.39869499
   0.80445553  0.47263950  0.48732597
   0.76388919  0.59251341  0.59465793
   0.76470744  0.69192681  0.69208602
   0.79781281  0.79638684  0.79161421
   0.81163966  0.91998675  0.90141662
   0.79601876  0.99775515  0.98967112
   0.76808632  0.12436636  0.09603471
   0.80122404  0.20072032  0.18613750
   0.79261770  0.27316281  0.29830931
   0.89515016  0.39012001  0.50380686
   0.87226885  0.47860968  0.61284845
   0.91489639  0.61649071  0.67867224
   0.88219977  0.73257387  0.79141942
   0.88641830  0.82242415  0.90997040
   0.89820758  0.95578775  0.99795453
   0.88791568  0.04057319  0.13055969
   0.90070082  0.13344338  0.21212459
   0.90778283  0.20968480  0.29327530
   0.89029391  0.28902304  0.41927020
   0.98335616  0.41391626  0.61180014
   0.98532876  0.50839836  0.71335211
   0.97216083  0.62002281  0.82766461
   0.97656602  0.71681685  0.90893074
   0.99000994  0.82522626  0.98602475
   0.99915861  0.90021529  0.12753222
   0.99976916  0.01156316  0.19604303
   0.02274984  0.09656058  0.30579298
   0.99919079  0.20699804  0.40743521
   0.99298137  0.27592281  0.52277118
   0.07996358  0.41491681  0.68394639
   0.07516048  0.51743621  0.82202455
   0.07776875  0.61206629  0.91854337
   0.10337367  0.70519644  0.03057654
   0.09352826  0.81688615  0.10661666
   0.11302016  0.91116132  0.21304932
   0.11710432  0.00002852  0.31147396
   0.09597677  0.09757130  0.43304366
   0.10814632  0.18572448  0.52119600
   0.08728809  0.27538822  0.62826029
   0.20823148  0.39732548  0.79060283
   0.18279944  0.51472479  0.89417049
   0.19070890  0.56365456  0.00594666
   0.19796771  0.68107792  0.11673761
   0.19586673  0.80508866  0.22223401
   0.20523984  0.90627726  0.29677520
   0.18796801  0.98540851  0.40790764
   0.20690441  0.10099490  0.49897840
   0.22283319  0.20248369  0.62299455
   0.21170256  0.32806524  0.68099834
   0.31742315  0.39313630  0.90096563
   0.30921395  0.48561120  0.99644818
   0.30515981  0.58964428  0.10895774
   0.29557445  0.72579752  0.18436731
   0.31068911  0.79265057  0.31483067
   0.30061595  0.89807172  0.39494855
   0.29782897  0.99144584  0.51116024
   0.30368983  0.07963135  0.61674889
   0.32336793  0.20904750  0.68882885
   0.32057937  0.30661198  0.79926466
