 504 504   0   0
  0.2106490E+02  0.2170700E-08  0.2148436E-08  0.2276500E-08  0.5000000E-15
  1.000000000000000E-004
  CAR 
 Li                                      
      3.28625325     -3.48014945  301      0.29997105      1.00000000
     -3.480  0.0000E+00  0.0000E+00
     -3.458  0.0000E+00  0.0000E+00
     -3.435  0.0000E+00  0.0000E+00
     -3.412  0.0000E+00  0.0000E+00
     -3.390  0.0000E+00  0.0000E+00
     -3.367  0.0000E+00  0.0000E+00
     -3.345  0.1969E-13  0.4441E-15
     -3.322  0.7119E-10  0.1606E-11
     -3.300  0.8645E-07  0.1951E-08
     -3.277  0.3480E-04  0.7869E-06
     -3.255  0.4685E-02  0.1065E-03
     -3.232  0.2135E+00  0.4921E-02
     -3.209  0.3342E+01  0.8030E-01
     -3.187  0.1829E+02  0.4929E+00
     -3.164  0.3553E+02  0.1294E+01
     -3.142  0.2473E+02  0.1852E+01
     -3.119  0.7669E+01  0.2025E+01
     -3.097  0.1407E+02  0.2342E+01
     -3.074  0.4914E+02  0.3451E+01
     -3.052  0.8615E+02  0.5394E+01
     -3.029  0.7697E+02  0.7130E+01
     -3.007  0.3307E+02  0.7876E+01
     -2.984  0.1417E+02  0.8195E+01
     -2.961  0.4141E+02  0.9129E+01
     -2.939  0.8372E+02  0.1102E+02
     -2.916  0.8101E+02  0.1284E+02
     -2.894  0.4254E+02  0.1380E+02
     -2.871  0.2510E+02  0.1437E+02
     -2.849  0.4928E+02  0.1548E+02
     -2.826  0.8676E+02  0.1744E+02
     -2.804  0.1048E+03  0.1980E+02
     -2.781  0.7334E+02  0.2146E+02
     -2.758  0.3941E+02  0.2235E+02
     -2.736  0.6766E+02  0.2387E+02
     -2.713  0.1204E+03  0.2659E+02
     -2.691  0.1351E+03  0.2963E+02
     -2.668  0.1103E+03  0.3212E+02
     -2.646  0.6486E+02  0.3358E+02
     -2.623  0.4082E+02  0.3451E+02
     -2.601  0.6218E+02  0.3591E+02
     -2.578  0.7973E+02  0.3771E+02
     -2.555  0.6705E+02  0.3922E+02
     -2.533  0.5074E+02  0.4036E+02
     -2.510  0.6381E+02  0.4180E+02
     -2.488  0.9619E+02  0.4397E+02
     -2.465  0.1142E+03  0.4655E+02
     -2.443  0.1126E+03  0.4909E+02
     -2.420  0.1063E+03  0.5148E+02
     -2.398  0.1051E+03  0.5386E+02
     -2.375  0.1220E+03  0.5661E+02
     -2.352  0.1489E+03  0.5997E+02
     -2.330  0.1695E+03  0.6379E+02
     -2.307  0.1524E+03  0.6723E+02
     -2.285  0.1048E+03  0.6959E+02
     -2.262  0.6660E+02  0.7109E+02
     -2.240  0.5046E+02  0.7223E+02
     -2.217  0.6132E+02  0.7361E+02
     -2.195  0.7164E+02  0.7523E+02
     -2.172  0.7000E+02  0.7681E+02
     -2.149  0.1018E+03  0.7910E+02
     -2.127  0.1317E+03  0.8207E+02
     -2.104  0.1316E+03  0.8504E+02
     -2.082  0.1313E+03  0.8800E+02
     -2.059  0.1266E+03  0.9086E+02
     -2.037  0.1105E+03  0.9335E+02
     -2.014  0.1197E+03  0.9605E+02
     -1.992  0.1536E+03  0.9951E+02
     -1.969  0.1746E+03  0.1035E+03
     -1.946  0.1725E+03  0.1073E+03
     -1.924  0.1327E+03  0.1103E+03
     -1.901  0.7088E+02  0.1119E+03
     -1.879  0.5803E+02  0.1132E+03
     -1.856  0.9832E+02  0.1155E+03
     -1.834  0.1338E+03  0.1185E+03
     -1.811  0.1377E+03  0.1216E+03
     -1.789  0.1330E+03  0.1246E+03
     -1.766  0.1505E+03  0.1280E+03
     -1.743  0.1783E+03  0.1320E+03
     -1.721  0.1804E+03  0.1361E+03
     -1.698  0.1589E+03  0.1397E+03
     -1.676  0.1287E+03  0.1426E+03
     -1.653  0.1247E+03  0.1454E+03
     -1.631  0.1378E+03  0.1485E+03
     -1.608  0.1499E+03  0.1519E+03
     -1.586  0.1527E+03  0.1553E+03
     -1.563  0.1355E+03  0.1584E+03
     -1.540  0.1164E+03  0.1610E+03
     -1.518  0.1072E+03  0.1634E+03
     -1.495  0.1107E+03  0.1659E+03
     -1.473  0.1085E+03  0.1683E+03
     -1.450  0.1042E+03  0.1707E+03
     -1.428  0.1267E+03  0.1736E+03
     -1.405  0.1547E+03  0.1770E+03
     -1.383  0.1500E+03  0.1804E+03
     -1.360  0.1421E+03  0.1836E+03
     -1.337  0.1538E+03  0.1871E+03
     -1.315  0.1668E+03  0.1909E+03
     -1.292  0.1800E+03  0.1949E+03
     -1.270  0.2065E+03  0.1996E+03
     -1.247  0.2219E+03  0.2046E+03
     -1.225  0.2135E+03  0.2094E+03
     -1.202  0.2062E+03  0.2140E+03
     -1.180  0.1941E+03  0.2184E+03
     -1.157  0.1756E+03  0.2224E+03
     -1.134  0.1543E+03  0.2259E+03
     -1.112  0.1288E+03  0.2288E+03
     -1.089  0.1141E+03  0.2313E+03
     -1.067  0.1163E+03  0.2340E+03
     -1.044  0.1414E+03  0.2372E+03
     -1.022  0.1581E+03  0.2407E+03
     -0.999  0.1512E+03  0.2441E+03
     -0.977  0.1510E+03  0.2475E+03
     -0.954  0.1704E+03  0.2514E+03
     -0.931  0.1953E+03  0.2558E+03
     -0.909  0.2059E+03  0.2604E+03
     -0.886  0.1862E+03  0.2646E+03
     -0.864  0.1535E+03  0.2681E+03
     -0.841  0.1328E+03  0.2711E+03
     -0.819  0.1402E+03  0.2742E+03
     -0.796  0.1561E+03  0.2778E+03
     -0.774  0.1599E+03  0.2814E+03
     -0.751  0.1504E+03  0.2848E+03
     -0.728  0.1514E+03  0.2882E+03
     -0.706  0.1782E+03  0.2922E+03
     -0.683  0.2120E+03  0.2970E+03
     -0.661  0.2443E+03  0.3025E+03
     -0.638  0.2420E+03  0.3079E+03
     -0.616  0.2072E+03  0.3126E+03
     -0.593  0.1927E+03  0.3170E+03
     -0.571  0.2085E+03  0.3217E+03
     -0.548  0.2288E+03  0.3268E+03
     -0.525  0.2315E+03  0.3321E+03
     -0.503  0.2088E+03  0.3368E+03
     -0.480  0.1772E+03  0.3408E+03
     -0.458  0.1618E+03  0.3444E+03
     -0.435  0.1673E+03  0.3482E+03
     -0.413  0.1722E+03  0.3521E+03
     -0.390  0.1672E+03  0.3558E+03
     -0.368  0.1651E+03  0.3596E+03
     -0.345  0.1809E+03  0.3636E+03
     -0.322  0.1933E+03  0.3680E+03
     -0.300  0.1884E+03  0.3722E+03
     -0.277  0.1850E+03  0.3764E+03
     -0.255  0.1916E+03  0.3807E+03
     -0.232  0.2136E+03  0.3856E+03
     -0.210  0.2331E+03  0.3908E+03
     -0.187  0.2371E+03  0.3962E+03
     -0.165  0.2418E+03  0.4016E+03
     -0.142  0.2493E+03  0.4072E+03
     -0.120  0.2481E+03  0.4128E+03
     -0.097  0.2311E+03  0.4180E+03
     -0.074  0.2074E+03  0.4227E+03
     -0.052  0.2024E+03  0.4273E+03
     -0.029  0.2065E+03  0.4320E+03
     -0.007  0.2053E+03  0.4366E+03
      0.016  0.2080E+03  0.4413E+03
      0.038  0.2156E+03  0.4461E+03
      0.061  0.2247E+03  0.4512E+03
      0.083  0.2210E+03  0.4562E+03
      0.106  0.1981E+03  0.4607E+03
      0.129  0.1829E+03  0.4648E+03
      0.151  0.1885E+03  0.4690E+03
      0.174  0.2003E+03  0.4735E+03
      0.196  0.2146E+03  0.4784E+03
      0.219  0.2307E+03  0.4836E+03
      0.241  0.2415E+03  0.4890E+03
      0.264  0.2493E+03  0.4947E+03
      0.286  0.2560E+03  0.5004E+03
      0.309  0.2675E+03  0.5065E+03
      0.332  0.2857E+03  0.5129E+03
      0.354  0.2879E+03  0.5194E+03
      0.377  0.2746E+03  0.5256E+03
      0.399  0.2789E+03  0.5319E+03
      0.422  0.2951E+03  0.5385E+03
      0.444  0.2955E+03  0.5452E+03
      0.467  0.2826E+03  0.5516E+03
      0.489  0.2760E+03  0.5578E+03
      0.512  0.2618E+03  0.5637E+03
      0.535  0.2408E+03  0.5691E+03
      0.557  0.2376E+03  0.5745E+03
      0.580  0.2496E+03  0.5801E+03
      0.602  0.2413E+03  0.5856E+03
      0.625  0.2308E+03  0.5908E+03
      0.647  0.2270E+03  0.5959E+03
      0.670  0.2212E+03  0.6009E+03
      0.692  0.2142E+03  0.6057E+03
      0.715  0.2002E+03  0.6102E+03
      0.738  0.1883E+03  0.6145E+03
      0.760  0.1933E+03  0.6188E+03
      0.783  0.2079E+03  0.6235E+03
      0.805  0.2110E+03  0.6283E+03
      0.828  0.2096E+03  0.6330E+03
      0.850  0.2101E+03  0.6378E+03
      0.873  0.2181E+03  0.6427E+03
      0.895  0.2346E+03  0.6480E+03
      0.918  0.2462E+03  0.6535E+03
      0.941  0.2493E+03  0.6591E+03
      0.963  0.2496E+03  0.6648E+03
      0.986  0.2443E+03  0.6703E+03
      1.008  0.2421E+03  0.6757E+03
      1.031  0.2415E+03  0.6812E+03
      1.053  0.2317E+03  0.6864E+03
      1.076  0.2238E+03  0.6915E+03
      1.098  0.2227E+03  0.6965E+03
      1.121  0.2233E+03  0.7015E+03
      1.144  0.2297E+03  0.7067E+03
      1.166  0.2367E+03  0.7120E+03
      1.189  0.2388E+03  0.7174E+03
      1.211  0.2315E+03  0.7226E+03
      1.234  0.2177E+03  0.7276E+03
      1.256  0.2050E+03  0.7322E+03
      1.279  0.2003E+03  0.7367E+03
      1.301  0.2038E+03  0.7413E+03
      1.324  0.2097E+03  0.7460E+03
      1.347  0.2146E+03  0.7509E+03
      1.369  0.2245E+03  0.7559E+03
      1.392  0.2323E+03  0.7612E+03
      1.414  0.2287E+03  0.7663E+03
      1.437  0.2145E+03  0.7712E+03
      1.459  0.2035E+03  0.7758E+03
      1.482  0.2104E+03  0.7805E+03
      1.504  0.2234E+03  0.7855E+03
      1.527  0.2221E+03  0.7906E+03
      1.550  0.2128E+03  0.7954E+03
      1.572  0.2133E+03  0.8002E+03
      1.595  0.2216E+03  0.8052E+03
      1.617  0.2198E+03  0.8101E+03
      1.640  0.2111E+03  0.8149E+03
      1.662  0.2097E+03  0.8196E+03
      1.685  0.2104E+03  0.8244E+03
      1.707  0.2025E+03  0.8289E+03
      1.730  0.1949E+03  0.8333E+03
      1.753  0.2018E+03  0.8379E+03
      1.775  0.2084E+03  0.8426E+03
      1.798  0.2094E+03  0.8473E+03
      1.820  0.2121E+03  0.8521E+03
      1.843  0.2021E+03  0.8566E+03
      1.865  0.1972E+03  0.8611E+03
      1.888  0.1981E+03  0.8656E+03
      1.910  0.1899E+03  0.8698E+03
      1.933  0.1884E+03  0.8741E+03
      1.956  0.1887E+03  0.8783E+03
      1.978  0.1836E+03  0.8825E+03
      2.001  0.1764E+03  0.8865E+03
      2.023  0.1754E+03  0.8904E+03
      2.046  0.1719E+03  0.8943E+03
      2.068  0.1633E+03  0.8980E+03
      2.091  0.1655E+03  0.9017E+03
      2.113  0.1654E+03  0.9054E+03
      2.136  0.1573E+03  0.9090E+03
      2.159  0.1604E+03  0.9126E+03
      2.181  0.1636E+03  0.9163E+03
      2.204  0.1642E+03  0.9200E+03
      2.226  0.1709E+03  0.9238E+03
      2.249  0.1667E+03  0.9276E+03
      2.271  0.1477E+03  0.9309E+03
      2.294  0.1346E+03  0.9340E+03
      2.316  0.1340E+03  0.9370E+03
      2.339  0.1344E+03  0.9400E+03
      2.362  0.1313E+03  0.9430E+03
      2.384  0.1352E+03  0.9460E+03
      2.407  0.1474E+03  0.9494E+03
      2.429  0.1471E+03  0.9527E+03
      2.452  0.1495E+03  0.9561E+03
      2.474  0.1555E+03  0.9596E+03
      2.497  0.1501E+03  0.9629E+03
      2.519  0.1387E+03  0.9661E+03
      2.542  0.1371E+03  0.9692E+03
      2.565  0.1413E+03  0.9724E+03
      2.587  0.1380E+03  0.9755E+03
      2.610  0.1293E+03  0.9784E+03
      2.632  0.1340E+03  0.9814E+03
      2.655  0.1429E+03  0.9846E+03
      2.677  0.1299E+03  0.9876E+03
      2.700  0.1079E+03  0.9900E+03
      2.722  0.1018E+03  0.9923E+03
      2.745  0.1066E+03  0.9947E+03
      2.767  0.1041E+03  0.9970E+03
      2.790  0.9822E+02  0.9993E+03
      2.813  0.9307E+02  0.1001E+04
      2.835  0.8693E+02  0.1003E+04
      2.858  0.8227E+02  0.1005E+04
      2.880  0.6646E+02  0.1007E+04
      2.903  0.4126E+02  0.1008E+04
      2.925  0.2398E+02  0.1008E+04
      2.948  0.2593E+02  0.1009E+04
      2.970  0.2982E+02  0.1009E+04
      2.993  0.1929E+02  0.1010E+04
      3.016  0.6378E+01  0.1010E+04
      3.038  0.9597E+00  0.1010E+04
      3.061  0.5721E-01  0.1010E+04
      3.083  0.1233E-02  0.1010E+04
      3.106  0.9155E-05  0.1010E+04
      3.128  0.2288E-07  0.1010E+04
      3.151  0.1900E-10  0.1010E+04
      3.173  0.4922E-14  0.1010E+04
      3.196  0.0000E+00  0.1010E+04
      3.219  0.0000E+00  0.1010E+04
      3.241  0.0000E+00  0.1010E+04
      3.264  0.0000E+00  0.1010E+04
      3.286  0.0000E+00  0.1010E+04
