       N       E                     dE             d eps       ncg     rms          rms(c)
DAV:   1    -0.295294171863E+03   -0.29529E+03   -0.12107E+05  4040   0.652E+02
DAV:   2    -0.888757178261E+03   -0.59346E+03   -0.54300E+03  4644   0.664E+01
DAV:   3    -0.931698229500E+03   -0.42941E+02   -0.39238E+02  5200   0.141E+01
DAV:   4    -0.933186767476E+03   -0.14885E+01   -0.14654E+01  4680   0.286E+00
DAV:   5    -0.933221495171E+03   -0.34728E-01   -0.34660E-01  4872   0.462E-01    0.945E+00
DAV:   6    -0.926845343757E+03    0.63762E+01   -0.12083E+01  4608   0.453E+00    0.700E+00
DAV:   7    -0.923409122956E+03    0.34362E+01   -0.10450E+01  4656   0.438E+00    0.531E+00
DAV:   8    -0.920004129366E+03    0.34050E+01   -0.51498E+00  4656   0.273E+00    0.299E+00
DAV:   9    -0.919427054961E+03    0.57707E+00   -0.27378E+00  4544   0.156E+00    0.192E+00
DAV:  10    -0.919185354143E+03    0.24170E+00   -0.11847E+00  4696   0.109E+00    0.130E+00
DAV:  11    -0.919066676133E+03    0.11868E+00   -0.42929E-01  4480   0.561E-01    0.666E-01
DAV:  12    -0.919082030333E+03   -0.15354E-01   -0.93867E-02  4696   0.326E-01    0.554E-01
DAV:  13    -0.919052054440E+03    0.29976E-01   -0.55087E-02  4688   0.268E-01    0.302E-01
DAV:  14    -0.919047917982E+03    0.41365E-02   -0.15219E-02  4560   0.129E-01    0.157E-01
DAV:  15    -0.919047690863E+03    0.22712E-03   -0.62569E-03  4584   0.851E-02    0.107E-01
DAV:  16    -0.919046726108E+03    0.96476E-03   -0.23295E-03  4576   0.572E-02    0.645E-02
DAV:  17    -0.919046427421E+03    0.29869E-03   -0.78283E-04  4456   0.277E-02    0.292E-02
DAV:  18    -0.919046395441E+03    0.31980E-04   -0.25839E-04  4472   0.159E-02    0.189E-02
DAV:  19    -0.919046391641E+03    0.37999E-05   -0.94167E-05  4640   0.114E-02
   1 F= -.91904639E+03 E0= -.91898593E+03  d E =-.120931E+00
