Li                                      
           1
   -10.853500   18.798813    0.000000
   -18.606000  -10.742179    0.000000
     0.000000    0.000000   22.765000
   Li
   504
Direct configuration=     1
   0.97712645  0.02012367  0.98755564
   0.91325226  0.04397425  0.65955926
   0.86409984  0.08290816  0.31627230
   0.78860737  0.10047823  0.00338191
   0.70744457  0.16025785  0.68264948
   0.62590992  0.21513196  0.32413272
   0.55606640  0.25288870  0.99270702
   0.48423935  0.29313550  0.66835643
   0.42606439  0.33342825  0.32909102
   0.37338843  0.38268587  0.99287649
   0.25524816  0.41365473  0.67673973
   0.23971547  0.44963962  0.33690433
   0.05084485  0.02542818  0.65850109
   0.99366657  0.08261016  0.34100238
   0.91274832  0.12678440  0.99735759
   0.85918753  0.15058730  0.68244393
   0.76712006  0.21040411  0.33328494
   0.71413489  0.21894382  0.00450727
   0.62857208  0.28200435  0.68694951
   0.56925924  0.33805610  0.32614617
   0.50974346  0.38650343  0.99390992
   0.41235705  0.39233523  0.65235636
   0.36548699  0.45597618  0.32497545
   0.29143899  0.51713080  0.98445921
   0.13529247  0.09272854  0.34521903
   0.06226004  0.11605426  0.00685229
   0.98017595  0.15630265  0.68215681
   0.92182950  0.20238276  0.32246773
   0.85935984  0.24913041  0.00991627
   0.77243244  0.27898437  0.67034783
   0.71740643  0.32634102  0.34099792
   0.64832554  0.35319512  0.01037375
   0.56742176  0.39614830  0.66381678
   0.49191805  0.45815987  0.32919291
   0.42352578  0.50610688  0.99782129
   0.34740654  0.54112344  0.66506855
   0.20013011  0.12353283  0.00900391
   0.10356675  0.17509189  0.65873700
   0.08368213  0.20097417  0.34021707
   0.02671694  0.25968849  0.00888804
   0.91021944  0.29445269  0.65569579
   0.84776715  0.34730892  0.33134453
   0.79146772  0.36444654  0.00837084
   0.71239232  0.38973940  0.66399404
   0.65665840  0.46296146  0.34238982
   0.58034400  0.50373666  0.00513062
   0.50732947  0.52299268  0.67282028
   0.44596452  0.58553981  0.31760295
   0.27132265  0.17011293  0.66835108
   0.22268573  0.19937369  0.33138809
   0.15476892  0.24506651  0.00505200
   0.05125529  0.29794376  0.66802191
   0.98237705  0.33178875  0.34063438
   0.93102281  0.37514175  0.00805708
   0.84516586  0.40627005  0.67268770
   0.78289663  0.47710712  0.33470158
   0.72039042  0.48060372  0.02248794
   0.64971365  0.53573718  0.67319441
   0.58615109  0.58088857  0.35575584
   0.52863703  0.62422986  0.98697270
   0.35716015  0.20887252  0.34023997
   0.27501675  0.24693504  0.99364322
   0.18212662  0.28966749  0.67147104
   0.15882357  0.33777558  0.36630875
   0.09443670  0.38098051  0.01177848
   0.96266062  0.40955290  0.65884196
   0.90835064  0.47063352  0.33292469
   0.90587092  0.50734226  0.01304880
   0.78258522  0.53136961  0.66959456
   0.73060869  0.61056488  0.34600311
   0.66021054  0.60472698  0.99750079
   0.57515832  0.68058250  0.66301617
   0.42359878  0.25733536  0.99903949
   0.33859757  0.29464561  0.66397022
   0.28323042  0.33152499  0.32768072
   0.23319479  0.37076107  0.01873967
   0.11707774  0.42262311  0.66880100
   0.07196963  0.45317041  0.34012471
   0.02184469  0.50746368  0.00825360
   0.91090766  0.54209623  0.65097087
   0.86251910  0.58548152  0.32778984
   0.81004965  0.60365773  0.01560641
   0.69731505  0.67704661  0.66805353
   0.64478684  0.71917324  0.35247338
   0.16147111  0.48298341  0.01767702
   0.05924945  0.53250627  0.67830580
   0.99587386  0.56817720  0.33838036
   0.94241628  0.64188756  0.98896759
   0.83796931  0.67017034  0.66534622
   0.78876848  0.72046349  0.33725808
   0.71987422  0.75557907  0.01020792
   0.21568363  0.56180676  0.65053521
   0.16196999  0.58555038  0.32941683
   0.08071762  0.62714625  0.99608455
   0.99881624  0.65428850  0.65045933
   0.93720860  0.72600895  0.35996229
   0.84104692  0.74441993  0.98798173
   0.78062586  0.80406689  0.66999497
   0.31387826  0.57063479  0.33672653
   0.19457522  0.61505642  0.98773053
   0.15639337  0.66408157  0.65811841
   0.05903804  0.69415184  0.32859764
   0.00658913  0.74855959  0.99714563
   0.92819751  0.77724135  0.65463874
   0.85163460  0.82136216  0.31785025
   0.36890098  0.62879869  0.98849609
   0.29332907  0.68048323  0.66140150
   0.20942137  0.70799391  0.33873779
   0.15117739  0.73827534  0.99282714
   0.07580074  0.78763473  0.65604896
   0.99426103  0.85099962  0.31547646
   0.93712670  0.87756966  0.99131673
   0.44442906  0.66399678  0.65289413
   0.35949062  0.69533766  0.32620643
   0.28045895  0.76221689  0.00268363
   0.21926403  0.79812725  0.66241147
   0.12048559  0.82561306  0.31077909
   0.08554123  0.87482213  0.97890941
   0.97779801  0.90833090  0.67266476
   0.91811439  0.96120174  0.34613810
   0.85984533  0.00581345  0.00835109
   0.78209269  0.04689812  0.67091935
   0.72799780  0.08925490  0.32660359
   0.63891847  0.10962390  0.00394704
   0.57415253  0.18078950  0.68496401
   0.51011029  0.18843114  0.32899710
   0.06900965  0.95807011  0.31062083
   0.13985475  0.00036060  0.97992924
   0.20169700  0.05328637  0.68178789
   0.30001677  0.08454373  0.31400653
   0.34995472  0.12739316  0.00831231
   0.42041775  0.16040050  0.67177592
   0.86571729  0.92326786  0.67147204
   0.77177373  0.96054777  0.32570507
   0.71347198  0.99679416  0.00465806
   0.63448398  0.02541554  0.65441291
   0.58249237  0.06154100  0.32236020
   0.44948043  0.09899780  0.98931475
   0.13487217  0.92010829  0.66336284
   0.21986296  0.95805878  0.32410784
   0.28303251  0.99580526  0.99617364
   0.36531768  0.03177956  0.66126329
   0.44622212  0.07310419  0.31591807
   0.78843849  0.88926458  0.01501242
   0.72531273  0.91058101  0.66621971
   0.64677960  0.95756057  0.33490835
   0.55504251  0.00228042  0.99046793
   0.49959917  0.05521257  0.67595567
   0.21668738  0.86198285  0.00416401
   0.28052871  0.90511635  0.65591427
   0.35411807  0.94388472  0.33954260
   0.40730023  0.98186849  0.99552402
   0.72866441  0.84068235  0.35785100
   0.63676528  0.88116235  0.99967889
   0.56103075  0.92928173  0.67782989
   0.49073313  0.95189446  0.33804904
   0.27593385  0.83822878  0.31954103
   0.36752324  0.86838534  0.00556158
   0.42963450  0.91257244  0.67216223
   0.65500190  0.81524172  0.67574580
   0.57686654  0.81938131  0.34624974
   0.53234831  0.86520131  0.01215296
   0.36933709  0.77640874  0.67702531
   0.43701179  0.82414338  0.33108810
   0.60069391  0.73764126  0.99859437
   0.51370847  0.78660327  0.65562978
   0.44720624  0.76605535  0.99980118
   0.50041868  0.68297491  0.33205151
   0.99033064  0.98387276  0.76710774
   0.91535276  0.03819040  0.44515531
   0.85583385  0.09463127  0.10126191
   0.79475308  0.12076158  0.79213524
   0.71510993  0.18157827  0.42739732
   0.64972232  0.20719915  0.12218727
   0.57769440  0.24941831  0.78615222
   0.51264054  0.30091112  0.44390939
   0.43411009  0.34015746  0.11995001
   0.35140471  0.36721114  0.77502534
   0.27947064  0.41368365  0.44659965
   0.23644291  0.47749236  0.11343500
   0.07279814  0.05996535  0.42273564
   0.99076293  0.08611935  0.11709770
   0.92757973  0.10231403  0.78700485
   0.85851175  0.18067896  0.43778762
   0.78027989  0.21698864  0.12624310
   0.70121465  0.25806247  0.77575030
   0.64040629  0.28621162  0.43074188
   0.57688275  0.32493804  0.11612162
   0.49946199  0.37200223  0.77861578
   0.44506490  0.44007689  0.45237985
   0.35829130  0.47272493  0.09683053
   0.31263443  0.50347545  0.76471319
   0.12752975  0.08566237  0.09252056
   0.06695913  0.11849252  0.78423850
   0.00091622  0.16029213  0.44112419
   0.93864563  0.22645164  0.10275933
   0.86094059  0.24319220  0.79392674
   0.78019381  0.30647167  0.44752452
   0.72385139  0.34876056  0.12713316
   0.63957777  0.36870705  0.77876515
   0.58689241  0.39980490  0.45770680
   0.50118959  0.45373630  0.09644036
   0.45434295  0.51257992  0.77101035
   0.38205145  0.55118696  0.45040401
   0.19665155  0.13860779  0.79691525
   0.14378555  0.19142766  0.43539906
   0.09374552  0.20162289  0.10868757
   0.98520085  0.23654069  0.77670774
   0.91680842  0.28809521  0.44144008
   0.86457334  0.37356860  0.13251326
   0.80236290  0.36280421  0.77469632
   0.72360277  0.41329753  0.45522444
   0.63601004  0.46704501  0.10893415
   0.58317464  0.48648046  0.78106814
   0.52426296  0.54171361  0.44522848
   0.45140475  0.61274882  0.08481066
   0.27866101  0.16964227  0.45094842
   0.21552190  0.20662379  0.11192949
   0.12491631  0.25937722  0.78439434
   0.05811126  0.31284227  0.44181402
   0.01016392  0.33559179  0.11890954
   0.93276926  0.37766029  0.78443124
   0.86767302  0.42500672  0.44192307
   0.79405950  0.48515909  0.12158420
   0.73129708  0.46781211  0.76885665
   0.66517146  0.53907087  0.46205513
   0.57151662  0.58675595  0.11600105
   0.51218472  0.62613892  0.76951708
   0.35372779  0.20548264  0.11519802
   0.25859445  0.25317939  0.77812203
   0.22167240  0.28798117  0.44777069
   0.14671410  0.33133576  0.11777256
   0.07400637  0.37560634  0.77326886
   0.00278409  0.41297992  0.44339653
   0.95140100  0.47106353  0.10975830
   0.86703660  0.50345055  0.77164483
   0.80828877  0.54602843  0.43806208
   0.72789877  0.60384567  0.14113300
   0.64354734  0.59908011  0.77667233
   0.58710472  0.67741552  0.44588769
   0.43468378  0.24394915  0.77087247
   0.34424897  0.29979444  0.43716540
   0.30254154  0.33402959  0.12352497
   0.19486527  0.36493504  0.77726203
   0.15029797  0.41861914  0.44031545
   0.08628636  0.44339997  0.11695399
   0.00721418  0.49901273  0.77716400
   0.92854575  0.54842776  0.43472730
   0.87133439  0.60682939  0.13538592
   0.78915998  0.61426415  0.77643488
   0.73948202  0.67695348  0.44256960
   0.64871662  0.69327272  0.12537048
   0.17768643  0.49537354  0.77555160
   0.06501559  0.52647450  0.44731834
   0.01791177  0.59836583  0.10017040
   0.93579919  0.60871268  0.77242189
   0.85445162  0.65611683  0.44438765
   0.76914530  0.71863270  0.11514367
   0.71132975  0.74833959  0.79745295
   0.21638811  0.53821775  0.47142919
   0.15852568  0.59872183  0.09711505
   0.09110496  0.61717759  0.77794886
   0.99944644  0.69133283  0.44799559
   0.92949644  0.71921943  0.09361920
   0.85014779  0.73142707  0.76872692
   0.78338221  0.79254880  0.45978721
   0.30469434  0.59565668  0.07514754
   0.21925491  0.59759283  0.78235603
   0.11797243  0.66445213  0.42932051
   0.06695641  0.72531781  0.09140479
   0.97783643  0.73669706  0.76194156
   0.90605318  0.80239064  0.44040238
   0.83783890  0.86888569  0.09769240
   0.36719135  0.62685035  0.75795020
   0.28111193  0.67116581  0.42224929
   0.21693199  0.71574757  0.07724191
   0.13979126  0.74757647  0.76781862
   0.06858088  0.78924537  0.45497304
   0.98783067  0.85247105  0.08336909
   0.91185584  0.87716147  0.78456106
   0.44454348  0.67331008  0.43881540
   0.35714835  0.73140473  0.08612576
   0.28596798  0.73569089  0.78080222
   0.20620882  0.79465582  0.43729619
   0.13800071  0.84017355  0.10302484
   0.07193072  0.88341392  0.76926220
   0.00305195  0.92126553  0.43792534
   0.91242343  0.98560726  0.10010150
   0.84541756  0.00151317  0.77241871
   0.80015809  0.05777480  0.43045617
   0.71230226  0.09055919  0.10740301
   0.65439031  0.11006838  0.79590563
   0.56620834  0.17438907  0.44327975
   0.48855802  0.17684876  0.09931976
   0.03772901  0.98870243  0.09907805
   0.13481270  0.01568084  0.77905438
   0.20957404  0.05941195  0.42846614
   0.28328539  0.09500779  0.10363502
   0.33952963  0.10963932  0.77635382
   0.42240020  0.18755306  0.44293691
   0.84419127  0.91740300  0.44700572
   0.76375086  0.98158391  0.11904600
   0.72132618  0.98482129  0.77424766
   0.64766127  0.06044705  0.44820464
   0.56291137  0.08089048  0.10668236
   0.48439522  0.11162651  0.77883905
   0.15101506  0.93868709  0.42938566
   0.20136398  0.96652410  0.10527776
   0.28177940  0.99675720  0.76779103
   0.34144963  0.06050464  0.43787352
   0.41409471  0.07495608  0.11902012
   0.75674287  0.86720991  0.77159624
   0.70667079  0.94165418  0.42824284
   0.62487964  0.96268424  0.12281760
   0.57824004  0.98732220  0.78733474
   0.48293127  0.06114691  0.43641959
   0.18949985  0.87304237  0.79137637
   0.28323361  0.91621731  0.45456495
   0.34887447  0.96022921  0.10496492
   0.43255675  0.97664794  0.77399027
   0.68383939  0.83781986  0.11704926
   0.64594563  0.88049170  0.78205662
   0.56944183  0.93364889  0.44026944
   0.48967528  0.94168635  0.10711619
   0.29327908  0.84802842  0.11613175
   0.33966114  0.86041395  0.78808200
   0.41808613  0.93136981  0.44274931
   0.65340430  0.81187333  0.46592688
   0.56773664  0.83228933  0.13173671
   0.49572131  0.85732570  0.79025549
   0.35393978  0.79531384  0.42991544
   0.44225338  0.82559391  0.11700857
   0.55922323  0.74510634  0.77571461
   0.51327388  0.79761183  0.44362636
   0.42234700  0.74875993  0.79215797
   0.52767488  0.70194950  0.09566263
   0.99268433  0.99557617  0.21601004
   0.92090173  0.02735996  0.87922322
   0.87573058  0.07621129  0.56413931
   0.76261644  0.13692022  0.22494222
   0.69525900  0.16366961  0.89104863
   0.66908239  0.21047160  0.56040560
   0.56395697  0.24601412  0.23729176
   0.48157488  0.29323044  0.88081342
   0.43253063  0.33198571  0.53967833
   0.36334644  0.38483725  0.23430073
   0.27138071  0.40224989  0.88381908
   0.19397711  0.43789893  0.55465434
   0.07171379  0.00737538  0.88167399
   0.99180032  0.07414170  0.54933942
   0.91303882  0.14549156  0.21426537
   0.83874658  0.17152296  0.89056109
   0.79920869  0.19682041  0.57125884
   0.70779635  0.26803977  0.22558363
   0.63438386  0.27834932  0.89565518
   0.58190948  0.31001150  0.56872986
   0.49687961  0.39407939  0.22615578
   0.42070863  0.43414427  0.87114350
   0.32818055  0.47284240  0.55000121
   0.29620422  0.51948813  0.21744709
   0.14990761  0.09538848  0.55335636
   0.05763328  0.12721576  0.22493408
   0.98968508  0.14666329  0.89794605
   0.93439057  0.20655820  0.55168522
   0.84583224  0.26538455  0.22914004
   0.77739386  0.27902576  0.90550777
   0.71029285  0.32987818  0.56955671
   0.63267475  0.38768258  0.22903910
   0.56496226  0.40642178  0.89435407
   0.51806958  0.45103493  0.57177560
   0.44367562  0.50603855  0.20894281
   0.36859456  0.53982543  0.86945619
   0.19941685  0.14624126  0.20719578
   0.14601682  0.14966528  0.89884668
   0.06041721  0.20541218  0.57338087
   0.99715067  0.24845043  0.22068723
   0.91699228  0.29675892  0.89408529
   0.84620926  0.34603940  0.55841279
   0.79253335  0.38816807  0.22474008
   0.71226959  0.38534845  0.89701148
   0.65283954  0.46173772  0.56800190
   0.56385271  0.50814881  0.23810424
   0.51166867  0.54445240  0.89633159
   0.42915284  0.56396578  0.56073511
   0.28782754  0.15937946  0.89089127
   0.21331716  0.20827679  0.55758434
   0.14457795  0.26331458  0.22202401
   0.05364122  0.28418980  0.89270125
   0.99113235  0.31871159  0.54175031
   0.93171105  0.39070014  0.22925219
   0.84354080  0.41801335  0.89544805
   0.79850150  0.45536777  0.56687450
   0.72133704  0.50804122  0.23638481
   0.65065775  0.52117246  0.89361374
   0.58879092  0.61127276  0.55124850
   0.51202385  0.62091986  0.20653514
   0.36983915  0.20475989  0.54111026
   0.28149020  0.24663528  0.21244687
   0.21175883  0.25967928  0.89232642
   0.13916703  0.31602776  0.55833761
   0.09195515  0.37197506  0.23422020
   0.01983559  0.40708525  0.89246223
   0.92122972  0.44675023  0.54497586
   0.86932455  0.49765998  0.24786921
   0.77629067  0.53190135  0.90394454
   0.73419225  0.59884810  0.55779881
   0.62635080  0.63603375  0.23768115
   0.58059258  0.66935269  0.89089302
   0.43736382  0.24851219  0.22324092
   0.35502203  0.29014114  0.88254382
   0.28761009  0.33197925  0.55423525
   0.22255721  0.38938864  0.23317831
   0.13217943  0.39928448  0.88450186
   0.06295948  0.45375508  0.54924884
   0.99777559  0.49865704  0.21536284
   0.93915135  0.52610975  0.87284725
   0.84391063  0.57934830  0.56251324
   0.78429979  0.62747006  0.24390262
   0.72927789  0.67439149  0.89136442
   0.65837525  0.73746833  0.55919201
   0.15442770  0.51237670  0.21108851
   0.08259008  0.54157498  0.89939876
   0.98622907  0.58304945  0.53616009
   0.93803594  0.63110433  0.24007637
   0.87794609  0.66845885  0.88223327
   0.80411425  0.72533557  0.55068950
   0.69748007  0.75020518  0.24020770
   0.21428262  0.53954420  0.89828663
   0.11845181  0.58747987  0.56527903
   0.08062004  0.61626871  0.22845751
   0.01349378  0.64296752  0.88898438
   0.93205644  0.70668868  0.55840514
   0.86364684  0.72736077  0.21073037
   0.79149107  0.78188256  0.89496043
   0.27932250  0.58885242  0.53741564
   0.22397851  0.63927721  0.21072063
   0.15137965  0.66396814  0.88317336
   0.07851938  0.70375546  0.54253616
   0.99098087  0.73888113  0.21614796
   0.94482261  0.77788712  0.86897420
   0.86270536  0.85419229  0.57957121
   0.36566681  0.63557535  0.19558861
   0.29540998  0.65828129  0.89614304
   0.20732721  0.69282338  0.53840459
   0.14835053  0.75868629  0.21732287
   0.07178906  0.78465951  0.88366442
   0.00547974  0.82554923  0.55259039
   0.94189405  0.86254499  0.22288562
   0.42418852  0.65440289  0.87385170
   0.35753450  0.70905300  0.53615599
   0.28054756  0.75283725  0.21319351
   0.21382763  0.76734820  0.89760336
   0.15110236  0.83437747  0.56610432
   0.06705951  0.88137363  0.20199784
   0.99873133  0.91485816  0.89961665
   0.95586016  0.93748150  0.53095273
   0.86479084  0.99037451  0.22348945
   0.77885732  0.02711345  0.90012511
   0.71306055  0.08665280  0.54569111
   0.62549833  0.14301904  0.20281228
   0.55296622  0.14925914  0.90737390
   0.51817294  0.20039415  0.55957825
   0.07746131  0.95739975  0.56475617
   0.13601481  0.00701672  0.21367283
   0.20546138  0.03947282  0.90845101
   0.26683043  0.07422134  0.55677082
   0.35670932  0.13516452  0.22860996
   0.42088241  0.16973693  0.89002299
   0.84410444  0.91384148  0.88576042
   0.78844695  0.97581226  0.54814817
   0.70760760  0.00925349  0.22947692
   0.63422001  0.03163329  0.89668217
   0.55545235  0.09360343  0.55483896
   0.50521278  0.13315843  0.22267139
   0.15989372  0.90353300  0.88509354
   0.21978526  0.95950095  0.56021849
   0.29066023  0.00205105  0.21555891
   0.36573662  0.04426352  0.91210182
   0.40265903  0.08435746  0.54479282
   0.79676917  0.86678956  0.21291722
   0.71340267  0.91678105  0.89779357
   0.64104368  0.94684481  0.55672777
   0.55336141  0.00396823  0.22132645
   0.48537359  0.04378135  0.88664124
   0.21321097  0.89432990  0.21296304
   0.31154941  0.91904664  0.88657284
   0.34586790  0.96260958  0.53968395
   0.42656190  0.98843705  0.22724630
   0.72441419  0.85293353  0.55331503
   0.65471038  0.88154051  0.25227553
   0.56339976  0.91509703  0.87928857
   0.48127943  0.98634227  0.56022566
   0.29272516  0.80923278  0.54283678
   0.36394094  0.86584987  0.23967256
   0.43894669  0.90228585  0.88457753
   0.64162537  0.78671381  0.90102645
   0.58951153  0.84588695  0.55444178
   0.52491262  0.86959424  0.23517149
   0.36833015  0.80283180  0.90654296
   0.42150931  0.83392498  0.56307568
   0.56005637  0.74681002  0.24305908
   0.50776338  0.77238987  0.88568063
   0.41936573  0.75005429  0.22354211
   0.51077515  0.71067861  0.53585017
