 500 500   0   0
  0.2153794E+02  0.2208300E-08  0.2208300E-08  0.2208300E-08  0.5000000E-15
  1.000000000000000E-004
  CAR 
 Li                                      
      3.14581877     -3.50264985  301      0.23964059      1.00000000
     -3.503  0.0000E+00  0.0000E+00
     -3.480  0.0000E+00  0.0000E+00
     -3.458  0.0000E+00  0.0000E+00
     -3.436  0.0000E+00  0.0000E+00
     -3.414  0.0000E+00  0.0000E+00
     -3.392  0.0000E+00  0.0000E+00
     -3.370  0.6513E-13  0.1443E-14
     -3.348  0.1831E-09  0.4060E-11
     -3.325  0.1737E-06  0.3853E-08
     -3.303  0.5676E-04  0.1262E-05
     -3.281  0.6447E-02  0.1441E-03
     -3.259  0.2573E+00  0.5847E-02
     -3.237  0.3661E+01  0.8698E-01
     -3.215  0.1886E+02  0.5049E+00
     -3.192  0.3563E+02  0.1294E+01
     -3.170  0.2487E+02  0.1846E+01
     -3.148  0.7036E+01  0.2001E+01
     -3.126  0.9199E+01  0.2205E+01
     -3.104  0.4365E+02  0.3173E+01
     -3.082  0.9151E+02  0.5201E+01
     -3.059  0.8431E+02  0.7069E+01
     -3.037  0.3543E+02  0.7854E+01
     -3.015  0.1160E+02  0.8111E+01
     -2.993  0.3262E+02  0.8834E+01
     -2.971  0.8207E+02  0.1065E+02
     -2.949  0.9203E+02  0.1269E+02
     -2.926  0.4738E+02  0.1374E+02
     -2.904  0.1520E+02  0.1408E+02
     -2.882  0.3199E+02  0.1479E+02
     -2.860  0.9192E+02  0.1683E+02
     -2.838  0.1237E+03  0.1957E+02
     -2.816  0.8068E+02  0.2135E+02
     -2.793  0.3032E+02  0.2203E+02
     -2.771  0.3679E+02  0.2284E+02
     -2.749  0.1032E+03  0.2513E+02
     -2.727  0.1634E+03  0.2875E+02
     -2.705  0.1451E+03  0.3197E+02
     -2.683  0.7241E+02  0.3357E+02
     -2.661  0.2513E+02  0.3413E+02
     -2.638  0.3814E+02  0.3497E+02
     -2.616  0.8139E+02  0.3678E+02
     -2.594  0.8797E+02  0.3873E+02
     -2.572  0.4769E+02  0.3978E+02
     -2.550  0.2899E+02  0.4042E+02
     -2.528  0.7268E+02  0.4204E+02
     -2.505  0.1388E+03  0.4511E+02
     -2.483  0.1564E+03  0.4858E+02
     -2.461  0.1087E+03  0.5099E+02
     -2.439  0.5795E+02  0.5227E+02
     -2.417  0.8257E+02  0.5410E+02
     -2.395  0.1612E+03  0.5767E+02
     -2.372  0.2081E+03  0.6228E+02
     -2.350  0.1860E+03  0.6641E+02
     -2.328  0.1141E+03  0.6894E+02
     -2.306  0.4904E+02  0.7002E+02
     -2.284  0.4734E+02  0.7107E+02
     -2.262  0.8610E+02  0.7298E+02
     -2.239  0.8565E+02  0.7488E+02
     -2.217  0.4492E+02  0.7587E+02
     -2.195  0.3839E+02  0.7672E+02
     -2.173  0.9932E+02  0.7892E+02
     -2.151  0.1698E+03  0.8269E+02
     -2.129  0.1710E+03  0.8648E+02
     -2.106  0.1110E+03  0.8894E+02
     -2.084  0.6448E+02  0.9037E+02
     -2.062  0.9554E+02  0.9248E+02
     -2.040  0.1749E+03  0.9636E+02
     -2.018  0.2161E+03  0.1011E+03
     -1.996  0.1829E+03  0.1052E+03
     -1.974  0.1003E+03  0.1074E+03
     -1.951  0.5736E+02  0.1087E+03
     -1.929  0.9836E+02  0.1109E+03
     -1.907  0.1523E+03  0.1142E+03
     -1.885  0.1473E+03  0.1175E+03
     -1.863  0.9621E+02  0.1196E+03
     -1.841  0.8350E+02  0.1215E+03
     -1.818  0.1461E+03  0.1247E+03
     -1.796  0.2079E+03  0.1293E+03
     -1.774  0.2022E+03  0.1338E+03
     -1.752  0.1316E+03  0.1367E+03
     -1.730  0.7073E+02  0.1383E+03
     -1.708  0.9907E+02  0.1405E+03
     -1.685  0.1880E+03  0.1447E+03
     -1.663  0.2298E+03  0.1498E+03
     -1.641  0.1797E+03  0.1537E+03
     -1.619  0.9252E+02  0.1558E+03
     -1.597  0.6849E+02  0.1573E+03
     -1.575  0.1132E+03  0.1598E+03
     -1.552  0.1464E+03  0.1631E+03
     -1.530  0.1330E+03  0.1660E+03
     -1.508  0.8838E+02  0.1680E+03
     -1.486  0.7839E+02  0.1697E+03
     -1.464  0.1208E+03  0.1724E+03
     -1.442  0.1524E+03  0.1758E+03
     -1.419  0.1273E+03  0.1786E+03
     -1.397  0.8458E+02  0.1805E+03
     -1.375  0.1221E+03  0.1832E+03
     -1.353  0.2243E+03  0.1881E+03
     -1.331  0.2867E+03  0.1945E+03
     -1.309  0.2836E+03  0.2008E+03
     -1.286  0.2344E+03  0.2060E+03
     -1.264  0.1599E+03  0.2095E+03
     -1.242  0.1425E+03  0.2127E+03
     -1.220  0.1990E+03  0.2171E+03
     -1.198  0.2181E+03  0.2219E+03
     -1.176  0.1676E+03  0.2256E+03
     -1.154  0.1023E+03  0.2279E+03
     -1.131  0.8474E+02  0.2298E+03
     -1.109  0.1260E+03  0.2326E+03
     -1.087  0.1731E+03  0.2364E+03
     -1.065  0.1644E+03  0.2400E+03
     -1.043  0.1352E+03  0.2430E+03
     -1.021  0.1720E+03  0.2468E+03
     -0.998  0.2298E+03  0.2519E+03
     -0.976  0.2391E+03  0.2572E+03
     -0.954  0.2059E+03  0.2618E+03
     -0.932  0.1339E+03  0.2648E+03
     -0.910  0.6759E+02  0.2663E+03
     -0.888  0.6699E+02  0.2678E+03
     -0.865  0.8819E+02  0.2697E+03
     -0.843  0.8019E+02  0.2715E+03
     -0.821  0.8434E+02  0.2734E+03
     -0.799  0.1488E+03  0.2766E+03
     -0.777  0.2319E+03  0.2818E+03
     -0.755  0.2834E+03  0.2881E+03
     -0.732  0.2906E+03  0.2945E+03
     -0.710  0.2585E+03  0.3002E+03
     -0.688  0.2215E+03  0.3051E+03
     -0.666  0.2175E+03  0.3100E+03
     -0.644  0.2504E+03  0.3155E+03
     -0.622  0.2838E+03  0.3218E+03
     -0.599  0.2662E+03  0.3277E+03
     -0.577  0.2053E+03  0.3323E+03
     -0.555  0.1500E+03  0.3356E+03
     -0.533  0.1215E+03  0.3383E+03
     -0.511  0.1263E+03  0.3411E+03
     -0.489  0.1399E+03  0.3442E+03
     -0.467  0.1571E+03  0.3476E+03
     -0.444  0.1873E+03  0.3518E+03
     -0.422  0.2077E+03  0.3564E+03
     -0.400  0.2035E+03  0.3609E+03
     -0.378  0.1753E+03  0.3648E+03
     -0.356  0.1530E+03  0.3682E+03
     -0.334  0.1767E+03  0.3721E+03
     -0.311  0.2374E+03  0.3774E+03
     -0.289  0.2810E+03  0.3836E+03
     -0.267  0.2803E+03  0.3898E+03
     -0.245  0.2430E+03  0.3952E+03
     -0.223  0.2083E+03  0.3998E+03
     -0.201  0.2041E+03  0.4043E+03
     -0.178  0.2070E+03  0.4089E+03
     -0.156  0.1789E+03  0.4129E+03
     -0.134  0.1403E+03  0.4160E+03
     -0.112  0.1467E+03  0.4192E+03
     -0.090  0.1942E+03  0.4236E+03
     -0.068  0.2394E+03  0.4289E+03
     -0.045  0.2586E+03  0.4346E+03
     -0.023  0.2450E+03  0.4400E+03
     -0.001  0.2235E+03  0.4450E+03
      0.021  0.2179E+03  0.4498E+03
      0.043  0.2274E+03  0.4548E+03
      0.065  0.2207E+03  0.4597E+03
      0.088  0.1884E+03  0.4639E+03
      0.110  0.1761E+03  0.4678E+03
      0.132  0.2115E+03  0.4725E+03
      0.154  0.2509E+03  0.4781E+03
      0.176  0.2632E+03  0.4839E+03
      0.198  0.2585E+03  0.4896E+03
      0.220  0.2510E+03  0.4952E+03
      0.243  0.2518E+03  0.5008E+03
      0.265  0.2472E+03  0.5062E+03
      0.287  0.2368E+03  0.5115E+03
      0.309  0.2326E+03  0.5166E+03
      0.331  0.2395E+03  0.5219E+03
      0.353  0.2544E+03  0.5276E+03
      0.376  0.2813E+03  0.5338E+03
      0.398  0.3123E+03  0.5407E+03
      0.420  0.3136E+03  0.5477E+03
      0.442  0.3010E+03  0.5544E+03
      0.464  0.3050E+03  0.5611E+03
      0.486  0.3178E+03  0.5682E+03
      0.509  0.3104E+03  0.5750E+03
      0.531  0.2891E+03  0.5815E+03
      0.553  0.2664E+03  0.5874E+03
      0.575  0.2387E+03  0.5926E+03
      0.597  0.2282E+03  0.5977E+03
      0.619  0.2241E+03  0.6027E+03
      0.642  0.2082E+03  0.6073E+03
      0.664  0.1913E+03  0.6115E+03
      0.686  0.1808E+03  0.6155E+03
      0.708  0.1757E+03  0.6194E+03
      0.730  0.1779E+03  0.6234E+03
      0.752  0.1855E+03  0.6275E+03
      0.775  0.1808E+03  0.6315E+03
      0.797  0.1782E+03  0.6354E+03
      0.819  0.1920E+03  0.6397E+03
      0.841  0.2050E+03  0.6442E+03
      0.863  0.2141E+03  0.6490E+03
      0.885  0.2317E+03  0.6541E+03
      0.908  0.2503E+03  0.6597E+03
      0.930  0.2540E+03  0.6653E+03
      0.952  0.2592E+03  0.6710E+03
      0.974  0.2730E+03  0.6771E+03
      0.996  0.2751E+03  0.6832E+03
      1.018  0.2638E+03  0.6890E+03
      1.040  0.2527E+03  0.6946E+03
      1.063  0.2417E+03  0.7000E+03
      1.085  0.2339E+03  0.7052E+03
      1.107  0.2291E+03  0.7102E+03
      1.129  0.2196E+03  0.7151E+03
      1.151  0.2143E+03  0.7199E+03
      1.173  0.2183E+03  0.7247E+03
      1.196  0.2290E+03  0.7298E+03
      1.218  0.2301E+03  0.7349E+03
      1.240  0.2239E+03  0.7398E+03
      1.262  0.2258E+03  0.7448E+03
      1.284  0.2175E+03  0.7497E+03
      1.306  0.2075E+03  0.7543E+03
      1.329  0.2056E+03  0.7588E+03
      1.351  0.1990E+03  0.7632E+03
      1.373  0.1842E+03  0.7673E+03
      1.395  0.1616E+03  0.7709E+03
      1.417  0.1436E+03  0.7741E+03
      1.439  0.1481E+03  0.7774E+03
      1.462  0.1620E+03  0.7809E+03
      1.484  0.1595E+03  0.7845E+03
      1.506  0.1412E+03  0.7876E+03
      1.528  0.1429E+03  0.7908E+03
      1.550  0.1603E+03  0.7943E+03
      1.572  0.1789E+03  0.7983E+03
      1.595  0.1968E+03  0.8026E+03
      1.617  0.2053E+03  0.8072E+03
      1.639  0.2032E+03  0.8117E+03
      1.661  0.2125E+03  0.8164E+03
      1.683  0.2317E+03  0.8215E+03
      1.705  0.2376E+03  0.8268E+03
      1.727  0.2296E+03  0.8319E+03
      1.750  0.2228E+03  0.8368E+03
      1.772  0.2244E+03  0.8418E+03
      1.794  0.2302E+03  0.8469E+03
      1.816  0.2255E+03  0.8519E+03
      1.838  0.2089E+03  0.8565E+03
      1.860  0.1981E+03  0.8609E+03
      1.883  0.1883E+03  0.8651E+03
      1.905  0.1657E+03  0.8688E+03
      1.927  0.1489E+03  0.8721E+03
      1.949  0.1417E+03  0.8752E+03
      1.971  0.1315E+03  0.8781E+03
      1.993  0.1313E+03  0.8810E+03
      2.016  0.1465E+03  0.8843E+03
      2.038  0.1622E+03  0.8879E+03
      2.060  0.1674E+03  0.8916E+03
      2.082  0.1731E+03  0.8954E+03
      2.104  0.1739E+03  0.8993E+03
      2.126  0.1604E+03  0.9028E+03
      2.149  0.1445E+03  0.9060E+03
      2.171  0.1438E+03  0.9092E+03
      2.193  0.1474E+03  0.9125E+03
      2.215  0.1507E+03  0.9158E+03
      2.237  0.1481E+03  0.9191E+03
      2.259  0.1412E+03  0.9222E+03
      2.282  0.1432E+03  0.9254E+03
      2.304  0.1513E+03  0.9288E+03
      2.326  0.1614E+03  0.9323E+03
      2.348  0.1610E+03  0.9359E+03
      2.370  0.1498E+03  0.9392E+03
      2.392  0.1344E+03  0.9422E+03
      2.414  0.1204E+03  0.9449E+03
      2.437  0.1157E+03  0.9474E+03
      2.459  0.1254E+03  0.9502E+03
      2.481  0.1450E+03  0.9534E+03
      2.503  0.1567E+03  0.9569E+03
      2.525  0.1564E+03  0.9604E+03
      2.547  0.1573E+03  0.9639E+03
      2.570  0.1615E+03  0.9674E+03
      2.592  0.1628E+03  0.9710E+03
      2.614  0.1574E+03  0.9745E+03
      2.636  0.1513E+03  0.9779E+03
      2.658  0.1345E+03  0.9809E+03
      2.680  0.1228E+03  0.9836E+03
      2.703  0.1206E+03  0.9863E+03
      2.725  0.1046E+03  0.9886E+03
      2.747  0.9336E+02  0.9907E+03
      2.769  0.1101E+03  0.9931E+03
      2.791  0.1335E+03  0.9960E+03
      2.813  0.1238E+03  0.9988E+03
      2.836  0.8710E+02  0.1001E+04
      2.858  0.4342E+02  0.1002E+04
      2.880  0.1242E+02  0.1002E+04
      2.902  0.1681E+01  0.1002E+04
      2.924  0.9481E-01  0.1002E+04
      2.946  0.2069E-02  0.1002E+04
      2.969  0.1669E-04  0.1002E+04
      2.991  0.4834E-07  0.1002E+04
      3.013  0.4927E-10  0.1002E+04
      3.035  0.1503E-13  0.1002E+04
      3.057  0.0000E+00  0.1002E+04
      3.079  0.0000E+00  0.1002E+04
      3.101  0.0000E+00  0.1002E+04
      3.124  0.0000E+00  0.1002E+04
      3.146  0.0000E+00  0.1002E+04
