 running on   64 total cores
 distrk:  each k-point on   32 cores,    2 groups
 distr:  one band on   32 cores,    1 groups
 vasp.6.2.1 16May21 (build Nov 23 2021 15:40:41) complex                        
  
 POSCAR found type information on POSCAR Li
 POSCAR found :  1 types and     500 ions
 scaLAPACK will be used
 -----------------------------------------------------------------------------
|                                                                             |
|           W    W    AA    RRRRR   N    N  II  N    N   GGGG   !!!           |
|           W    W   A  A   R    R  NN   N  II  NN   N  G    G  !!!           |
|           W    W  A    A  R    R  N N  N  II  N N  N  G       !!!           |
|           W WW W  AAAAAA  RRRRR   N  N N  II  N  N N  G  GGG   !            |
|           WW  WW  A    A  R   R   N   NN  II  N   NN  G    G                |
|           W    W  A    A  R    R  N    N  II  N    N   GGGG   !!!           |
|                                                                             |
|     For optimal performance we recommend to set                             |
|       NCORE = 2 up to number-of-cores-per-socket                            |
|     NCORE specifies how many cores store one orbital (NPAR=cpu/NCORE).      |
|     This setting can greatly improve the performance of VASP for DFT.       |
|     The default, NCORE=1 might be grossly inefficient on modern             |
|     multi-core architectures or massively parallel machines. Do your        |
|     own testing! More info at https://www.vasp.at/wiki/index.php/NCORE      |
|     Unfortunately you need to use the default for GW and RPA                |
|     calculations (for HF NCORE is supported but not extensively tested      |
|     yet).                                                                   |
|                                                                             |
 -----------------------------------------------------------------------------

 -----------------------------------------------------------------------------
|                                                                             |
|               ----> ADVICE to this user running VASP <----                  |
|                                                                             |
|     You have a (more or less) 'large supercell' and for larger cells it     |
|     might be more efficient to use real-space projection operators.         |
|     Therefore, try LREAL= Auto in the INCAR file.                           |
|     Mind: If you want to do very accurate calculations, keep the            |
|     reciprocal projection scheme (i.e. LREAL=.FALSE.).                      |
|                                                                             |
 -----------------------------------------------------------------------------

 LDA part: xc-table for Pade appr. of Perdew
 POSCAR found type information on POSCAR Li
 POSCAR found :  1 types and     500 ions
 POSCAR, INCAR and KPOINTS ok, starting setup
 FFT: planning ...
 WAVECAR not read
 entering main loop
       N       E                     dE             d eps       ncg     rms          rms(c)
DAV:   1    -0.298059851111E+03   -0.29806E+03   -0.11956E+05  4008   0.651E+02
DAV:   2    -0.879639711264E+03   -0.58158E+03   -0.53237E+03  4604   0.656E+01
DAV:   3    -0.922175270727E+03   -0.42536E+02   -0.38841E+02  5200   0.140E+01
DAV:   4    -0.923663736398E+03   -0.14885E+01   -0.14658E+01  4720   0.286E+00
DAV:   5    -0.923699170874E+03   -0.35434E-01   -0.35371E-01  4888   0.464E-01    0.930E+00
DAV:   6    -0.926349000153E+03   -0.26498E+01   -0.11756E+01  4840   0.539E+00    0.944E+00
DAV:   7    -0.912225492470E+03    0.14124E+02   -0.12923E+01  5088   0.494E+00    0.452E+00
DAV:   8    -0.910412028107E+03    0.18135E+01   -0.63462E+00  4656   0.229E+00    0.255E+00
DAV:   9    -0.910039773951E+03    0.37225E+00   -0.28202E+00  4536   0.145E+00    0.158E+00
DAV:  10    -0.909977264758E+03    0.62509E-01   -0.78912E-01  4680   0.917E-01    0.127E+00
DAV:  11    -0.909829672631E+03    0.14759E+00   -0.28036E-01  4544   0.506E-01    0.567E-01
DAV:  12    -0.909851301182E+03   -0.21629E-01   -0.77489E-02  4816   0.300E-01    0.505E-01
DAV:  13    -0.909821549643E+03    0.29752E-01   -0.50600E-02  4752   0.243E-01    0.217E-01
DAV:  14    -0.909820848843E+03    0.70080E-03   -0.13187E-02  4456   0.102E-01    0.119E-01
DAV:  15    -0.909820611515E+03    0.23733E-03   -0.35389E-03  4552   0.642E-02    0.888E-02
DAV:  16    -0.909820056678E+03    0.55484E-03   -0.12569E-03  4600   0.428E-02    0.584E-02
DAV:  17    -0.909819749419E+03    0.30726E-03   -0.57723E-04  4480   0.234E-02    0.203E-02
DAV:  18    -0.909819775923E+03   -0.26504E-04   -0.19244E-04  4736   0.138E-02    0.175E-02
DAV:  19    -0.909819740382E+03    0.35541E-04   -0.82743E-05  4728   0.973E-03    0.879E-03
DAV:  20    -0.909819732959E+03    0.74236E-05   -0.16090E-05  3056   0.421E-03
   1 F= -.90981973E+03 E0= -.90976305E+03  d E =-.113372E+00
