Li                                      
           1
    22.083000   -0.000000    0.000000
    -0.000000   22.083000    0.000000
     0.000000    0.000000   22.083000
   Li
   500
Direct configuration=     1
   0.99081291  0.98761716  0.98685470
   0.00348062  0.10487596  0.09362014
   0.99677112  0.22420559  0.19344825
   0.01651646  0.29998241  0.30728673
   0.00066436  0.40769608  0.41583767
   0.01859862  0.49119983  0.49401141
   0.99594573  0.59992600  0.59635540
   0.00354067  0.67764494  0.71091157
   0.99438012  0.77796491  0.81581591
   0.99475487  0.89220920  0.90408111
   0.09014824  0.99374763  0.08884313
   0.09446934  0.10197069  0.21332403
   0.11528733  0.20167850  0.31040794
   0.09758049  0.30979655  0.40087795
   0.10253107  0.39992161  0.49038182
   0.09487264  0.50710162  0.59482443
   0.09889421  0.59106017  0.72439548
   0.09807192  0.69303801  0.81190525
   0.10025999  0.81454263  0.90532092
   0.10564427  0.89795723  0.99276460
   0.19391876  0.99570336  0.19359844
   0.19767342  0.09573841  0.28997928
   0.20510095  0.22931811  0.40260603
   0.19789397  0.30582264  0.50854462
   0.18568702  0.40191706  0.58768316
   0.17936879  0.50557520  0.71191738
   0.21942114  0.56995620  0.80829214
   0.20243372  0.70805706  0.89121563
   0.20327829  0.80267095  0.99521109
   0.19999890  0.91588908  0.08908740
   0.29322484  0.99235229  0.30588481
   0.30719880  0.11453519  0.39779987
   0.29820751  0.20555931  0.49909311
   0.30031439  0.30605446  0.58312140
   0.28865412  0.38718513  0.69513275
   0.29551588  0.48705194  0.80658557
   0.29206554  0.58007467  0.89125248
   0.29311784  0.69843081  0.99528182
   0.30796602  0.78372735  0.11117888
   0.28833669  0.89757734  0.19371461
   0.38238333  0.99516906  0.40251630
   0.39864342  0.10965982  0.49941835
   0.39270220  0.20537875  0.60141626
   0.40877433  0.32214145  0.68206697
   0.38887370  0.40723146  0.79371102
   0.38299214  0.49953971  0.89554263
   0.41263544  0.60880730  0.00350055
   0.41103921  0.68915770  0.10517201
   0.39724523  0.78560521  0.18414803
   0.37798503  0.89247137  0.30242616
   0.50365384  0.01186482  0.49584458
   0.49425924  0.11035396  0.59908753
   0.49741401  0.18794058  0.73404252
   0.47527856  0.29235080  0.81119785
   0.50848009  0.39438804  0.89550435
   0.49192353  0.50046144  0.00087485
   0.49708348  0.60446312  0.10695235
   0.50050729  0.70721031  0.20091175
   0.49814206  0.80138448  0.29839040
   0.48454660  0.88725715  0.41142722
   0.62923172  0.00761106  0.59926944
   0.62155840  0.09192270  0.70220020
   0.59154991  0.20392830  0.79869931
   0.60252078  0.30461151  0.90324592
   0.60301685  0.40820709  0.99646429
   0.60404931  0.51575719  0.09503225
   0.60252245  0.58462359  0.18221676
   0.58809714  0.68707214  0.28874928
   0.60605276  0.81364152  0.40810296
   0.61597599  0.90323481  0.51711505
   0.70660669  0.00033051  0.69616759
   0.70096189  0.11286936  0.80526338
   0.69533134  0.18636295  0.90191122
   0.69054152  0.30272814  0.98427162
   0.69919598  0.40333467  0.08048987
   0.69947211  0.50326853  0.16768317
   0.67760634  0.60741767  0.28721162
   0.69190554  0.68584798  0.37473387
   0.71041183  0.79316821  0.49058673
   0.71533976  0.89881014  0.59149621
   0.79128502  0.01283523  0.80799663
   0.77348463  0.10684567  0.91442501
   0.78981849  0.23851458  0.00483509
   0.79979856  0.31729626  0.11092532
   0.78088515  0.39109759  0.21537107
   0.81902010  0.50765983  0.28495518
   0.78283631  0.61123545  0.37617072
   0.78941759  0.68542826  0.49129212
   0.79758538  0.79930203  0.59919160
   0.81018667  0.89065828  0.70216462
   0.88206947  0.99317388  0.90069284
   0.89408296  0.11149379  0.99792156
   0.89703125  0.22589682  0.10128888
   0.89963807  0.31226927  0.20425301
   0.91053512  0.39870804  0.31461513
   0.88688623  0.50632410  0.38345228
   0.90156673  0.58345372  0.49745998
   0.89031922  0.70878719  0.59588682
   0.90528012  0.81638242  0.69949236
   0.89552262  0.89523399  0.82363264
   0.10160734  0.09175395  0.98536311
   0.09950330  0.21205490  0.08247317
   0.10728965  0.29871416  0.20549854
   0.08889013  0.39766388  0.30273442
   0.12296557  0.51073722  0.39429990
   0.10149206  0.59398461  0.48723766
   0.10248844  0.69209676  0.59985711
   0.11080082  0.77134739  0.70857419
   0.09885405  0.90411530  0.78212215
   0.09643402  0.00412738  0.89053338
   0.20736067  0.09549465  0.12304048
   0.20544519  0.21359125  0.20812052
   0.19238567  0.34023958  0.30926626
   0.16942435  0.41884963  0.41491251
   0.21060412  0.50456072  0.51471627
   0.18664634  0.60056819  0.59674571
   0.21540265  0.68968426  0.69126809
   0.23252133  0.80112923  0.79777984
   0.22877899  0.89366401  0.88620254
   0.21377769  0.99485396  0.98704333
   0.29446993  0.09752472  0.23634551
   0.29091706  0.23072285  0.32006654
   0.31249605  0.33424319  0.40757396
   0.28580071  0.41138726  0.48648078
   0.26872430  0.47694070  0.61600588
   0.30265357  0.58336268  0.69143459
   0.29262428  0.68896603  0.80489977
   0.33506337  0.79547805  0.89683263
   0.27824165  0.89232797  0.99918944
   0.30721407  0.01413706  0.11107426
   0.41116761  0.07460938  0.30420410
   0.41723728  0.20256086  0.40294350
   0.39976812  0.30979390  0.48821119
   0.38247279  0.39444574  0.56536642
   0.38851508  0.50210607  0.67586910
   0.38756082  0.57665384  0.80369445
   0.41845153  0.67812444  0.89177839
   0.40838807  0.79085832  0.98857381
   0.39503869  0.89401604  0.10918916
   0.38357192  0.98498871  0.19777539
   0.51286445  0.09348589  0.40923324
   0.52568508  0.19393332  0.49600865
   0.50791071  0.29973837  0.61688891
   0.48888157  0.39256083  0.68396684
   0.48784935  0.48636750  0.78221631
   0.48708935  0.60764392  0.89315967
   0.52436511  0.69778249  0.00020636
   0.49716520  0.80048301  0.08896911
   0.49932340  0.90715066  0.19465495
   0.49637972  0.98973488  0.30408831
   0.60675413  0.09053834  0.50037193
   0.60409711  0.16726554  0.60952573
   0.59275642  0.28088701  0.72492154
   0.59731092  0.36714394  0.78168965
   0.58709090  0.48831718  0.87988941
   0.59919258  0.61207844  0.98749810
   0.58783620  0.69192026  0.11265318
   0.59014476  0.80442999  0.20024855
   0.57414005  0.90598328  0.29220998
   0.59316207  0.97809847  0.39218935
   0.72289729  0.09531100  0.59870911
   0.71221230  0.20127901  0.68868492
   0.69607183  0.29236605  0.80180394
   0.68409383  0.40861884  0.89176815
   0.69549383  0.50201678  0.98431383
   0.70413338  0.59480281  0.07391584
   0.71960068  0.70486334  0.21619608
   0.66963094  0.82153356  0.29279991
   0.70242198  0.90783767  0.40420293
   0.70118319  0.00974211  0.49792636
   0.79236977  0.10206240  0.70206167
   0.79671592  0.21371201  0.82293722
   0.79303616  0.31410082  0.89850795
   0.80167151  0.40485814  0.99799700
   0.81235385  0.51884626  0.09428364
   0.80326082  0.60967467  0.21767600
   0.78704828  0.71013743  0.30337371
   0.76808685  0.78250257  0.37518080
   0.78822021  0.87704183  0.50070220
   0.81425401  0.00304206  0.58487116
   0.89890582  0.10133437  0.80535395
   0.90827582  0.20914371  0.91054415
   0.90310206  0.31346224  0.00843001
   0.88609697  0.41302799  0.09807950
   0.89192613  0.47098154  0.20801452
   0.89192105  0.61436760  0.28255250
   0.90769217  0.67357670  0.40724155
   0.88914609  0.78203595  0.48475918
   0.91519543  0.88369966  0.57473283
   0.89621574  0.97331367  0.70648070
   0.01541911  0.10396702  0.88643388
   0.00385447  0.21683420  0.00610981
   0.01138161  0.33101172  0.10907738
   0.99796961  0.38308732  0.20765529
   0.99654764  0.49258777  0.29319114
   0.00096227  0.58118273  0.38725430
   0.00896664  0.70411041  0.49691875
   0.00386034  0.79617538  0.60331405
   0.00828081  0.87211078  0.72301922
   0.00009067  0.98601992  0.80942580
   0.18276698  0.21774232  0.01235121
   0.20081771  0.29891602  0.10702426
   0.20690843  0.40466408  0.18699318
   0.20091077  0.47987900  0.30210938
   0.20378825  0.61106582  0.40032984
   0.21026181  0.69567425  0.51456252
   0.20778048  0.78205379  0.62113865
   0.20788514  0.90283271  0.72423305
   0.20765457  0.01013190  0.80341949
   0.18673980  0.10207920  0.90517868
   0.31037055  0.18592401  0.11717512
   0.29700087  0.33801080  0.18982395
   0.32925829  0.41087562  0.28668345
   0.29413982  0.50353938  0.37192479
   0.30866584  0.59734315  0.50928281
   0.30923876  0.69472007  0.60311971
   0.30560134  0.80310625  0.71720875
   0.32498547  0.92703006  0.78925781
   0.31109721  0.02917240  0.90307110
   0.29525172  0.12504648  0.02934704
   0.39442430  0.20436669  0.20450491
   0.41641426  0.32052328  0.28531824
   0.40724593  0.42198800  0.40573689
   0.39955867  0.50445320  0.50327275
   0.38909407  0.58816853  0.58850474
   0.40485058  0.68878750  0.71309519
   0.41265735  0.81369600  0.80235483
   0.40908378  0.91598053  0.91405872
   0.38814778  0.99908445  0.01183533
   0.40029551  0.10698207  0.12792826
   0.50216112  0.19629621  0.31638746
   0.50945269  0.29757493  0.38735471
   0.50010847  0.38108362  0.48955364
   0.51723364  0.48396266  0.58923745
   0.50324519  0.59943940  0.67974555
   0.50080926  0.69966449  0.80310811
   0.50057247  0.78524281  0.90057777
   0.50564276  0.91054867  0.01040046
   0.49130531  0.01178620  0.10163671
   0.50058222  0.09263016  0.20479938
   0.61403043  0.18103911  0.39831124
   0.60704700  0.29130315  0.49532639
   0.61312367  0.40571806  0.59773000
   0.59836920  0.49518218  0.70367796
   0.58703455  0.58690699  0.78253511
   0.59896371  0.69182451  0.86541886
   0.60951842  0.80655576  0.02208095
   0.60952385  0.90531966  0.10379036
   0.60132231  0.02374526  0.19850379
   0.59141680  0.08532096  0.31517636
   0.71548942  0.19160376  0.49882951
   0.69597412  0.28537127  0.60829483
   0.69359941  0.38158652  0.70049064
   0.71171115  0.48345960  0.78097781
   0.69645951  0.58259560  0.87145710
   0.69693018  0.69706085  0.96968161
   0.69228440  0.78992074  0.10641285
   0.70259976  0.91909435  0.19184564
   0.71218362  0.99170791  0.30277509
   0.71012449  0.09519630  0.38989732
   0.81426586  0.19885103  0.59790709
   0.81579774  0.28548211  0.72310787
   0.79790233  0.40499036  0.79298405
   0.81354706  0.50451338  0.90172531
   0.81397574  0.58862754  0.01666710
   0.78430696  0.70742685  0.09160562
   0.79269388  0.80763855  0.21609230
   0.79817368  0.89962305  0.30055879
   0.80794925  0.99959299  0.39979747
   0.81766730  0.09741093  0.48326201
   0.92229698  0.21325108  0.70479631
   0.91815624  0.29810078  0.81873391
   0.90273031  0.40391920  0.89802177
   0.90950036  0.49563780  0.98257908
   0.90735474  0.58022187  0.12155069
   0.90762361  0.72023666  0.18021344
   0.90698240  0.78691951  0.30471406
   0.90916100  0.87619824  0.39341140
   0.92247597  0.97865129  0.48290728
   0.91705321  0.07524724  0.59728228
   0.01801308  0.22140455  0.82000110
   0.01371408  0.30693185  0.91056616
   0.99752239  0.40383543  0.00650696
   0.02082691  0.47925250  0.12576301
   0.00737784  0.58973784  0.20868492
   0.01062690  0.69141594  0.30438414
   0.01209082  0.79235902  0.43112236
   0.01260350  0.89025048  0.48173063
   0.01440674  0.99385408  0.61774822
   0.00569771  0.09835865  0.72297778
   0.09940274  0.18473371  0.92151761
   0.08989735  0.32201455  0.00250003
   0.11171497  0.38881806  0.10697781
   0.10350269  0.47861625  0.19842391
   0.10768243  0.57685399  0.30045676
   0.09418857  0.69655998  0.39460704
   0.10015012  0.81314820  0.50943675
   0.11816840  0.90017431  0.62421857
   0.11049107  0.02488197  0.71806326
   0.09369265  0.11876930  0.78315642
   0.31355515  0.29989934  0.02014017
   0.30747320  0.40825064  0.10029826
   0.30632297  0.51494186  0.20083385
   0.30099198  0.60388133  0.30088112
   0.31163399  0.70092481  0.41077311
   0.27646486  0.81606819  0.52182429
   0.29887474  0.90920561  0.60678987
   0.29417701  0.00318462  0.70742885
   0.29198762  0.12220373  0.78730730
   0.29860898  0.20804250  0.92086815
   0.41123716  0.29350286  0.12347655
   0.40592051  0.41512610  0.19128811
   0.40812629  0.51402850  0.28978781
   0.41956639  0.60714948  0.42657108
   0.38261981  0.69181230  0.50233322
   0.38313265  0.80434071  0.59660950
   0.38702537  0.90376288  0.68993490
   0.39202966  0.00263282  0.79112692
   0.40567374  0.12574821  0.90131633
   0.41533805  0.19271185  0.00920039
   0.51223894  0.30313292  0.20671313
   0.51489772  0.41130205  0.29765326
   0.50224867  0.49893482  0.41549832
   0.50541817  0.61163200  0.50892329
   0.48988746  0.70491872  0.58392118
   0.49375116  0.79971303  0.66675318
   0.47614172  0.90349939  0.78526402
   0.49398614  0.00268006  0.90706198
   0.48955360  0.12289627  0.00581388
   0.50672900  0.20719442  0.12112147
   0.60894929  0.28402196  0.28253096
   0.60410706  0.39756356  0.41293219
   0.59279563  0.51197478  0.49313802
   0.62121186  0.58636864  0.60189584
   0.60443608  0.69586872  0.69887140
   0.57736901  0.79656139  0.78963128
   0.59780717  0.88324620  0.88356286
   0.59326167  0.00109053  0.99492517
   0.60830248  0.10321316  0.09929615
   0.59659403  0.17725731  0.21302387
   0.70124943  0.29913030  0.38968902
   0.70018202  0.41437983  0.49905919
   0.70747328  0.51831814  0.61295569
   0.71478915  0.61569347  0.70320445
   0.68602257  0.70050240  0.80570551
   0.68251721  0.80385619  0.87638057
   0.67552633  0.89883189  0.99966358
   0.70063193  0.00793395  0.09937777
   0.70160323  0.09237186  0.20711595
   0.69556149  0.18726295  0.30431287
   0.77841430  0.32025653  0.49454209
   0.79832289  0.39392342  0.59599542
   0.80433842  0.49997392  0.69867083
   0.80270582  0.60338265  0.79035360
   0.78791045  0.69332277  0.90876059
   0.78630191  0.79776496  0.99809496
   0.77196603  0.89752822  0.10543258
   0.81008107  0.01774065  0.21772463
   0.81525617  0.10181952  0.29790526
   0.82585508  0.19419842  0.39379085
   0.89725094  0.30007474  0.60270828
   0.90929855  0.40652224  0.70435462
   0.90354734  0.50929776  0.78519260
   0.89013387  0.60130924  0.91471799
   0.87807810  0.70715340  0.01016823
   0.87889616  0.79139556  0.09454892
   0.89913824  0.88423606  0.20183552
   0.91025550  0.99286274  0.30574598
   0.90726500  0.10414943  0.39832471
   0.90643163  0.19887897  0.51794037
   0.00610416  0.31676618  0.70403251
   0.99995512  0.39881468  0.82982516
   0.99801061  0.51262203  0.88316640
   0.01542966  0.59343708  0.00915592
   0.02381193  0.70433820  0.09710575
   0.00137831  0.80755600  0.19323342
   0.99650850  0.88294035  0.30085885
   0.99411001  0.98827967  0.39882037
   0.99711488  0.08734869  0.51332847
   0.00748378  0.18113703  0.61246875
   0.11891083  0.30217278  0.79844108
   0.12054284  0.40506587  0.91156151
   0.08868838  0.49332725  0.00111837
   0.10529865  0.61618650  0.09902479
   0.10007318  0.71413128  0.19717956
   0.07875561  0.79251759  0.31069533
   0.09841268  0.89717618  0.38583701
   0.10823416  0.97479275  0.48159465
   0.11280783  0.07299740  0.59769765
   0.09464662  0.22285124  0.69434956
   0.17773475  0.28577395  0.91026657
   0.20433510  0.38972497  0.00628854
   0.18869507  0.49021220  0.09628165
   0.19805472  0.57729761  0.19782797
   0.18524417  0.70288519  0.27556930
   0.19412272  0.77568236  0.37894121
   0.18815535  0.89846566  0.50899466
   0.20821182  0.01510083  0.60520142
   0.20423880  0.12736967  0.69411645
   0.20750648  0.21306979  0.80372342
   0.40041052  0.41617296  0.99943911
   0.41548365  0.51413561  0.10448596
   0.41476109  0.59037534  0.19557790
   0.40645203  0.69395669  0.30220302
   0.37632472  0.79896955  0.40911708
   0.39375655  0.89481280  0.47765230
   0.39538180  0.00411416  0.59402352
   0.37861071  0.11366956  0.69493529
   0.37640619  0.20156885  0.81022533
   0.39744060  0.30994412  0.89527640
   0.50546467  0.40313909  0.10661254
   0.51331751  0.50044772  0.19665896
   0.50785778  0.61319230  0.30772858
   0.50490155  0.70567422  0.41679081
   0.47367875  0.80231404  0.50542964
   0.49752159  0.91713628  0.59515628
   0.51143548  0.01194054  0.69685570
   0.48801458  0.09295522  0.78978682
   0.50214585  0.20753270  0.90235988
   0.49870625  0.28520856  0.00697630
   0.60569647  0.41491887  0.19590565
   0.60484638  0.52026884  0.30556996
   0.59614911  0.59184425  0.40518474
   0.60994048  0.68369093  0.49956891
   0.60036183  0.78797907  0.57967434
   0.61318395  0.88523136  0.68734277
   0.58545140  0.00956312  0.80256750
   0.57758415  0.11086394  0.90563534
   0.60334613  0.20271330  0.00901204
   0.61252350  0.31470447  0.10231085
   0.70425371  0.42227915  0.29715110
   0.69793255  0.49721057  0.38419953
   0.69579817  0.60332919  0.48118370
   0.70678149  0.70399601  0.60754831
   0.71279336  0.78079150  0.69468203
   0.68754054  0.90661150  0.77295017
   0.67121670  0.01061290  0.88144331
   0.68901854  0.12081832  0.00669566
   0.69742049  0.19376126  0.10838868
   0.69798793  0.28336104  0.17933198
   0.80596961  0.40865498  0.38550769
   0.78594668  0.48555686  0.50176848
   0.78628866  0.61892643  0.60856015
   0.79970389  0.71150316  0.70493218
   0.78581923  0.80339025  0.79445388
   0.76120695  0.90399671  0.90867741
   0.78331260  0.99088773  0.97774729
   0.79790178  0.09476250  0.09249745
   0.79618293  0.20026448  0.19339094
   0.78649732  0.29212997  0.28671758
   0.90257581  0.40482442  0.51397685
   0.88191218  0.49552226  0.59535009
   0.88501488  0.60942299  0.69274588
   0.88577321  0.69047049  0.80163446
   0.89065949  0.77666073  0.90547036
   0.87695555  0.86309094  0.99807882
   0.87527217  0.97624991  0.09138223
   0.92839634  0.10143814  0.19548433
   0.91774296  0.21924051  0.29606465
   0.90577916  0.30090920  0.40161239
   0.99986158  0.40654772  0.60629418
   0.98867223  0.51381154  0.70433331
   0.97763292  0.61558807  0.80641364
   0.98317357  0.68674729  0.90374157
   0.99769282  0.79901734  0.01165937
   0.99775086  0.90647961  0.09984886
   0.99845328  0.99196026  0.20267753
   0.01586942  0.10209947  0.30976441
   0.01252619  0.20949454  0.40494526
   0.00355149  0.29399452  0.52058919
   0.07468302  0.41826962  0.70477287
   0.09679596  0.49183000  0.80660542
   0.10221309  0.60476111  0.92002753
   0.11007955  0.70059045  0.98276248
   0.11857805  0.80142144  0.07984299
   0.11233868  0.88124037  0.20886093
   0.10598223  0.97891838  0.28868706
   0.09084345  0.10072891  0.41273208
   0.09817754  0.20388788  0.50752979
   0.09118330  0.31111029  0.59335975
   0.19554231  0.41125690  0.80110454
   0.18582274  0.50449396  0.89211642
   0.19875615  0.58816896  0.99145689
   0.19037404  0.69714163  0.08846760
   0.19287966  0.80344063  0.18401301
   0.21012969  0.88720151  0.29981471
   0.20558388  0.00064253  0.39245488
   0.19735719  0.10458980  0.49394543
   0.20353281  0.19250016  0.59637305
   0.18376340  0.32120493  0.68266731
   0.28931313  0.38338452  0.92511569
   0.31272521  0.50617651  0.02095091
   0.30875453  0.58937282  0.10248574
   0.29378332  0.67922810  0.19444293
   0.30257869  0.78009613  0.29782092
   0.29900243  0.88663445  0.39356589
   0.28517096  0.98236063  0.49130624
   0.29738816  0.10003670  0.58599224
   0.28977180  0.23675539  0.69096910
   0.30179429  0.30349406  0.80595346
