 500 500   0   0
  0.1852332E+02  0.2100050E-08  0.2100050E-08  0.2100050E-08  0.5000000E-15
  1.000000000000000E-004
  CAR 
 Li                                      
      3.93589204     -3.32104822  301      0.64165137      1.00000000
     -3.321  0.0000E+00  0.0000E+00
     -3.297  0.0000E+00  0.0000E+00
     -3.273  0.0000E+00  0.0000E+00
     -3.248  0.0000E+00  0.0000E+00
     -3.224  0.0000E+00  0.0000E+00
     -3.200  0.0000E+00  0.0000E+00
     -3.176  0.0000E+00  0.0000E+00
     -3.152  0.1539E-11  0.3722E-13
     -3.128  0.5273E-08  0.1276E-09
     -3.103  0.5059E-05  0.1225E-06
     -3.079  0.1373E-02  0.3333E-04
     -3.055  0.1069E+00  0.2620E-02
     -3.031  0.2440E+01  0.6165E-01
     -3.007  0.1673E+02  0.4663E+00
     -2.982  0.3527E+02  0.1320E+01
     -2.958  0.2315E+02  0.1880E+01
     -2.934  0.5202E+01  0.2005E+01
     -2.910  0.8526E+01  0.2212E+01
     -2.886  0.4610E+02  0.3327E+01
     -2.861  0.9509E+02  0.5627E+01
     -2.837  0.7441E+02  0.7427E+01
     -2.813  0.2183E+02  0.7955E+01
     -2.789  0.8477E+01  0.8160E+01
     -2.765  0.3994E+02  0.9126E+01
     -2.740  0.9209E+02  0.1135E+02
     -2.716  0.8043E+02  0.1330E+02
     -2.692  0.2648E+02  0.1394E+02
     -2.668  0.1148E+02  0.1422E+02
     -2.644  0.4994E+02  0.1543E+02
     -2.620  0.1143E+03  0.1819E+02
     -2.595  0.1093E+03  0.2083E+02
     -2.571  0.4273E+02  0.2187E+02
     -2.547  0.1757E+02  0.2229E+02
     -2.523  0.6878E+02  0.2396E+02
     -2.499  0.1554E+03  0.2771E+02
     -2.474  0.1593E+03  0.3157E+02
     -2.450  0.8090E+02  0.3352E+02
     -2.426  0.2085E+02  0.3403E+02
     -2.402  0.2629E+02  0.3466E+02
     -2.378  0.8092E+02  0.3662E+02
     -2.353  0.9446E+02  0.3891E+02
     -2.329  0.3971E+02  0.3987E+02
     -2.305  0.1305E+02  0.4018E+02
     -2.281  0.5093E+02  0.4141E+02
     -2.257  0.1406E+03  0.4482E+02
     -2.233  0.1752E+03  0.4905E+02
     -2.208  0.9854E+02  0.5144E+02
     -2.184  0.3387E+02  0.5226E+02
     -2.160  0.7197E+02  0.5400E+02
     -2.136  0.1810E+03  0.5838E+02
     -2.112  0.2378E+03  0.6413E+02
     -2.087  0.1705E+03  0.6826E+02
     -2.063  0.6293E+02  0.6978E+02
     -2.039  0.2185E+02  0.7031E+02
     -2.015  0.5386E+02  0.7161E+02
     -1.991  0.9430E+02  0.7389E+02
     -1.966  0.6752E+02  0.7552E+02
     -1.942  0.2262E+02  0.7607E+02
     -1.918  0.4122E+02  0.7707E+02
     -1.894  0.1350E+03  0.8033E+02
     -1.870  0.2027E+03  0.8524E+02
     -1.845  0.1443E+03  0.8873E+02
     -1.821  0.5219E+02  0.8999E+02
     -1.797  0.5101E+02  0.9122E+02
     -1.773  0.1461E+03  0.9476E+02
     -1.749  0.2335E+03  0.1004E+03
     -1.725  0.2018E+03  0.1053E+03
     -1.700  0.9169E+02  0.1075E+03
     -1.676  0.3128E+02  0.1083E+03
     -1.652  0.6766E+02  0.1099E+03
     -1.628  0.1509E+03  0.1135E+03
     -1.604  0.1617E+03  0.1175E+03
     -1.579  0.8761E+02  0.1196E+03
     -1.555  0.5439E+02  0.1209E+03
     -1.531  0.1357E+03  0.1242E+03
     -1.507  0.2301E+03  0.1297E+03
     -1.483  0.2110E+03  0.1348E+03
     -1.458  0.1062E+03  0.1374E+03
     -1.434  0.4803E+02  0.1386E+03
     -1.410  0.1078E+03  0.1412E+03
     -1.386  0.2125E+03  0.1463E+03
     -1.362  0.2239E+03  0.1517E+03
     -1.337  0.1321E+03  0.1549E+03
     -1.313  0.4945E+02  0.1561E+03
     -1.289  0.6461E+02  0.1577E+03
     -1.265  0.1443E+03  0.1612E+03
     -1.241  0.1642E+03  0.1652E+03
     -1.217  0.9486E+02  0.1675E+03
     -1.192  0.4928E+02  0.1686E+03
     -1.168  0.9099E+02  0.1708E+03
     -1.144  0.1345E+03  0.1741E+03
     -1.120  0.1323E+03  0.1773E+03
     -1.096  0.8909E+02  0.1795E+03
     -1.071  0.6470E+02  0.1810E+03
     -1.047  0.1495E+03  0.1846E+03
     -1.023  0.2809E+03  0.1914E+03
     -0.999  0.3354E+03  0.1995E+03
     -0.975  0.2687E+03  0.2060E+03
     -0.950  0.1414E+03  0.2095E+03
     -0.926  0.1043E+03  0.2120E+03
     -0.902  0.1825E+03  0.2164E+03
     -0.878  0.2277E+03  0.2219E+03
     -0.854  0.1741E+03  0.2261E+03
     -0.829  0.8342E+02  0.2281E+03
     -0.805  0.5874E+02  0.2296E+03
     -0.781  0.1014E+03  0.2320E+03
     -0.757  0.1742E+03  0.2362E+03
     -0.733  0.1762E+03  0.2405E+03
     -0.709  0.1440E+03  0.2440E+03
     -0.684  0.1849E+03  0.2484E+03
     -0.660  0.2268E+03  0.2539E+03
     -0.636  0.2287E+03  0.2595E+03
     -0.612  0.1771E+03  0.2638E+03
     -0.588  0.7925E+02  0.2657E+03
     -0.563  0.3259E+02  0.2665E+03
     -0.539  0.6171E+02  0.2679E+03
     -0.515  0.8942E+02  0.2701E+03
     -0.491  0.6854E+02  0.2718E+03
     -0.467  0.7507E+02  0.2736E+03
     -0.442  0.1726E+03  0.2778E+03
     -0.418  0.2683E+03  0.2842E+03
     -0.394  0.2946E+03  0.2914E+03
     -0.370  0.2856E+03  0.2983E+03
     -0.346  0.2495E+03  0.3043E+03
     -0.322  0.1908E+03  0.3089E+03
     -0.297  0.1905E+03  0.3135E+03
     -0.273  0.2472E+03  0.3195E+03
     -0.249  0.2747E+03  0.3262E+03
     -0.225  0.2338E+03  0.3318E+03
     -0.201  0.1576E+03  0.3356E+03
     -0.176  0.9499E+02  0.3379E+03
     -0.152  0.9782E+02  0.3403E+03
     -0.128  0.1448E+03  0.3438E+03
     -0.104  0.1754E+03  0.3480E+03
     -0.080  0.1862E+03  0.3525E+03
     -0.055  0.1613E+03  0.3565E+03
     -0.031  0.1566E+03  0.3602E+03
     -0.007  0.1683E+03  0.3643E+03
      0.017  0.1618E+03  0.3682E+03
      0.041  0.1831E+03  0.3727E+03
      0.066  0.2451E+03  0.3786E+03
      0.090  0.2796E+03  0.3853E+03
      0.114  0.2555E+03  0.3915E+03
      0.138  0.2107E+03  0.3966E+03
      0.162  0.1969E+03  0.4014E+03
      0.186  0.2203E+03  0.4067E+03
      0.211  0.2056E+03  0.4117E+03
      0.235  0.1361E+03  0.4150E+03
      0.259  0.9818E+02  0.4174E+03
      0.283  0.1564E+03  0.4211E+03
      0.307  0.2270E+03  0.4266E+03
      0.332  0.2561E+03  0.4328E+03
      0.356  0.2434E+03  0.4387E+03
      0.380  0.2186E+03  0.4440E+03
      0.404  0.2020E+03  0.4489E+03
      0.428  0.1954E+03  0.4536E+03
      0.453  0.1924E+03  0.4583E+03
      0.477  0.1907E+03  0.4629E+03
      0.501  0.2068E+03  0.4679E+03
      0.525  0.2211E+03  0.4732E+03
      0.549  0.2227E+03  0.4786E+03
      0.574  0.2296E+03  0.4842E+03
      0.598  0.2371E+03  0.4899E+03
      0.622  0.2339E+03  0.4956E+03
      0.646  0.2239E+03  0.5010E+03
      0.670  0.2242E+03  0.5064E+03
      0.694  0.2293E+03  0.5120E+03
      0.719  0.2423E+03  0.5178E+03
      0.743  0.2428E+03  0.5237E+03
      0.767  0.2362E+03  0.5294E+03
      0.791  0.2527E+03  0.5355E+03
      0.815  0.2852E+03  0.5424E+03
      0.840  0.3011E+03  0.5497E+03
      0.864  0.2984E+03  0.5569E+03
      0.888  0.2934E+03  0.5640E+03
      0.912  0.2893E+03  0.5710E+03
      0.936  0.2838E+03  0.5779E+03
      0.961  0.2729E+03  0.5845E+03
      0.985  0.2624E+03  0.5908E+03
      1.009  0.2558E+03  0.5970E+03
      1.033  0.2550E+03  0.6032E+03
      1.057  0.2342E+03  0.6088E+03
      1.081  0.1745E+03  0.6131E+03
      1.106  0.1157E+03  0.6159E+03
      1.130  0.1040E+03  0.6184E+03
      1.154  0.1270E+03  0.6214E+03
      1.178  0.1426E+03  0.6249E+03
      1.202  0.1584E+03  0.6287E+03
      1.227  0.1689E+03  0.6328E+03
      1.251  0.1805E+03  0.6372E+03
      1.275  0.2004E+03  0.6420E+03
      1.299  0.2233E+03  0.6474E+03
      1.323  0.2295E+03  0.6530E+03
      1.348  0.2242E+03  0.6584E+03
      1.372  0.2365E+03  0.6641E+03
      1.396  0.2425E+03  0.6700E+03
      1.420  0.2389E+03  0.6758E+03
      1.444  0.2386E+03  0.6815E+03
      1.469  0.2460E+03  0.6875E+03
      1.493  0.2451E+03  0.6934E+03
      1.517  0.2328E+03  0.6991E+03
      1.541  0.2158E+03  0.7043E+03
      1.565  0.1976E+03  0.7091E+03
      1.589  0.1874E+03  0.7136E+03
      1.614  0.1809E+03  0.7180E+03
      1.638  0.1858E+03  0.7225E+03
      1.662  0.1896E+03  0.7270E+03
      1.686  0.1918E+03  0.7317E+03
      1.710  0.1950E+03  0.7364E+03
      1.735  0.1961E+03  0.7411E+03
      1.759  0.2037E+03  0.7461E+03
      1.783  0.1949E+03  0.7508E+03
      1.807  0.1814E+03  0.7552E+03
      1.831  0.1768E+03  0.7594E+03
      1.856  0.1744E+03  0.7637E+03
      1.880  0.1605E+03  0.7676E+03
      1.904  0.1402E+03  0.7709E+03
      1.928  0.1443E+03  0.7744E+03
      1.952  0.1648E+03  0.7784E+03
      1.977  0.1738E+03  0.7826E+03
      2.001  0.1555E+03  0.7864E+03
      2.025  0.1268E+03  0.7895E+03
      2.049  0.1220E+03  0.7924E+03
      2.073  0.1348E+03  0.7957E+03
      2.097  0.1482E+03  0.7993E+03
      2.122  0.1648E+03  0.8032E+03
      2.146  0.1869E+03  0.8078E+03
      2.170  0.2124E+03  0.8129E+03
      2.194  0.2143E+03  0.8181E+03
      2.218  0.2015E+03  0.8230E+03
      2.243  0.2039E+03  0.8279E+03
      2.267  0.2278E+03  0.8334E+03
      2.291  0.2439E+03  0.8393E+03
      2.315  0.2218E+03  0.8447E+03
      2.339  0.1895E+03  0.8493E+03
      2.364  0.1784E+03  0.8536E+03
      2.388  0.1850E+03  0.8580E+03
      2.412  0.1777E+03  0.8623E+03
      2.436  0.1642E+03  0.8663E+03
      2.460  0.1473E+03  0.8699E+03
      2.485  0.1358E+03  0.8732E+03
      2.509  0.1316E+03  0.8763E+03
      2.533  0.1196E+03  0.8792E+03
      2.557  0.1248E+03  0.8823E+03
      2.581  0.1499E+03  0.8859E+03
      2.605  0.1581E+03  0.8897E+03
      2.630  0.1599E+03  0.8936E+03
      2.654  0.1594E+03  0.8974E+03
      2.678  0.1535E+03  0.9011E+03
      2.702  0.1394E+03  0.9045E+03
      2.726  0.1250E+03  0.9075E+03
      2.751  0.1118E+03  0.9102E+03
      2.775  0.1184E+03  0.9131E+03
      2.799  0.1402E+03  0.9165E+03
      2.823  0.1412E+03  0.9199E+03
      2.847  0.1320E+03  0.9231E+03
      2.872  0.1408E+03  0.9265E+03
      2.896  0.1537E+03  0.9302E+03
      2.920  0.1548E+03  0.9340E+03
      2.944  0.1440E+03  0.9375E+03
      2.968  0.1330E+03  0.9407E+03
      2.992  0.1121E+03  0.9434E+03
      3.017  0.8521E+02  0.9455E+03
      3.041  0.8910E+02  0.9476E+03
      3.065  0.1172E+03  0.9504E+03
      3.089  0.1246E+03  0.9535E+03
      3.113  0.1226E+03  0.9564E+03
      3.138  0.1361E+03  0.9597E+03
      3.162  0.1535E+03  0.9634E+03
      3.186  0.1515E+03  0.9671E+03
      3.210  0.1411E+03  0.9705E+03
      3.234  0.1366E+03  0.9738E+03
      3.259  0.1380E+03  0.9772E+03
      3.283  0.1407E+03  0.9806E+03
      3.307  0.1342E+03  0.9838E+03
      3.331  0.1004E+03  0.9862E+03
      3.355  0.5382E+02  0.9875E+03
      3.380  0.1724E+02  0.9879E+03
      3.404  0.5462E+01  0.9881E+03
      3.428  0.1830E+02  0.9885E+03
      3.452  0.4382E+02  0.9896E+03
      3.476  0.5987E+02  0.9910E+03
      3.500  0.7304E+02  0.9928E+03
      3.525  0.9357E+02  0.9951E+03
      3.549  0.1113E+03  0.9978E+03
      3.573  0.9716E+02  0.1000E+04
      3.597  0.5211E+02  0.1001E+04
      3.621  0.2018E+02  0.1002E+04
      3.646  0.5443E+01  0.1002E+04
      3.670  0.6647E+00  0.1002E+04
      3.694  0.2765E-01  0.1002E+04
      3.718  0.3501E-03  0.1002E+04
      3.742  0.1287E-05  0.1002E+04
      3.767  0.1343E-08  0.1002E+04
      3.791  0.3947E-12  0.1002E+04
      3.815  0.0000E+00  0.1002E+04
      3.839  0.0000E+00  0.1002E+04
      3.863  0.0000E+00  0.1002E+04
      3.888  0.0000E+00  0.1002E+04
      3.912  0.0000E+00  0.1002E+04
      3.936  0.0000E+00  0.1002E+04
