 running on   64 total cores
 distrk:  each k-point on   32 cores,    2 groups
 distr:  one band on   32 cores,    1 groups
 vasp.6.2.1 16May21 (build Nov 23 2021 15:40:41) complex                        
  
 POSCAR found type information on POSCAR Li
 POSCAR found :  1 types and     500 ions
 scaLAPACK will be used
 -----------------------------------------------------------------------------
|                                                                             |
|           W    W    AA    RRRRR   N    N  II  N    N   GGGG   !!!           |
|           W    W   A  A   R    R  NN   N  II  NN   N  G    G  !!!           |
|           W    W  A    A  R    R  N N  N  II  N N  N  G       !!!           |
|           W WW W  AAAAAA  RRRRR   N  N N  II  N  N N  G  GGG   !            |
|           WW  WW  A    A  R   R   N   NN  II  N   NN  G    G                |
|           W    W  A    A  R    R  N    N  II  N    N   GGGG   !!!           |
|                                                                             |
|     For optimal performance we recommend to set                             |
|       NCORE = 2 up to number-of-cores-per-socket                            |
|     NCORE specifies how many cores store one orbital (NPAR=cpu/NCORE).      |
|     This setting can greatly improve the performance of VASP for DFT.       |
|     The default, NCORE=1 might be grossly inefficient on modern             |
|     multi-core architectures or massively parallel machines. Do your        |
|     own testing! More info at https://www.vasp.at/wiki/index.php/NCORE      |
|     Unfortunately you need to use the default for GW and RPA                |
|     calculations (for HF NCORE is supported but not extensively tested      |
|     yet).                                                                   |
|                                                                             |
 -----------------------------------------------------------------------------

 -----------------------------------------------------------------------------
|                                                                             |
|               ----> ADVICE to this user running VASP <----                  |
|                                                                             |
|     You have a (more or less) 'large supercell' and for larger cells it     |
|     might be more efficient to use real-space projection operators.         |
|     Therefore, try LREAL= Auto in the INCAR file.                           |
|     Mind: If you want to do very accurate calculations, keep the            |
|     reciprocal projection scheme (i.e. LREAL=.FALSE.).                      |
|                                                                             |
 -----------------------------------------------------------------------------

 LDA part: xc-table for Pade appr. of Perdew
 POSCAR found type information on POSCAR Li
 POSCAR found :  1 types and     500 ions
 POSCAR, INCAR and KPOINTS ok, starting setup
 FFT: planning ...
 WAVECAR not read
 entering main loop
       N       E                     dE             d eps       ncg     rms          rms(c)
DAV:   1    -0.248029546961E+03   -0.24803E+03   -0.12458E+05  4008   0.665E+02
DAV:   2    -0.874927188437E+03   -0.62690E+03   -0.57389E+03  4604   0.700E+01
DAV:   3    -0.918896054160E+03   -0.43969E+02   -0.39965E+02  5176   0.146E+01
DAV:   4    -0.920348024165E+03   -0.14520E+01   -0.14295E+01  4672   0.290E+00
DAV:   5    -0.920381305147E+03   -0.33281E-01   -0.33224E-01  4784   0.463E-01    0.937E+00
DAV:   6    -0.924533187162E+03   -0.41519E+01   -0.11544E+01  4728   0.574E+00    0.987E+00
DAV:   7    -0.909631661595E+03    0.14902E+02   -0.11409E+01  4824   0.499E+00    0.462E+00
DAV:   8    -0.907706413159E+03    0.19252E+01   -0.50067E+00  4584   0.223E+00    0.261E+00
DAV:   9    -0.907309147607E+03    0.39727E+00   -0.24000E+00  4496   0.135E+00    0.157E+00
DAV:  10    -0.907335611073E+03   -0.26463E-01   -0.65434E-01  4712   0.879E-01    0.142E+00
DAV:  11    -0.907124189428E+03    0.21142E+00   -0.26402E-01  4592   0.559E-01    0.614E-01
DAV:  12    -0.907116120352E+03    0.80691E-02   -0.91621E-02  4432   0.249E-01    0.327E-01
DAV:  13    -0.907116409909E+03   -0.28956E-03   -0.26483E-02  4752   0.181E-01    0.270E-01
DAV:  14    -0.907110380768E+03    0.60291E-02   -0.82755E-03  4584   0.111E-01    0.130E-01
DAV:  15    -0.907109329064E+03    0.10517E-02   -0.24986E-03  4504   0.549E-02    0.619E-02
DAV:  16    -0.907109668968E+03   -0.33990E-03   -0.10613E-03  4720   0.384E-02    0.602E-02
DAV:  17    -0.907109165499E+03    0.50347E-03   -0.67998E-04  4608   0.292E-02    0.188E-02
DAV:  18    -0.907109138309E+03    0.27190E-04   -0.17270E-04  4328   0.106E-02    0.941E-03
DAV:  19    -0.907109127401E+03    0.10908E-04   -0.23738E-05  3232   0.507E-03    0.598E-03
DAV:  20    -0.907109123400E+03    0.40013E-05   -0.71989E-06  2472   0.363E-03
   1 F= -.90710912E+03 E0= -.90705912E+03  d E =-.100014E+00
