Li                                      
           1
    21.000500    0.000000    0.000000
     0.000000   21.000500    0.000000
     0.000000    0.000000   21.000500
   Li
   500
Direct configuration=     1
   0.99646029  0.00504793  0.99144303
   0.01090591  0.10878935  0.09277454
   0.01461206  0.18515569  0.18439983
   0.99798409  0.27893541  0.29220163
   0.98343713  0.39545548  0.40412307
   0.01598256  0.48754754  0.50088991
   0.00111912  0.59569530  0.59276536
   0.99289718  0.72153121  0.70480249
   0.00073276  0.81732207  0.79994263
   0.00218191  0.90135975  0.89464595
   0.08944611  0.99091456  0.09184191
   0.10151314  0.09286092  0.20045189
   0.10464425  0.19139447  0.30102788
   0.09405507  0.28970159  0.40207467
   0.07967300  0.40104732  0.50333380
   0.09993292  0.49047691  0.62199705
   0.08173389  0.58712357  0.70086591
   0.08063577  0.70795084  0.77632981
   0.11444078  0.79797304  0.89252957
   0.08800925  0.90425870  0.99413976
   0.18960195  0.00533980  0.20694387
   0.20920875  0.08217138  0.32362853
   0.18955184  0.19304142  0.40195272
   0.19198487  0.32015525  0.50364721
   0.18856502  0.38730444  0.60968042
   0.19944518  0.49153331  0.70426908
   0.20626038  0.57593731  0.78968463
   0.18777612  0.68742117  0.88864156
   0.20408847  0.78901250  0.00197559
   0.19312198  0.90327070  0.09830782
   0.29384828  0.00139869  0.30872069
   0.30437621  0.11525332  0.40434512
   0.30198132  0.21163399  0.50402578
   0.29959430  0.29082213  0.59983962
   0.30471315  0.40991767  0.69741073
   0.31617460  0.49414650  0.80313210
   0.28855994  0.58899613  0.89502073
   0.29329502  0.68522727  0.00448657
   0.28447110  0.79724200  0.09877639
   0.28647088  0.90393811  0.20062250
   0.40836130  0.98499682  0.39152095
   0.40695630  0.11642013  0.51416745
   0.41715321  0.19267977  0.60783257
   0.40728550  0.31678887  0.68694395
   0.41237282  0.39861075  0.78944082
   0.39275386  0.49901734  0.90680930
   0.40454261  0.59810723  0.01657918
   0.38962738  0.70203098  0.09847163
   0.39990114  0.80109285  0.20655807
   0.40937004  0.89557137  0.30347035
   0.48537372  0.00396049  0.47583850
   0.50406758  0.08686246  0.61800812
   0.50495991  0.20149822  0.70580116
   0.50520329  0.30318940  0.78991018
   0.48588778  0.41023817  0.89779744
   0.50675925  0.52633264  0.02260601
   0.50036679  0.61052398  0.10070324
   0.52293997  0.70324929  0.19556098
   0.50429740  0.78690168  0.30098013
   0.51066281  0.88019074  0.39971979
   0.59097006  0.01914257  0.59635843
   0.58754779  0.10888291  0.70828407
   0.60376819  0.22070219  0.80257989
   0.60132212  0.31635942  0.89778385
   0.58179338  0.41790663  0.99534301
   0.62528731  0.49330762  0.08944438
   0.59724208  0.57504381  0.19797080
   0.60830563  0.69580707  0.31088990
   0.60478230  0.79807411  0.39312223
   0.59232079  0.90426357  0.50557370
   0.67003713  0.99391579  0.69203471
   0.68745114  0.10181850  0.78929743
   0.68399595  0.21222131  0.88946746
   0.67943725  0.32244308  0.99882380
   0.70218786  0.39230067  0.09381508
   0.73288099  0.51079501  0.21296258
   0.71922297  0.59609579  0.30468960
   0.70982897  0.69557944  0.39570574
   0.68224875  0.79839403  0.51087763
   0.68959870  0.90016601  0.59217135
   0.78675018  0.01168130  0.78765423
   0.79632656  0.10413177  0.89289440
   0.79247762  0.18995288  0.98769947
   0.79301995  0.30402136  0.08477509
   0.81047053  0.40078431  0.19450628
   0.81020744  0.48932955  0.31166448
   0.79875417  0.60050724  0.39786181
   0.78510997  0.70300707  0.51174945
   0.80617674  0.81754808  0.61002039
   0.78759414  0.90051555  0.69795422
   0.89336516  0.00928679  0.92678702
   0.90249108  0.10884802  0.01502023
   0.90276969  0.20676270  0.11695250
   0.90681741  0.28776496  0.20012230
   0.91925551  0.40354943  0.32229838
   0.90719042  0.49865375  0.41475359
   0.90802588  0.59139443  0.50634365
   0.87435549  0.70938371  0.58387112
   0.91842411  0.79505823  0.69456538
   0.88236985  0.90876164  0.79615114
   0.09092223  0.10599616  0.99824934
   0.13762349  0.20589245  0.10538678
   0.12940285  0.29467665  0.20734014
   0.08806837  0.40086021  0.29042586
   0.08670262  0.50868222  0.36514198
   0.10930492  0.58213469  0.50966316
   0.10409150  0.69709549  0.58129641
   0.10210386  0.80311347  0.69775977
   0.11058382  0.90872384  0.79264488
   0.10670809  0.99541927  0.89512107
   0.19902957  0.10090404  0.11530189
   0.21064778  0.19643626  0.19995612
   0.20107581  0.31907282  0.31397167
   0.19319857  0.38859650  0.39157510
   0.19327934  0.47670477  0.48341905
   0.19529381  0.59975172  0.59013861
   0.20704650  0.68584078  0.69689349
   0.20884673  0.80336061  0.81043295
   0.20205440  0.90375994  0.89959642
   0.21164921  0.02934619  0.98857811
   0.31616910  0.11305128  0.20428494
   0.28711320  0.21989710  0.30877860
   0.31081111  0.29553080  0.40045681
   0.28929853  0.39609072  0.49530699
   0.27906155  0.50615515  0.60170916
   0.29695483  0.58669809  0.70701786
   0.30807241  0.68172775  0.80293014
   0.30368842  0.78006616  0.90614423
   0.29440826  0.89924165  0.00815823
   0.30311755  0.01871599  0.11118491
   0.38111325  0.11594988  0.32127777
   0.39741580  0.21222740  0.41141542
   0.41174161  0.31620104  0.50348442
   0.39071052  0.40335120  0.60009508
   0.41450099  0.51494605  0.68003818
   0.38395810  0.59398177  0.79472455
   0.40503777  0.68045128  0.90859501
   0.39996368  0.78076164  0.00966682
   0.38216524  0.90178561  0.10878222
   0.39719227  0.00585601  0.19950112
   0.50953832  0.11179599  0.38732169
   0.50265129  0.19633335  0.50841659
   0.50914136  0.29645283  0.61549954
   0.50241374  0.40918450  0.67745490
   0.48042914  0.50479062  0.78848838
   0.48250197  0.57082413  0.91307022
   0.51015294  0.67963426  0.99995395
   0.50997066  0.80221205  0.09617212
   0.50071120  0.88631092  0.20271068
   0.50841542  0.01535797  0.28129963
   0.60343052  0.09829356  0.50597343
   0.59872050  0.18785383  0.60003411
   0.60559401  0.30903443  0.69427000
   0.59716093  0.40115987  0.80541243
   0.57993048  0.50303912  0.89703062
   0.61670681  0.60382473  0.00444442
   0.61366242  0.70493110  0.10429231
   0.60422380  0.80244529  0.22240029
   0.60840574  0.89877889  0.29403187
   0.59976930  0.03059308  0.38624954
   0.70144193  0.09300364  0.60696292
   0.69102117  0.21970929  0.69196469
   0.70497834  0.30841425  0.78666986
   0.71090773  0.40798648  0.89876879
   0.70776890  0.48483458  0.00021210
   0.69685544  0.59834019  0.11375434
   0.69348428  0.68448665  0.21164046
   0.71849512  0.81541729  0.31327072
   0.68479664  0.90971340  0.40271071
   0.69437540  0.99947030  0.50399086
   0.79549102  0.10105117  0.69516680
   0.78307428  0.19649212  0.79509931
   0.79426756  0.30100011  0.91263299
   0.79890260  0.40556605  0.99842304
   0.80269548  0.49119711  0.07937971
   0.81279555  0.60088113  0.20512027
   0.81226323  0.69777845  0.30337635
   0.79882138  0.81238568  0.39937478
   0.78850008  0.89417363  0.51174550
   0.78511126  0.00172239  0.59165272
   0.91981095  0.09856388  0.80440521
   0.89775593  0.21230050  0.89074347
   0.90037726  0.29999119  0.01323822
   0.89616424  0.39238361  0.09916651
   0.91800221  0.50497811  0.18810513
   0.87696419  0.58173744  0.29995367
   0.90449946  0.70223856  0.40435444
   0.89361307  0.80203969  0.49734617
   0.89263550  0.89566345  0.60560223
   0.88383940  0.00624032  0.69949276
   0.98370735  0.09818027  0.89374812
   0.00010653  0.19208824  0.99518696
   0.02070663  0.30453735  0.10958344
   0.00678747  0.39548694  0.20199396
   0.01102427  0.52289830  0.31031069
   0.99056467  0.60402222  0.39870049
   0.00072689  0.68782856  0.51446262
   0.00939239  0.78747275  0.58595770
   0.00814991  0.89837608  0.68736157
   0.99695565  0.99667410  0.80201637
   0.19190637  0.18628590  0.98203619
   0.21687170  0.30655666  0.10249902
   0.21180217  0.41678509  0.20372337
   0.18997726  0.50903772  0.31969847
   0.19893287  0.59216055  0.40855873
   0.19562745  0.69500413  0.48344699
   0.22266841  0.77947738  0.60422155
   0.21115306  0.89991196  0.70434136
   0.19387756  0.02546467  0.78022957
   0.20021341  0.10646827  0.89227502
   0.30549097  0.19289992  0.08777334
   0.29555228  0.30746339  0.22257592
   0.29391636  0.41372723  0.30834576
   0.30666015  0.50460046  0.38672756
   0.28433980  0.59136536  0.49275107
   0.30221465  0.70151166  0.59633377
   0.30743481  0.78305211  0.71835586
   0.29921217  0.90333706  0.81035829
   0.30171918  0.98972816  0.90017528
   0.31573100  0.10910925  0.00744334
   0.40324343  0.19461360  0.21542165
   0.40497812  0.32432714  0.30735616
   0.40985285  0.41129253  0.42010167
   0.39905291  0.48828900  0.51154838
   0.37579252  0.60621682  0.59660593
   0.41445862  0.68849771  0.69739120
   0.41405474  0.78270535  0.81040648
   0.38961599  0.87250227  0.90072347
   0.39432186  0.98750576  0.98512786
   0.41852978  0.09111388  0.09292737
   0.49718794  0.19953837  0.29330931
   0.50794636  0.30269512  0.41225423
   0.51056055  0.39342331  0.50545623
   0.51171216  0.50685748  0.59757933
   0.49738558  0.59338755  0.70046726
   0.48098834  0.68678532  0.80334715
   0.49934439  0.78296661  0.90248660
   0.49797589  0.88707949  0.00423728
   0.48725686  0.98071070  0.08191974
   0.49887551  0.09632039  0.18077426
   0.59596929  0.19361280  0.38286041
   0.60612970  0.28668233  0.51377215
   0.61913879  0.39028585  0.60911541
   0.59051682  0.48512227  0.69243669
   0.59851750  0.57663970  0.79881784
   0.60018238  0.66869757  0.89382843
   0.60675935  0.78111273  0.98038563
   0.61000346  0.87686116  0.09356100
   0.58246376  0.98216853  0.19624447
   0.59304945  0.09112366  0.25780665
   0.69724575  0.18472657  0.48669876
   0.68709674  0.29308901  0.60572983
   0.70593307  0.40018658  0.69133558
   0.70208478  0.50362438  0.78121955
   0.71248640  0.58127537  0.90211464
   0.71861180  0.70267062  0.00637044
   0.70139005  0.79622947  0.09249598
   0.70715921  0.88557819  0.19173369
   0.68400986  0.00543704  0.27890915
   0.68994698  0.09431652  0.37757024
   0.78480174  0.21844201  0.58128554
   0.78927727  0.31569585  0.70181336
   0.78817415  0.40438736  0.80462561
   0.80569113  0.50656737  0.90334959
   0.79339962  0.58550559  0.00934544
   0.79747428  0.71540151  0.09866149
   0.80864346  0.82199698  0.20913660
   0.79653367  0.92595098  0.29524560
   0.78183520  0.99776014  0.39178760
   0.79635765  0.11828641  0.49638324
   0.87036591  0.21513449  0.69852557
   0.88788793  0.29504310  0.79493150
   0.90413088  0.38631757  0.90696140
   0.92859694  0.48044489  0.97869766
   0.90252157  0.60075562  0.08877209
   0.89792942  0.70372834  0.21628988
   0.88504305  0.82093869  0.31874254
   0.89118895  0.91738894  0.40726175
   0.86784435  0.01072314  0.49631778
   0.87035957  0.10996201  0.60973106
   0.00175267  0.22324557  0.79642829
   0.00126883  0.30300803  0.88710102
   0.02926065  0.37631631  0.00990910
   0.00447767  0.51162872  0.08666499
   0.00030532  0.61925543  0.19219510
   0.97874563  0.69681438  0.28946415
   0.01473535  0.77853059  0.40198200
   0.99055938  0.92241795  0.50604762
   0.98145907  0.01485920  0.59633839
   0.98182811  0.10528274  0.69448703
   0.10668358  0.21713004  0.89332909
   0.14365836  0.29351860  0.00254702
   0.09721638  0.40594215  0.09227274
   0.09966319  0.50698547  0.18496821
   0.10991294  0.60980498  0.30080343
   0.10533017  0.67671471  0.40889147
   0.11366686  0.80387277  0.50610562
   0.07779109  0.91739906  0.59656110
   0.09483200  0.02185640  0.68228793
   0.08345695  0.10839603  0.80043906
   0.32050101  0.31437281  0.99765341
   0.30810915  0.40707963  0.11102173
   0.30113248  0.53843397  0.21363592
   0.28867243  0.60852372  0.31825711
   0.30563409  0.71109315  0.40764706
   0.30430677  0.80070758  0.50234941
   0.30765329  0.90032101  0.59801333
   0.33095315  0.98956954  0.70683764
   0.32381228  0.10000349  0.81234237
   0.31240333  0.21658790  0.90370016
   0.38205230  0.31755647  0.11477253
   0.39640524  0.41383375  0.20575017
   0.40517479  0.51134672  0.29406342
   0.42084817  0.60988549  0.40886966
   0.39676352  0.71956520  0.49537565
   0.40053859  0.79427756  0.61187860
   0.41017029  0.88879283  0.71232535
   0.41480651  0.99660881  0.82712185
   0.39846431  0.10558822  0.92739669
   0.39313851  0.22091196  0.00513497
   0.49863958  0.30247562  0.21392441
   0.50447636  0.42155017  0.27462037
   0.50974544  0.48637258  0.40885820
   0.50627143  0.60197433  0.51614648
   0.49940149  0.69327578  0.62041242
   0.52148676  0.79967128  0.71594812
   0.51015990  0.88282078  0.80341625
   0.49875158  0.99652184  0.91057572
   0.48607596  0.09874359  0.99988349
   0.47846712  0.22312584  0.11305894
   0.58702718  0.31796966  0.28789629
   0.60086979  0.39603878  0.38305428
   0.60976220  0.49069491  0.50910808
   0.60864918  0.60035942  0.60973776
   0.59976739  0.69746171  0.71794552
   0.60526766  0.78696789  0.79382966
   0.60449596  0.88762919  0.91255624
   0.59230134  0.99490157  0.00719675
   0.58160675  0.09693915  0.10612417
   0.61150905  0.21902590  0.19496604
   0.68650406  0.30678556  0.38822046
   0.68846800  0.39346575  0.48681131
   0.69488324  0.49494806  0.59594599
   0.70259095  0.59403330  0.69855258
   0.70221749  0.68455609  0.80706338
   0.72598902  0.78405052  0.89653729
   0.69552239  0.89620498  0.99676484
   0.69607314  0.00696885  0.09325452
   0.69404689  0.10625039  0.17580073
   0.66470886  0.18383677  0.28690303
   0.78666794  0.28321633  0.49211366
   0.78537711  0.37339874  0.57605995
   0.80548711  0.47486480  0.69650097
   0.82960148  0.59149227  0.78603985
   0.80853960  0.68036610  0.91022448
   0.81151964  0.80966298  0.98191135
   0.79643047  0.90913588  0.08684268
   0.79947264  0.99887231  0.18305630
   0.79180120  0.10180392  0.28840901
   0.79431708  0.20502733  0.36874203
   0.90486020  0.29964540  0.59649818
   0.90125320  0.38962399  0.67326713
   0.90021168  0.45900030  0.79992124
   0.91041763  0.59960920  0.89010623
   0.89206636  0.71014576  0.99367246
   0.90494999  0.78821958  0.12306140
   0.90896629  0.90448712  0.19376840
   0.89471308  0.01738697  0.30720742
   0.88334841  0.08149904  0.38158132
   0.90239295  0.20007605  0.47943861
   0.99485457  0.29723689  0.69290918
   0.98436920  0.37140288  0.77882463
   0.01367018  0.47390029  0.88535112
   0.00211877  0.62699972  0.98709613
   0.99845124  0.71028283  0.09629622
   0.01088628  0.80451108  0.21765772
   0.98271916  0.90054977  0.30604864
   0.99045977  0.01421161  0.40714914
   0.97721922  0.10871978  0.50819651
   0.98000330  0.19781187  0.60120003
   0.11490637  0.29483558  0.79832451
   0.10981839  0.38694507  0.88786677
   0.09960844  0.51819237  0.98914624
   0.09279172  0.60901672  0.09935478
   0.11287395  0.70446468  0.19528236
   0.09348712  0.79245087  0.30617659
   0.08950650  0.90691724  0.40725079
   0.08643213  0.01726746  0.50803879
   0.09223648  0.12294936  0.60369870
   0.10414125  0.20128800  0.69464961
   0.20667755  0.29851483  0.89624795
   0.19960087  0.38981438  0.99941884
   0.20526951  0.50714407  0.08946123
   0.20120755  0.59440595  0.21214791
   0.21051540  0.71284944  0.29824965
   0.18058507  0.80315139  0.39526512
   0.20355929  0.88848846  0.50670469
   0.20929744  0.99162362  0.60885748
   0.20382286  0.10319584  0.69587259
   0.21815078  0.17688265  0.80522764
   0.40626384  0.41490523  0.01081558
   0.39493678  0.49891641  0.10900255
   0.39769864  0.61704025  0.21119712
   0.41258514  0.68623748  0.31480371
   0.41824651  0.80848123  0.40288556
   0.40445948  0.88072018  0.49360082
   0.40507063  0.98610676  0.60764855
   0.40222686  0.09761128  0.71707604
   0.40613431  0.20868754  0.81052611
   0.41441911  0.30533148  0.89850195
   0.49571337  0.38977835  0.09114355
   0.51138773  0.50891776  0.17878522
   0.50926387  0.60319491  0.30897852
   0.49835549  0.71212738  0.41730649
   0.50453551  0.79180573  0.51305514
   0.50165486  0.90477091  0.60830731
   0.49188414  0.99984569  0.71346880
   0.48699575  0.11277557  0.82513292
   0.51458166  0.20624150  0.91907773
   0.49077438  0.30951804  0.99527536
   0.62706254  0.40650105  0.19564304
   0.60104220  0.49739389  0.28811892
   0.60321361  0.58082345  0.40167022
   0.61109500  0.67244264  0.51220508
   0.59922452  0.79009343  0.60159152
   0.59690352  0.90224527  0.69684794
   0.58840810  0.00181348  0.80961762
   0.59375455  0.11080250  0.90195770
   0.59666426  0.22847081  0.02188845
   0.58529462  0.30821884  0.10017390
   0.70715584  0.40155477  0.29518771
   0.71430873  0.49126116  0.38057426
   0.70002981  0.57851818  0.50226724
   0.71711925  0.70857924  0.59793504
   0.68944006  0.81732112  0.70878917
   0.68674157  0.90790636  0.79681788
   0.69575560  0.00730920  0.93487188
   0.69273402  0.10790040  0.00990137
   0.70770393  0.20926011  0.10369586
   0.69600919  0.30794209  0.21253637
   0.81392796  0.38425528  0.40483620
   0.79634381  0.50501983  0.48822732
   0.80420271  0.58259726  0.61100811
   0.78393141  0.70566247  0.69900439
   0.79931822  0.80135830  0.80388439
   0.77585396  0.90144036  0.90172825
   0.79423637  0.99538875  0.01145196
   0.80493167  0.10889336  0.09610030
   0.80738033  0.20013844  0.22403420
   0.80428214  0.31093280  0.30795836
   0.91256646  0.39625196  0.50702811
   0.89078579  0.49033271  0.60304918
   0.92767154  0.60540308  0.70720672
   0.88601593  0.72385346  0.79908444
   0.90059615  0.82345271  0.89620942
   0.90023122  0.89962315  0.00327981
   0.90907580  0.00813302  0.10399705
   0.91891066  0.10273763  0.19838127
   0.92017000  0.19321119  0.30292441
   0.90534912  0.28762388  0.40200381
   0.00549170  0.39847750  0.58702979
   0.98833121  0.47452818  0.68510165
   0.98778241  0.59756505  0.79077580
   0.98152779  0.72452376  0.90207867
   0.98776416  0.80397233  0.99552127
   0.99483402  0.90542307  0.09083397
   0.99398146  0.00434306  0.19887873
   0.00548107  0.09865157  0.29722017
   0.01208555  0.18605110  0.40822831
   0.99651836  0.28936950  0.49862856
   0.09838274  0.37735784  0.70295643
   0.07514288  0.48693414  0.78943981
   0.08225745  0.60349863  0.86476965
   0.09172023  0.70513435  0.99371122
   0.10777022  0.78698672  0.10461772
   0.10317908  0.90143963  0.21078684
   0.08535367  0.99133023  0.30120884
   0.09432720  0.11311024  0.40947067
   0.09990879  0.19399720  0.51695691
   0.08166821  0.27991681  0.60872459
   0.19514672  0.42104531  0.78259842
   0.18805559  0.50333820  0.90124158
   0.18677889  0.60453192  0.00394761
   0.20625440  0.68727356  0.09523707
   0.21749916  0.78923180  0.19428539
   0.20098210  0.91385426  0.30253690
   0.19562721  0.99757039  0.40825599
   0.21028636  0.07717994  0.51809432
   0.20577882  0.19708953  0.57387253
   0.19095782  0.30570764  0.68785396
   0.30701267  0.40187720  0.88340021
   0.29498874  0.49128304  0.98459066
   0.30387339  0.59409351  0.09150542
   0.30007442  0.70906133  0.20937737
   0.30421049  0.81293021  0.30114027
   0.30164047  0.88965854  0.40879396
   0.31495167  0.98747586  0.48144417
   0.30279594  0.08588059  0.61552876
   0.30414972  0.18378310  0.67679203
   0.29609402  0.30501633  0.77375265
