 432 432   0   0
  0.2356206E+02  0.2167200E-08  0.2167200E-08  0.2167200E-08  0.5000000E-15
  1.000000000000000E-004
  CAR 
 Li                                      
      2.79842405     -3.58939379  301      0.01647920      1.00000000
     -3.589  0.0000E+00  0.0000E+00
     -3.568  0.0000E+00  0.0000E+00
     -3.547  0.0000E+00  0.0000E+00
     -3.526  0.0000E+00  0.0000E+00
     -3.504  0.0000E+00  0.0000E+00
     -3.483  0.0000E+00  0.0000E+00
     -3.462  0.2086E-13  0.4441E-15
     -3.440  0.5051E-10  0.1076E-11
     -3.419  0.4482E-07  0.9554E-09
     -3.398  0.1485E-04  0.3172E-06
     -3.376  0.1850E-02  0.3970E-04
     -3.355  0.8735E-01  0.1900E-02
     -3.334  0.1582E+01  0.3558E-01
     -3.313  0.1111E+02  0.2722E+00
     -3.291  0.3065E+02  0.9249E+00
     -3.270  0.3345E+02  0.1637E+01
     -3.249  0.1472E+02  0.1950E+01
     -3.227  0.6206E+01  0.2083E+01
     -3.206  0.2118E+02  0.2534E+01
     -3.185  0.5434E+02  0.3691E+01
     -3.164  0.7676E+02  0.5325E+01
     -3.142  0.7056E+02  0.6827E+01
     -3.121  0.4165E+02  0.7714E+01
     -3.100  0.1881E+02  0.8115E+01
     -3.078  0.2919E+02  0.8736E+01
     -3.057  0.5910E+02  0.9994E+01
     -3.036  0.7866E+02  0.1167E+02
     -3.014  0.6863E+02  0.1313E+02
     -2.993  0.3373E+02  0.1385E+02
     -2.972  0.1601E+02  0.1419E+02
     -2.951  0.3805E+02  0.1500E+02
     -2.929  0.8337E+02  0.1678E+02
     -2.908  0.1095E+03  0.1911E+02
     -2.887  0.8799E+02  0.2098E+02
     -2.865  0.4376E+02  0.2191E+02
     -2.844  0.3524E+02  0.2266E+02
     -2.823  0.7348E+02  0.2423E+02
     -2.802  0.1182E+03  0.2675E+02
     -2.780  0.1403E+03  0.2973E+02
     -2.759  0.1184E+03  0.3225E+02
     -2.738  0.6258E+02  0.3359E+02
     -2.716  0.2709E+02  0.3416E+02
     -2.695  0.4444E+02  0.3511E+02
     -2.674  0.8488E+02  0.3692E+02
     -2.653  0.8517E+02  0.3873E+02
     -2.631  0.4631E+02  0.3972E+02
     -2.610  0.2192E+02  0.4018E+02
     -2.589  0.4647E+02  0.4117E+02
     -2.567  0.1038E+03  0.4338E+02
     -2.546  0.1431E+03  0.4643E+02
     -2.525  0.1394E+03  0.4940E+02
     -2.503  0.9304E+02  0.5138E+02
     -2.482  0.5835E+02  0.5262E+02
     -2.461  0.8063E+02  0.5434E+02
     -2.440  0.1353E+03  0.5722E+02
     -2.418  0.1798E+03  0.6105E+02
     -2.397  0.1786E+03  0.6485E+02
     -2.376  0.1385E+03  0.6780E+02
     -2.354  0.7960E+02  0.6949E+02
     -2.333  0.4409E+02  0.7043E+02
     -2.312  0.6342E+02  0.7178E+02
     -2.291  0.8823E+02  0.7366E+02
     -2.269  0.7168E+02  0.7519E+02
     -2.248  0.3856E+02  0.7601E+02
     -2.227  0.4261E+02  0.7692E+02
     -2.205  0.9025E+02  0.7884E+02
     -2.184  0.1348E+03  0.8171E+02
     -2.163  0.1514E+03  0.8493E+02
     -2.141  0.1347E+03  0.8780E+02
     -2.120  0.8933E+02  0.8970E+02
     -2.099  0.7371E+02  0.9127E+02
     -2.078  0.1182E+03  0.9379E+02
     -2.056  0.1714E+03  0.9744E+02
     -2.035  0.1868E+03  0.1014E+03
     -2.014  0.1618E+03  0.1049E+03
     -1.992  0.1080E+03  0.1072E+03
     -1.971  0.7040E+02  0.1087E+03
     -1.950  0.9147E+02  0.1106E+03
     -1.929  0.1287E+03  0.1133E+03
     -1.907  0.1361E+03  0.1162E+03
     -1.886  0.1114E+03  0.1186E+03
     -1.865  0.8004E+02  0.1203E+03
     -1.843  0.9663E+02  0.1224E+03
     -1.822  0.1545E+03  0.1257E+03
     -1.801  0.1904E+03  0.1297E+03
     -1.780  0.1811E+03  0.1336E+03
     -1.758  0.1354E+03  0.1365E+03
     -1.737  0.8673E+02  0.1383E+03
     -1.716  0.9742E+02  0.1404E+03
     -1.694  0.1490E+03  0.1436E+03
     -1.673  0.1780E+03  0.1473E+03
     -1.652  0.1717E+03  0.1510E+03
     -1.630  0.1386E+03  0.1539E+03
     -1.609  0.9503E+02  0.1560E+03
     -1.588  0.8442E+02  0.1578E+03
     -1.567  0.1081E+03  0.1601E+03
     -1.545  0.1256E+03  0.1627E+03
     -1.524  0.1225E+03  0.1654E+03
     -1.503  0.8974E+02  0.1673E+03
     -1.481  0.6569E+02  0.1687E+03
     -1.460  0.9790E+02  0.1707E+03
     -1.439  0.1447E+03  0.1738E+03
     -1.418  0.1471E+03  0.1770E+03
     -1.396  0.1211E+03  0.1795E+03
     -1.375  0.1264E+03  0.1822E+03
     -1.354  0.1744E+03  0.1859E+03
     -1.332  0.2209E+03  0.1906E+03
     -1.311  0.2454E+03  0.1959E+03
     -1.290  0.2392E+03  0.2010E+03
     -1.268  0.2094E+03  0.2054E+03
     -1.247  0.1632E+03  0.2089E+03
     -1.226  0.1409E+03  0.2119E+03
     -1.205  0.1665E+03  0.2154E+03
     -1.183  0.1862E+03  0.2194E+03
     -1.162  0.1734E+03  0.2231E+03
     -1.141  0.1357E+03  0.2260E+03
     -1.119  0.1011E+03  0.2281E+03
     -1.098  0.1006E+03  0.2303E+03
     -1.077  0.1258E+03  0.2330E+03
     -1.056  0.1476E+03  0.2361E+03
     -1.034  0.1448E+03  0.2392E+03
     -1.013  0.1217E+03  0.2418E+03
     -0.992  0.1246E+03  0.2444E+03
     -0.970  0.1765E+03  0.2482E+03
     -0.949  0.2280E+03  0.2530E+03
     -0.928  0.2335E+03  0.2580E+03
     -0.907  0.1957E+03  0.2622E+03
     -0.885  0.1412E+03  0.2652E+03
     -0.864  0.1114E+03  0.2676E+03
     -0.843  0.1037E+03  0.2698E+03
     -0.821  0.8232E+02  0.2715E+03
     -0.800  0.7556E+02  0.2731E+03
     -0.779  0.1159E+03  0.2756E+03
     -0.757  0.1711E+03  0.2792E+03
     -0.736  0.2145E+03  0.2838E+03
     -0.715  0.2301E+03  0.2887E+03
     -0.694  0.2206E+03  0.2934E+03
     -0.672  0.2010E+03  0.2977E+03
     -0.651  0.1804E+03  0.3015E+03
     -0.630  0.1873E+03  0.3055E+03
     -0.608  0.2207E+03  0.3102E+03
     -0.587  0.2442E+03  0.3154E+03
     -0.566  0.2525E+03  0.3208E+03
     -0.545  0.2376E+03  0.3259E+03
     -0.523  0.1942E+03  0.3300E+03
     -0.502  0.1499E+03  0.3332E+03
     -0.481  0.1346E+03  0.3360E+03
     -0.459  0.1381E+03  0.3390E+03
     -0.438  0.1437E+03  0.3420E+03
     -0.417  0.1520E+03  0.3453E+03
     -0.395  0.1704E+03  0.3489E+03
     -0.374  0.2047E+03  0.3533E+03
     -0.353  0.2352E+03  0.3583E+03
     -0.332  0.2355E+03  0.3633E+03
     -0.310  0.2212E+03  0.3680E+03
     -0.289  0.2169E+03  0.3726E+03
     -0.268  0.2170E+03  0.3772E+03
     -0.246  0.2163E+03  0.3818E+03
     -0.225  0.2085E+03  0.3863E+03
     -0.204  0.1907E+03  0.3903E+03
     -0.183  0.1808E+03  0.3942E+03
     -0.161  0.1829E+03  0.3981E+03
     -0.140  0.1829E+03  0.4020E+03
     -0.119  0.1771E+03  0.4058E+03
     -0.097  0.1688E+03  0.4094E+03
     -0.076  0.1637E+03  0.4128E+03
     -0.055  0.1804E+03  0.4167E+03
     -0.034  0.2070E+03  0.4211E+03
     -0.012  0.2187E+03  0.4257E+03
      0.009  0.2195E+03  0.4304E+03
      0.030  0.2093E+03  0.4349E+03
      0.052  0.1958E+03  0.4390E+03
      0.073  0.1838E+03  0.4430E+03
      0.094  0.1879E+03  0.4470E+03
      0.116  0.2076E+03  0.4514E+03
      0.137  0.2200E+03  0.4561E+03
      0.158  0.2221E+03  0.4608E+03
      0.179  0.2154E+03  0.4654E+03
      0.201  0.2073E+03  0.4698E+03
      0.222  0.2088E+03  0.4742E+03
      0.243  0.2163E+03  0.4788E+03
      0.265  0.2319E+03  0.4838E+03
      0.286  0.2486E+03  0.4891E+03
      0.307  0.2498E+03  0.4944E+03
      0.328  0.2457E+03  0.4996E+03
      0.350  0.2431E+03  0.5048E+03
      0.371  0.2408E+03  0.5099E+03
      0.392  0.2437E+03  0.5151E+03
      0.414  0.2537E+03  0.5205E+03
      0.435  0.2568E+03  0.5260E+03
      0.456  0.2497E+03  0.5313E+03
      0.478  0.2503E+03  0.5366E+03
      0.499  0.2523E+03  0.5420E+03
      0.520  0.2441E+03  0.5472E+03
      0.541  0.2326E+03  0.5522E+03
      0.563  0.2283E+03  0.5570E+03
      0.584  0.2338E+03  0.5620E+03
      0.605  0.2332E+03  0.5670E+03
      0.627  0.2320E+03  0.5719E+03
      0.648  0.2302E+03  0.5768E+03
      0.669  0.2270E+03  0.5816E+03
      0.690  0.2292E+03  0.5865E+03
      0.712  0.2242E+03  0.5913E+03
      0.733  0.2176E+03  0.5959E+03
      0.754  0.2138E+03  0.6005E+03
      0.776  0.2107E+03  0.6050E+03
      0.797  0.2183E+03  0.6096E+03
      0.818  0.2212E+03  0.6143E+03
      0.839  0.2072E+03  0.6187E+03
      0.861  0.1947E+03  0.6229E+03
      0.882  0.1926E+03  0.6270E+03
      0.903  0.1927E+03  0.6311E+03
      0.925  0.1927E+03  0.6352E+03
      0.946  0.1970E+03  0.6394E+03
      0.967  0.1975E+03  0.6436E+03
      0.989  0.1908E+03  0.6477E+03
      1.010  0.1781E+03  0.6514E+03
      1.031  0.1694E+03  0.6550E+03
      1.052  0.1735E+03  0.6587E+03
      1.074  0.1790E+03  0.6626E+03
      1.095  0.1749E+03  0.6663E+03
      1.116  0.1661E+03  0.6698E+03
      1.138  0.1618E+03  0.6733E+03
      1.159  0.1725E+03  0.6769E+03
      1.180  0.1906E+03  0.6810E+03
      1.201  0.1960E+03  0.6852E+03
      1.223  0.1903E+03  0.6892E+03
      1.244  0.1835E+03  0.6931E+03
      1.265  0.1783E+03  0.6969E+03
      1.287  0.1741E+03  0.7006E+03
      1.308  0.1724E+03  0.7043E+03
      1.329  0.1840E+03  0.7082E+03
      1.351  0.1899E+03  0.7123E+03
      1.372  0.1820E+03  0.7161E+03
      1.393  0.1832E+03  0.7200E+03
      1.414  0.1933E+03  0.7242E+03
      1.436  0.1964E+03  0.7283E+03
      1.457  0.1936E+03  0.7325E+03
      1.478  0.1876E+03  0.7365E+03
      1.500  0.1855E+03  0.7404E+03
      1.521  0.1887E+03  0.7444E+03
      1.542  0.1816E+03  0.7483E+03
      1.563  0.1678E+03  0.7519E+03
      1.585  0.1604E+03  0.7553E+03
      1.606  0.1568E+03  0.7586E+03
      1.627  0.1457E+03  0.7617E+03
      1.649  0.1385E+03  0.7647E+03
      1.670  0.1460E+03  0.7678E+03
      1.691  0.1507E+03  0.7710E+03
      1.712  0.1450E+03  0.7741E+03
      1.734  0.1412E+03  0.7771E+03
      1.755  0.1353E+03  0.7800E+03
      1.776  0.1240E+03  0.7826E+03
      1.798  0.1131E+03  0.7850E+03
      1.819  0.1100E+03  0.7874E+03
      1.840  0.1111E+03  0.7897E+03
      1.862  0.1029E+03  0.7919E+03
      1.883  0.8133E+02  0.7936E+03
      1.904  0.5764E+02  0.7949E+03
      1.925  0.4204E+02  0.7958E+03
      1.947  0.4787E+02  0.7968E+03
      1.968  0.7089E+02  0.7983E+03
      1.989  0.7671E+02  0.7999E+03
      2.011  0.6565E+02  0.8013E+03
      2.032  0.6219E+02  0.8026E+03
      2.053  0.7570E+02  0.8043E+03
      2.074  0.9603E+02  0.8063E+03
      2.096  0.1114E+03  0.8087E+03
      2.117  0.1181E+03  0.8112E+03
      2.138  0.1263E+03  0.8139E+03
      2.160  0.1390E+03  0.8168E+03
      2.181  0.1428E+03  0.8199E+03
      2.202  0.1376E+03  0.8228E+03
      2.224  0.1413E+03  0.8258E+03
      2.245  0.1474E+03  0.8290E+03
      2.266  0.1476E+03  0.8321E+03
      2.287  0.1470E+03  0.8352E+03
      2.309  0.1463E+03  0.8383E+03
      2.330  0.1433E+03  0.8414E+03
      2.351  0.1410E+03  0.8444E+03
      2.373  0.1456E+03  0.8475E+03
      2.394  0.1479E+03  0.8506E+03
      2.415  0.1492E+03  0.8538E+03
      2.436  0.1514E+03  0.8570E+03
      2.458  0.1489E+03  0.8602E+03
      2.479  0.1318E+03  0.8630E+03
      2.500  0.8984E+02  0.8649E+03
      2.522  0.3970E+02  0.8658E+03
      2.543  0.9327E+01  0.8660E+03
      2.564  0.9987E+00  0.8660E+03
      2.585  0.4486E-01  0.8660E+03
      2.607  0.8110E-03  0.8660E+03
      2.628  0.5760E-05  0.8660E+03
      2.649  0.1582E-07  0.8660E+03
      2.671  0.1659E-10  0.8660E+03
      2.692  0.5214E-14  0.8660E+03
      2.713  0.0000E+00  0.8660E+03
      2.735  0.0000E+00  0.8660E+03
      2.756  0.0000E+00  0.8660E+03
      2.777  0.0000E+00  0.8660E+03
      2.798  0.0000E+00  0.8660E+03
