Li                                      
           1
    21.672000    0.000000    0.000000
     0.000000   21.672000    0.000000
     0.000000    0.000000   21.672000
   Li
   432
Direct configuration=     1
   0.00736057  0.99962730  0.01707781
   0.91562106  0.09146224  0.08429498
   0.83147537  0.13358905  0.14987234
   0.76985772  0.24093413  0.25088496
   0.65326173  0.31275538  0.33234608
   0.60928092  0.43027992  0.44608217
   0.49737394  0.50207283  0.50339973
   0.41993717  0.59211987  0.57412271
   0.32854829  0.67572803  0.66600002
   0.26026564  0.73372699  0.74687610
   0.16894007  0.83243618  0.80591110
   0.06902576  0.90082207  0.92297590
   0.10256766  0.86767626  0.06338807
   0.04321231  0.02283181  0.15510963
   0.92390319  0.07681392  0.21531233
   0.81612185  0.15913420  0.33357713
   0.76355186  0.23974179  0.43317612
   0.66299473  0.31006342  0.51176526
   0.61331702  0.42397529  0.57703421
   0.49275402  0.51031174  0.65376108
   0.40581999  0.58388213  0.76053002
   0.34595791  0.64070506  0.84461856
   0.25840742  0.73597748  0.92080767
   0.15865057  0.79231763  0.97450786
   0.16995007  0.83351272  0.16948875
   0.08781594  0.89480631  0.21887214
   0.03116809  0.00870166  0.32559572
   0.92830553  0.07425328  0.40141968
   0.86077375  0.16881677  0.48478678
   0.74500454  0.23566249  0.58972913
   0.65408920  0.32707941  0.66551395
   0.59658185  0.44445916  0.74582476
   0.50512660  0.51399690  0.84026652
   0.43888803  0.59506213  0.94603139
   0.33364447  0.64223730  0.99883045
   0.26456482  0.76631033  0.08578021
   0.26078004  0.73535576  0.26098197
   0.16385062  0.84055559  0.32555006
   0.09700721  0.93323389  0.40074186
   0.01506672  0.01480637  0.50245314
   0.93425863  0.09143500  0.59478114
   0.81027269  0.19469638  0.65765962
   0.74066083  0.26183668  0.76963061
   0.63947915  0.31295433  0.84006402
   0.57144581  0.43223710  0.92007446
   0.50511454  0.51417417  0.00920794
   0.42583075  0.62969945  0.10855484
   0.34267609  0.66992029  0.17856115
   0.33462843  0.62601251  0.32248377
   0.24647579  0.74434987  0.39134876
   0.13907441  0.82069681  0.47552036
   0.07341317  0.89577868  0.59195790
   0.99684830  0.00177415  0.67012438
   0.90905185  0.09882886  0.73890190
   0.80965490  0.17020657  0.82746227
   0.77753847  0.23824004  0.92562892
   0.66233969  0.31850330  0.99533370
   0.58053693  0.41157409  0.08015894
   0.50503861  0.50682036  0.18353027
   0.44206701  0.55747800  0.26126105
   0.41065137  0.58177684  0.45130993
   0.30500919  0.65920126  0.49806173
   0.23593842  0.73997848  0.55831323
   0.13723825  0.80501790  0.67452182
   0.08226348  0.90854455  0.74497011
   0.99000995  0.00503514  0.82492577
   0.90472290  0.06272838  0.91816111
   0.81519965  0.18198545  0.00717789
   0.76590596  0.27091209  0.07757283
   0.64223835  0.31824596  0.15627835
   0.57931667  0.41507297  0.27376196
   0.48557716  0.47246128  0.36056898
   0.08007484  0.04311352  0.88805265
   0.02093179  0.17186827  0.96286521
   0.89612520  0.25236501  0.07361073
   0.81213011  0.33758809  0.16837477
   0.74051597  0.41116114  0.25005643
   0.65703194  0.50166209  0.33717490
   0.60244266  0.57218495  0.46294511
   0.50108951  0.67538785  0.50211222
   0.41043504  0.75575641  0.59631916
   0.34141579  0.83542320  0.63509004
   0.26322759  0.91747854  0.75318797
   0.15234920  0.99805566  0.81081819
   0.16837629  0.01362076  0.99074959
   0.08014627  0.11069295  0.07157797
   0.00574815  0.17674606  0.17997238
   0.89482992  0.24090283  0.24583404
   0.83867658  0.30311729  0.32815707
   0.78451508  0.39317257  0.41953007
   0.69021505  0.48375746  0.53693517
   0.56120967  0.58873442  0.59296800
   0.50274962  0.69396667  0.68802520
   0.41733230  0.76226737  0.76580983
   0.32928162  0.82314009  0.84056123
   0.24940058  0.89832443  0.89707914
   0.23626916  0.88542985  0.06657803
   0.17869858  0.99356127  0.14739659
   0.11924206  0.08074505  0.23345428
   0.97924160  0.16713576  0.30902781
   0.92632357  0.22135719  0.38222812
   0.85711248  0.31910559  0.49298738
   0.77077241  0.39861305  0.57471875
   0.70303574  0.53628770  0.67911393
   0.58093040  0.59590283  0.73813380
   0.50321810  0.66445810  0.83416235
   0.43044272  0.76359403  0.94106245
   0.32102055  0.83219016  0.99055793
   0.36120505  0.83703487  0.18896547
   0.25448582  0.91075667  0.22439815
   0.15775031  0.96372982  0.30121772
   0.10653666  0.08183813  0.39923911
   0.97935510  0.14322354  0.47388757
   0.94489366  0.24364321  0.59527723
   0.82959048  0.33273644  0.66371611
   0.74546913  0.41889046  0.74349984
   0.67879879  0.50651448  0.84829017
   0.59032441  0.59067849  0.94075910
   0.51165262  0.68637154  0.02177174
   0.40204685  0.76068969  0.09626715
   0.41839946  0.73856640  0.26747714
   0.34867724  0.83089426  0.33783412
   0.27825421  0.91490062  0.42323569
   0.14701602  0.99890363  0.52055376
   0.06503167  0.06526709  0.60975884
   0.99299760  0.17327192  0.67003298
   0.88702323  0.24532424  0.77661381
   0.79145322  0.33891053  0.82650095
   0.73789321  0.42674395  0.91831746
   0.65071558  0.53447631  0.99901874
   0.57933610  0.59544408  0.11134657
   0.50627315  0.68757301  0.21027509
   0.49670530  0.66210451  0.35573114
   0.41911568  0.72579904  0.41073646
   0.33341124  0.82795712  0.50231476
   0.24917950  0.88832505  0.59077170
   0.19177096  0.99890847  0.64635360
   0.06438977  0.10505728  0.72703655
   0.98317141  0.18135396  0.83779383
   0.92855032  0.23157194  0.91141317
   0.82035196  0.35070803  0.99670301
   0.71919364  0.40666346  0.08573776
   0.67273134  0.50305291  0.18036016
   0.58579120  0.57517840  0.26180813
   0.14778391  0.15564704  0.83353690
   0.07554145  0.25184785  0.89764462
   0.98349916  0.32286856  0.01301974
   0.90614872  0.42662822  0.06044669
   0.81984172  0.51477143  0.15505011
   0.73558628  0.59010340  0.27642575
   0.64605869  0.66364220  0.34288918
   0.59211092  0.75508599  0.41015520
   0.51518367  0.84714415  0.47843546
   0.40733646  0.92184116  0.57542585
   0.30139863  0.00835266  0.66133400
   0.25532679  0.08762555  0.76780753
   0.22669277  0.07168675  0.90806712
   0.15506733  0.17355308  0.97396069
   0.09768134  0.23883517  0.07303537
   0.00332017  0.32876941  0.17075838
   0.89630722  0.40844983  0.22566472
   0.83767696  0.50272607  0.35073812
   0.75975518  0.57397394  0.41688290
   0.66035059  0.67541851  0.51867234
   0.59692070  0.79920634  0.56327690
   0.51317955  0.83954911  0.66636928
   0.40132939  0.93329569  0.72390982
   0.32843602  0.98755750  0.83489834
   0.32150738  0.98841109  0.98284913
   0.27636221  0.09463344  0.06991302
   0.17749010  0.19695568  0.15637087
   0.10869297  0.26469921  0.24580305
   0.01014988  0.31343700  0.31177668
   0.92822624  0.42038934  0.42586814
   0.84719596  0.50130917  0.50102139
   0.76546896  0.59455901  0.58452844
   0.66422757  0.68561497  0.65974957
   0.60015495  0.75167293  0.73618506
   0.48375135  0.81899707  0.81354892
   0.43448597  0.89194458  0.92240504
   0.40773717  0.91523945  0.09516468
   0.33299130  0.99407997  0.16878746
   0.24029851  0.09413090  0.22988824
   0.17826310  0.19739620  0.33426899
   0.07760794  0.25543180  0.41279511
   0.98419276  0.31863769  0.49852074
   0.93051113  0.41533937  0.58030991
   0.85315674  0.49153229  0.66916173
   0.77490055  0.58976838  0.75276567
   0.65579459  0.67959916  0.81694361
   0.60200249  0.74868443  0.88358911
   0.50661965  0.80724052  0.01562347
   0.50026781  0.86994838  0.20039893
   0.40930292  0.93185978  0.28844194
   0.32523323  0.99621441  0.29967222
   0.22267636  0.06561873  0.37526305
   0.16721624  0.15311170  0.49750668
   0.09731712  0.22800175  0.55712667
   0.00173831  0.34071060  0.66828858
   0.93719334  0.41347956  0.74344810
   0.83747485  0.50538775  0.82213565
   0.74787055  0.59737509  0.90915871
   0.65988166  0.66548465  0.02913634
   0.57596448  0.74875133  0.13047630
   0.57711867  0.76747679  0.27117878
   0.49792369  0.84684376  0.35374643
   0.39261527  0.93526552  0.41336773
   0.32788065  0.99399407  0.49743097
   0.23749900  0.07977680  0.60331010
   0.14873369  0.18025632  0.67908496
   0.07121390  0.25830166  0.76281976
   0.98633365  0.34827761  0.84154039
   0.91060736  0.40634805  0.91427459
   0.83759896  0.50080330  0.99627596
   0.73940429  0.58238398  0.07675412
   0.66929803  0.68822225  0.18350531
   0.24813725  0.26214953  0.74676461
   0.15124590  0.35543930  0.82828123
   0.07143045  0.41793267  0.94486076
   0.98228839  0.51627252  0.99655516
   0.93694049  0.57680522  0.07411852
   0.83568804  0.64991258  0.16453760
   0.75273765  0.74289864  0.28202978
   0.69347830  0.84307245  0.32674048
   0.58566522  0.91667971  0.43871394
   0.51088244  0.01927463  0.48970294
   0.40389616  0.09500377  0.60077204
   0.31745754  0.19278987  0.65304680
   0.31708129  0.15354224  0.84827258
   0.26345384  0.26770704  0.89484193
   0.16523593  0.32978570  0.99790292
   0.07661318  0.44132767  0.08637884
   0.99505278  0.48695646  0.18009348
   0.93490045  0.56680900  0.21531399
   0.84037951  0.64834873  0.32704135
   0.76434694  0.73838369  0.40825478
   0.68741470  0.84868742  0.48820911
   0.57098128  0.90707664  0.54480643
   0.49587154  0.01586143  0.66736153
   0.38377680  0.10566540  0.76025023
   0.43891140  0.05728259  0.91815369
   0.32499520  0.14742387  0.96919678
   0.27161199  0.22830135  0.08539224
   0.17743554  0.32407089  0.15020089
   0.10651490  0.43612384  0.24605166
   0.98511372  0.50974151  0.33758524
   0.92265201  0.58634420  0.45997472
   0.85397688  0.65266491  0.46985189
   0.78887878  0.73226010  0.56739388
   0.66552874  0.85318324  0.66682142
   0.58928294  0.92975277  0.74642341
   0.51867331  0.99245164  0.80999761
   0.51874801  0.97684616  0.00891151
   0.41179360  0.07693305  0.07901145
   0.32590089  0.17500011  0.17684303
   0.27894942  0.26011242  0.24899298
   0.16803867  0.33539233  0.34849264
   0.05930196  0.41479413  0.41704677
   0.00190611  0.50887546  0.51763798
   0.90724981  0.59623871  0.58292530
   0.84643398  0.65790080  0.68104184
   0.76459174  0.75685922  0.73615129
   0.68309667  0.83982432  0.85382520
   0.57094993  0.90754269  0.90362098
   0.57197619  0.93011555  0.08804800
   0.48746841  0.99311237  0.18868840
   0.42356075  0.09209346  0.25966389
   0.31325239  0.16934945  0.35175782
   0.23825080  0.26749599  0.42386168
   0.12605943  0.31695485  0.51685604
   0.03502611  0.40006168  0.58273894
   0.00949516  0.52031371  0.65474107
   0.94236404  0.60652913  0.73809765
   0.85026826  0.65905374  0.84739500
   0.75506068  0.71184100  0.94618701
   0.65825083  0.81281668  0.02251777
   0.66235080  0.84870783  0.16933812
   0.58653518  0.93596264  0.24741379
   0.50377282  0.00562364  0.31829832
   0.40598084  0.03766151  0.40332463
   0.30102898  0.17965946  0.49531785
   0.27086776  0.28827558  0.58018391
   0.15713346  0.35315875  0.67456223
   0.05505555  0.45425911  0.72932533
   0.99958449  0.50363821  0.84070490
   0.92003061  0.58890475  0.88660978
   0.83007979  0.65795994  0.99340577
   0.77122529  0.73192783  0.09475853
   0.35343170  0.34494094  0.67781756
   0.26092725  0.46055339  0.75194438
   0.17454815  0.52003954  0.84824853
   0.09825821  0.61281725  0.92283931
   0.99293017  0.66426087  0.99973135
   0.91095209  0.71515740  0.09734965
   0.83726815  0.82480569  0.17086923
   0.74996663  0.91523924  0.23554510
   0.67104833  0.98075446  0.33121838
   0.59946973  0.06474660  0.41379226
   0.48110810  0.14360611  0.49214321
   0.44829046  0.24111682  0.55710408
   0.42940499  0.22284124  0.75245974
   0.34451944  0.36043397  0.81891233
   0.25196175  0.42697437  0.90929076
   0.19679942  0.48492854  0.02501973
   0.08622074  0.58973332  0.06723385
   0.99044753  0.64964894  0.17812229
   0.94639186  0.73627080  0.27854593
   0.85110935  0.86951485  0.34533578
   0.77395628  0.93622935  0.41264804
   0.65710852  0.01734538  0.49167133
   0.60808583  0.08771225  0.57804461
   0.51598610  0.15911147  0.67624304
   0.49194595  0.13094576  0.85495901
   0.42149619  0.24702841  0.91826557
   0.35345312  0.30995511  0.98307620
   0.27880952  0.38933489  0.07244529
   0.18311368  0.50694945  0.16162457
   0.09240770  0.59359112  0.20448279
   0.00016913  0.65099764  0.32715454
   0.92286506  0.76058616  0.38829103
   0.84526080  0.86008541  0.49507853
   0.74393444  0.92377396  0.57712194
   0.68338685  0.98034146  0.65104829
   0.60778898  0.07276863  0.76462333
   0.60614180  0.08744900  0.92796718
   0.48202069  0.17632334  0.99211805
   0.42115554  0.23043273  0.06809252
   0.36302003  0.31749786  0.14342432
   0.25449473  0.40914045  0.25219282
   0.16325707  0.51260234  0.35820404
   0.05650126  0.55948341  0.39965955
   0.00028768  0.70608822  0.48416837
   0.91865799  0.76114700  0.57012360
   0.83414633  0.83192385  0.65596173
   0.76501019  0.91291107  0.73698092
   0.68436976  0.00441097  0.84756849
   0.66306978  0.00824133  0.01183778
   0.57493616  0.08434555  0.07060941
   0.49923619  0.16716614  0.17803249
   0.41038475  0.23010312  0.26319028
   0.33959166  0.32756324  0.34688981
   0.23894039  0.39234545  0.44230691
   0.13937958  0.49242585  0.50339754
   0.07819610  0.60204040  0.58428297
   0.98765973  0.68392232  0.67565289
   0.89403402  0.75987065  0.73944705
   0.83293682  0.82188195  0.85409636
   0.74522123  0.90257353  0.97420231
   0.74850393  0.90893153  0.06676160
   0.63985806  0.00864885  0.14200046
   0.58701567  0.07650027  0.25094340
   0.48455595  0.13183703  0.34602209
   0.41113334  0.24263378  0.42045620
   0.33152824  0.32590533  0.50987486
   0.23810358  0.40765232  0.61437582
   0.14461739  0.50056932  0.65096339
   0.08200789  0.58129375  0.75419981
   0.01224957  0.68536464  0.82083603
   0.93914679  0.74496493  0.93818981
   0.84108350  0.80094422  0.02505485
   0.42074390  0.42642261  0.58909863
   0.35798620  0.54100589  0.66039353
   0.24530200  0.57184985  0.73696485
   0.18143261  0.66516516  0.83664812
   0.06603292  0.74612765  0.92283794
   0.98338799  0.81821358  0.00183466
   0.91115222  0.90728602  0.06849717
   0.79857408  0.00583356  0.12375132
   0.71238999  0.08821583  0.23887440
   0.67622184  0.15135131  0.33175205
   0.57393862  0.24651077  0.42835991
   0.50867959  0.36214811  0.51163974
   0.46961779  0.32322767  0.65873104
   0.41612208  0.42101079  0.74838415
   0.34608030  0.50198505  0.86628960
   0.26126590  0.59925118  0.94768838
   0.17741101  0.67276384  0.99992475
   0.08272475  0.72407891  0.07362521
   0.00447338  0.81978570  0.15521228
   0.93946246  0.95555378  0.23666310
   0.84448304  0.01971022  0.31740117
   0.77248214  0.08013845  0.42412798
   0.65036833  0.14960432  0.50100336
   0.61310087  0.24931655  0.58218237
   0.56974859  0.24172643  0.75830674
   0.49261200  0.35502435  0.82775019
   0.41493400  0.41211831  0.92753663
   0.33636836  0.51860599  0.01241823
   0.24838975  0.59997759  0.10584771
   0.16882819  0.66114207  0.14339452
   0.07172987  0.71663494  0.21944819
   0.01178842  0.87204922  0.31567552
   0.92294322  0.96793365  0.42153092
   0.85840484  0.01317225  0.51870009
   0.74265866  0.10663068  0.60573457
   0.66712567  0.18468987  0.68223968
   0.66500085  0.17360577  0.82292606
   0.54997294  0.23556989  0.92267792
   0.50023545  0.32657684  0.01559385
   0.42622630  0.40576240  0.06808589
   0.32072000  0.49987037  0.16268579
   0.21168071  0.57638546  0.24758560
   0.16165959  0.65342457  0.34346409
   0.05899277  0.75626786  0.39464980
   0.99491493  0.83315410  0.48492409
   0.93822449  0.91155342  0.60056361
   0.84536889  0.01209353  0.65288813
   0.73560374  0.07723303  0.74787386
   0.73075985  0.08826471  0.93918630
   0.66844155  0.17920195  0.00224571
   0.58318793  0.25531828  0.07945434
   0.49173930  0.33704529  0.18357468
   0.42226126  0.39415818  0.26714044
   0.33407507  0.51625851  0.34337136
   0.23988842  0.55684677  0.42526716
   0.10853203  0.66196654  0.46458532
   0.06265314  0.77611769  0.59128441
   0.97900318  0.82248189  0.67595349
   0.88602139  0.93234023  0.76403850
   0.80974168  0.00638404  0.84926063
   0.85299213  0.01341164  0.01827825
   0.73147733  0.10080539  0.05829266
   0.65768227  0.15543776  0.12796653
   0.57405559  0.20365741  0.23649396
   0.52870023  0.30144489  0.32767469
   0.41021032  0.38382941  0.40339227
   0.36144890  0.49616391  0.50459993
   0.22500234  0.60020754  0.57253584
   0.14029734  0.67585291  0.65637220
   0.05464396  0.75445499  0.78123217
   0.98277642  0.85594923  0.85223751
   0.91930690  0.93246486  0.92459842
