 500 500   0   0
  0.2029568E+02  0.2165000E-08  0.2165000E-08  0.2165000E-08  0.5000000E-15
  1.000000000000000E-004
  CAR 
 Li                                      
      3.53067823     -3.44428403  301      0.39760170      1.00000000
     -3.444  0.0000E+00  0.0000E+00
     -3.421  0.0000E+00  0.0000E+00
     -3.398  0.0000E+00  0.0000E+00
     -3.375  0.0000E+00  0.0000E+00
     -3.351  0.0000E+00  0.0000E+00
     -3.328  0.0000E+00  0.0000E+00
     -3.305  0.4775E-14  0.1110E-15
     -3.282  0.1493E-10  0.3473E-12
     -3.258  0.2779E-07  0.6465E-09
     -3.235  0.1598E-04  0.3722E-06
     -3.212  0.2867E-02  0.6702E-04
     -3.189  0.1625E+00  0.3845E-02
     -3.165  0.2962E+01  0.7272E-01
     -3.142  0.1772E+02  0.4848E+00
     -3.119  0.3545E+02  0.1309E+01
     -3.096  0.2391E+02  0.1865E+01
     -3.072  0.5796E+01  0.2000E+01
     -3.049  0.7576E+01  0.2176E+01
     -3.026  0.4549E+02  0.3233E+01
     -3.003  0.1011E+03  0.5584E+01
     -2.979  0.7961E+02  0.7435E+01
     -2.956  0.2233E+02  0.7954E+01
     -2.933  0.7081E+01  0.8119E+01
     -2.910  0.3693E+02  0.8978E+01
     -2.886  0.9581E+02  0.1121E+02
     -2.863  0.8815E+02  0.1325E+02
     -2.840  0.2896E+02  0.1393E+02
     -2.817  0.8886E+01  0.1413E+02
     -2.793  0.4180E+02  0.1511E+02
     -2.770  0.1157E+03  0.1780E+02
     -2.747  0.1230E+03  0.2066E+02
     -2.724  0.5015E+02  0.2182E+02
     -2.700  0.1374E+02  0.2214E+02
     -2.677  0.5026E+02  0.2331E+02
     -2.654  0.1532E+03  0.2687E+02
     -2.631  0.1897E+03  0.3128E+02
     -2.607  0.9607E+02  0.3352E+02
     -2.584  0.2091E+02  0.3400E+02
     -2.561  0.1981E+02  0.3446E+02
     -2.538  0.7369E+02  0.3618E+02
     -2.514  0.1036E+03  0.3858E+02
     -2.491  0.5151E+02  0.3978E+02
     -2.468  0.1216E+02  0.4007E+02
     -2.445  0.3246E+02  0.4082E+02
     -2.421  0.1213E+03  0.4364E+02
     -2.398  0.1900E+03  0.4806E+02
     -2.375  0.1285E+03  0.5105E+02
     -2.352  0.4145E+02  0.5201E+02
     -2.328  0.4631E+02  0.5309E+02
     -2.305  0.1557E+03  0.5671E+02
     -2.282  0.2598E+03  0.6275E+02
     -2.259  0.2127E+03  0.6769E+02
     -2.235  0.8417E+02  0.6965E+02
     -2.212  0.2000E+02  0.7011E+02
     -2.189  0.4004E+02  0.7105E+02
     -2.166  0.9654E+02  0.7329E+02
     -2.142  0.8588E+02  0.7529E+02
     -2.119  0.2905E+02  0.7596E+02
     -2.096  0.2211E+02  0.7648E+02
     -2.073  0.9184E+02  0.7861E+02
     -2.049  0.1952E+03  0.8315E+02
     -2.026  0.1930E+03  0.8764E+02
     -2.003  0.8683E+02  0.8966E+02
     -1.980  0.3470E+02  0.9046E+02
     -1.956  0.9849E+02  0.9275E+02
     -1.933  0.2200E+03  0.9787E+02
     -1.910  0.2492E+03  0.1037E+03
     -1.887  0.1443E+03  0.1070E+03
     -1.863  0.4215E+02  0.1080E+03
     -1.840  0.3817E+02  0.1089E+03
     -1.817  0.1211E+03  0.1117E+03
     -1.794  0.1872E+03  0.1161E+03
     -1.770  0.1293E+03  0.1191E+03
     -1.747  0.5054E+02  0.1202E+03
     -1.724  0.7906E+02  0.1221E+03
     -1.701  0.1935E+03  0.1266E+03
     -1.677  0.2545E+03  0.1325E+03
     -1.654  0.1729E+03  0.1365E+03
     -1.631  0.6022E+02  0.1379E+03
     -1.608  0.4968E+02  0.1391E+03
     -1.584  0.1655E+03  0.1429E+03
     -1.561  0.2726E+03  0.1492E+03
     -1.538  0.2057E+03  0.1540E+03
     -1.515  0.7512E+02  0.1558E+03
     -1.491  0.3493E+02  0.1566E+03
     -1.468  0.9856E+02  0.1589E+03
     -1.445  0.1785E+03  0.1630E+03
     -1.422  0.1499E+03  0.1665E+03
     -1.398  0.6251E+02  0.1680E+03
     -1.375  0.4980E+02  0.1691E+03
     -1.352  0.1058E+03  0.1716E+03
     -1.329  0.1467E+03  0.1750E+03
     -1.305  0.1323E+03  0.1781E+03
     -1.282  0.7380E+02  0.1798E+03
     -1.259  0.7250E+02  0.1815E+03
     -1.236  0.1954E+03  0.1860E+03
     -1.212  0.3335E+03  0.1938E+03
     -1.189  0.3553E+03  0.2020E+03
     -1.166  0.2423E+03  0.2077E+03
     -1.143  0.1089E+03  0.2102E+03
     -1.119  0.1201E+03  0.2130E+03
     -1.096  0.2249E+03  0.2182E+03
     -1.073  0.2388E+03  0.2238E+03
     -1.050  0.1424E+03  0.2271E+03
     -1.026  0.6162E+02  0.2285E+03
     -1.003  0.6083E+02  0.2299E+03
     -0.980  0.1206E+03  0.2327E+03
     -0.957  0.1952E+03  0.2373E+03
     -0.933  0.1621E+03  0.2410E+03
     -0.910  0.1234E+03  0.2439E+03
     -0.887  0.2007E+03  0.2486E+03
     -0.864  0.2708E+03  0.2549E+03
     -0.840  0.2607E+03  0.2609E+03
     -0.817  0.1628E+03  0.2647E+03
     -0.794  0.5041E+02  0.2659E+03
     -0.771  0.2075E+02  0.2664E+03
     -0.747  0.6410E+02  0.2679E+03
     -0.724  0.1021E+03  0.2702E+03
     -0.701  0.6724E+02  0.2718E+03
     -0.678  0.6103E+02  0.2732E+03
     -0.654  0.1593E+03  0.2769E+03
     -0.631  0.2783E+03  0.2834E+03
     -0.608  0.3320E+03  0.2911E+03
     -0.585  0.3183E+03  0.2985E+03
     -0.561  0.2541E+03  0.3044E+03
     -0.538  0.1787E+03  0.3086E+03
     -0.515  0.2001E+03  0.3132E+03
     -0.492  0.2919E+03  0.3200E+03
     -0.468  0.3068E+03  0.3271E+03
     -0.445  0.2291E+03  0.3325E+03
     -0.422  0.1495E+03  0.3359E+03
     -0.399  0.8665E+02  0.3380E+03
     -0.375  0.8723E+02  0.3400E+03
     -0.352  0.1332E+03  0.3431E+03
     -0.329  0.1596E+03  0.3468E+03
     -0.306  0.1926E+03  0.3513E+03
     -0.282  0.1883E+03  0.3557E+03
     -0.259  0.1738E+03  0.3597E+03
     -0.236  0.1779E+03  0.3638E+03
     -0.213  0.1494E+03  0.3673E+03
     -0.189  0.1479E+03  0.3707E+03
     -0.166  0.2324E+03  0.3761E+03
     -0.143  0.3111E+03  0.3834E+03
     -0.120  0.3155E+03  0.3907E+03
     -0.096  0.2378E+03  0.3962E+03
     -0.073  0.1814E+03  0.4005E+03
     -0.050  0.2180E+03  0.4055E+03
     -0.027  0.2363E+03  0.4110E+03
     -0.003  0.1568E+03  0.4147E+03
      0.020  0.6916E+02  0.4163E+03
      0.043  0.9527E+02  0.4185E+03
      0.066  0.2067E+03  0.4233E+03
      0.090  0.2842E+03  0.4299E+03
      0.113  0.2901E+03  0.4366E+03
      0.136  0.2507E+03  0.4425E+03
      0.159  0.2029E+03  0.4472E+03
      0.183  0.1947E+03  0.4517E+03
      0.206  0.2135E+03  0.4567E+03
      0.229  0.2058E+03  0.4615E+03
      0.252  0.1867E+03  0.4658E+03
      0.276  0.2013E+03  0.4705E+03
      0.299  0.2231E+03  0.4757E+03
      0.322  0.2297E+03  0.4810E+03
      0.345  0.2568E+03  0.4870E+03
      0.369  0.2686E+03  0.4932E+03
      0.392  0.2396E+03  0.4988E+03
      0.415  0.2064E+03  0.5036E+03
      0.438  0.2275E+03  0.5089E+03
      0.462  0.2606E+03  0.5149E+03
      0.485  0.2429E+03  0.5206E+03
      0.508  0.2141E+03  0.5256E+03
      0.531  0.2350E+03  0.5310E+03
      0.555  0.2986E+03  0.5380E+03
      0.578  0.3555E+03  0.5462E+03
      0.601  0.3869E+03  0.5552E+03
      0.624  0.3697E+03  0.5638E+03
      0.648  0.3255E+03  0.5714E+03
      0.671  0.2929E+03  0.5782E+03
      0.694  0.2806E+03  0.5847E+03
      0.717  0.2780E+03  0.5912E+03
      0.741  0.2729E+03  0.5975E+03
      0.764  0.2667E+03  0.6037E+03
      0.787  0.2422E+03  0.6094E+03
      0.810  0.1762E+03  0.6135E+03
      0.834  0.9354E+02  0.6156E+03
      0.857  0.6759E+02  0.6172E+03
      0.880  0.1101E+03  0.6198E+03
      0.903  0.1431E+03  0.6231E+03
      0.927  0.1665E+03  0.6270E+03
      0.950  0.1847E+03  0.6313E+03
      0.973  0.1818E+03  0.6355E+03
      0.996  0.2020E+03  0.6402E+03
      1.020  0.2379E+03  0.6457E+03
      1.043  0.2520E+03  0.6516E+03
      1.066  0.2458E+03  0.6573E+03
      1.089  0.2441E+03  0.6630E+03
      1.113  0.2592E+03  0.6690E+03
      1.136  0.2754E+03  0.6754E+03
      1.159  0.2872E+03  0.6821E+03
      1.182  0.2943E+03  0.6889E+03
      1.206  0.2867E+03  0.6956E+03
      1.229  0.2720E+03  0.7019E+03
      1.252  0.2476E+03  0.7077E+03
      1.275  0.2154E+03  0.7127E+03
      1.299  0.1844E+03  0.7170E+03
      1.322  0.1747E+03  0.7210E+03
      1.345  0.1925E+03  0.7255E+03
      1.368  0.2055E+03  0.7303E+03
      1.392  0.2138E+03  0.7353E+03
      1.415  0.2334E+03  0.7407E+03
      1.438  0.2353E+03  0.7461E+03
      1.461  0.2240E+03  0.7514E+03
      1.485  0.2102E+03  0.7562E+03
      1.508  0.1929E+03  0.7607E+03
      1.531  0.1885E+03  0.7651E+03
      1.554  0.1737E+03  0.7691E+03
      1.578  0.1373E+03  0.7723E+03
      1.601  0.1371E+03  0.7755E+03
      1.624  0.1652E+03  0.7794E+03
      1.647  0.1651E+03  0.7832E+03
      1.671  0.1378E+03  0.7864E+03
      1.694  0.1089E+03  0.7889E+03
      1.717  0.9269E+02  0.7911E+03
      1.740  0.1115E+03  0.7937E+03
      1.764  0.1542E+03  0.7973E+03
      1.787  0.1873E+03  0.8016E+03
      1.810  0.2034E+03  0.8064E+03
      1.833  0.2202E+03  0.8115E+03
      1.857  0.2479E+03  0.8172E+03
      1.880  0.2605E+03  0.8233E+03
      1.903  0.2564E+03  0.8293E+03
      1.926  0.2481E+03  0.8350E+03
      1.950  0.2433E+03  0.8407E+03
      1.973  0.2399E+03  0.8463E+03
      1.996  0.2339E+03  0.8517E+03
      2.019  0.2245E+03  0.8569E+03
      2.043  0.2066E+03  0.8617E+03
      2.066  0.1616E+03  0.8655E+03
      2.089  0.1046E+03  0.8679E+03
      2.112  0.1023E+03  0.8703E+03
      2.136  0.1394E+03  0.8735E+03
      2.159  0.1488E+03  0.8770E+03
      2.182  0.1314E+03  0.8800E+03
      2.205  0.1196E+03  0.8828E+03
      2.229  0.1424E+03  0.8861E+03
      2.252  0.1715E+03  0.8901E+03
      2.275  0.1833E+03  0.8944E+03
      2.298  0.1709E+03  0.8984E+03
      2.322  0.1520E+03  0.9019E+03
      2.345  0.1491E+03  0.9054E+03
      2.368  0.1349E+03  0.9085E+03
      2.391  0.1095E+03  0.9110E+03
      2.415  0.1196E+03  0.9138E+03
      2.438  0.1402E+03  0.9171E+03
      2.461  0.1426E+03  0.9204E+03
      2.484  0.1404E+03  0.9237E+03
      2.508  0.1534E+03  0.9272E+03
      2.531  0.1667E+03  0.9311E+03
      2.554  0.1608E+03  0.9348E+03
      2.577  0.1508E+03  0.9384E+03
      2.601  0.1379E+03  0.9416E+03
      2.624  0.1134E+03  0.9442E+03
      2.647  0.7886E+02  0.9460E+03
      2.670  0.7655E+02  0.9478E+03
      2.694  0.1082E+03  0.9503E+03
      2.717  0.1306E+03  0.9534E+03
      2.740  0.1459E+03  0.9568E+03
      2.763  0.1608E+03  0.9605E+03
      2.787  0.1682E+03  0.9644E+03
      2.810  0.1614E+03  0.9682E+03
      2.833  0.1573E+03  0.9718E+03
      2.856  0.1685E+03  0.9757E+03
      2.880  0.1742E+03  0.9798E+03
      2.903  0.1573E+03  0.9834E+03
      2.926  0.1185E+03  0.9862E+03
      2.949  0.6052E+02  0.9876E+03
      2.973  0.1564E+02  0.9880E+03
      2.996  0.1687E+01  0.9880E+03
      3.019  0.8955E-01  0.9880E+03
      3.042  0.6673E+00  0.9880E+03
      3.066  0.7513E+01  0.9882E+03
      3.089  0.3368E+02  0.9890E+03
      3.112  0.7024E+02  0.9906E+03
      3.135  0.9058E+02  0.9927E+03
      3.159  0.1019E+03  0.9951E+03
      3.182  0.1067E+03  0.9976E+03
      3.205  0.9723E+02  0.9998E+03
      3.228  0.6691E+02  0.1001E+04
      3.252  0.2334E+02  0.1002E+04
      3.275  0.3157E+01  0.1002E+04
      3.298  0.1490E+00  0.1002E+04
      3.321  0.2335E-02  0.1002E+04
      3.345  0.1180E-04  0.1002E+04
      3.368  0.1886E-07  0.1002E+04
      3.391  0.9414E-11  0.1002E+04
      3.414  0.0000E+00  0.1002E+04
      3.438  0.0000E+00  0.1002E+04
      3.461  0.0000E+00  0.1002E+04
      3.484  0.0000E+00  0.1002E+04
      3.507  0.0000E+00  0.1002E+04
      3.531  0.0000E+00  0.1002E+04
