 running on   64 total cores
 distrk:  each k-point on   32 cores,    2 groups
 distr:  one band on   32 cores,    1 groups
 vasp.6.2.1 16May21 (build Nov 23 2021 15:40:41) complex                        
  
 POSCAR found type information on POSCAR Li
 POSCAR found :  1 types and     500 ions
 scaLAPACK will be used
 -----------------------------------------------------------------------------
|                                                                             |
|           W    W    AA    RRRRR   N    N  II  N    N   GGGG   !!!           |
|           W    W   A  A   R    R  NN   N  II  NN   N  G    G  !!!           |
|           W    W  A    A  R    R  N N  N  II  N N  N  G       !!!           |
|           W WW W  AAAAAA  RRRRR   N  N N  II  N  N N  G  GGG   !            |
|           WW  WW  A    A  R   R   N   NN  II  N   NN  G    G                |
|           W    W  A    A  R    R  N    N  II  N    N   GGGG   !!!           |
|                                                                             |
|     For optimal performance we recommend to set                             |
|       NCORE = 2 up to number-of-cores-per-socket                            |
|     NCORE specifies how many cores store one orbital (NPAR=cpu/NCORE).      |
|     This setting can greatly improve the performance of VASP for DFT.       |
|     The default, NCORE=1 might be grossly inefficient on modern             |
|     multi-core architectures or massively parallel machines. Do your        |
|     own testing! More info at https://www.vasp.at/wiki/index.php/NCORE      |
|     Unfortunately you need to use the default for GW and RPA                |
|     calculations (for HF NCORE is supported but not extensively tested      |
|     yet).                                                                   |
|                                                                             |
 -----------------------------------------------------------------------------

 -----------------------------------------------------------------------------
|                                                                             |
|               ----> ADVICE to this user running VASP <----                  |
|                                                                             |
|     You have a (more or less) 'large supercell' and for larger cells it     |
|     might be more efficient to use real-space projection operators.         |
|     Therefore, try LREAL= Auto in the INCAR file.                           |
|     Mind: If you want to do very accurate calculations, keep the            |
|     reciprocal projection scheme (i.e. LREAL=.FALSE.).                      |
|                                                                             |
 -----------------------------------------------------------------------------

 LDA part: xc-table for Pade appr. of Perdew
 POSCAR found type information on POSCAR Li
 POSCAR found :  1 types and     500 ions
 POSCAR, INCAR and KPOINTS ok, starting setup
 FFT: planning ...
 WAVECAR not read
 entering main loop
       N       E                     dE             d eps       ncg     rms          rms(c)
DAV:   1    -0.303866949699E+03   -0.30387E+03   -0.12122E+05  4008   0.656E+02
DAV:   2    -0.891966276846E+03   -0.58810E+03   -0.53949E+03  4588   0.671E+01
DAV:   3    -0.933439638371E+03   -0.41473E+02   -0.37677E+02  5176   0.140E+01
DAV:   4    -0.934836219822E+03   -0.13966E+01   -0.13748E+01  4616   0.280E+00
DAV:   5    -0.934867462594E+03   -0.31243E-01   -0.31197E-01  4776   0.448E-01    0.708E+00
DAV:   6    -0.934466998956E+03    0.40046E+00   -0.63732E+00  4608   0.352E+00    0.642E+00
DAV:   7    -0.929157806916E+03    0.53092E+01   -0.59059E+00  4696   0.335E+00    0.367E+00
DAV:   8    -0.927835748540E+03    0.13221E+01   -0.27316E+00  4544   0.158E+00    0.197E+00
DAV:   9    -0.927594144203E+03    0.24160E+00   -0.13652E+00  4352   0.944E-01    0.111E+00
DAV:  10    -0.927625606009E+03   -0.31462E-01   -0.31146E-01  4664   0.569E-01    0.946E-01
DAV:  11    -0.927538615380E+03    0.86991E-01   -0.13727E-01  4520   0.420E-01    0.530E-01
DAV:  12    -0.927524490290E+03    0.14125E-01   -0.34999E-02  4408   0.171E-01    0.226E-01
DAV:  13    -0.927528563668E+03   -0.40734E-02   -0.11246E-02  4728   0.132E-01    0.217E-01
DAV:  14    -0.927523031582E+03    0.55321E-02   -0.61334E-03  4680   0.986E-02    0.853E-02
DAV:  15    -0.927522593813E+03    0.43777E-03   -0.17199E-03  4496   0.433E-02    0.475E-02
DAV:  16    -0.927522561647E+03    0.32165E-04   -0.69225E-04  4608   0.260E-02    0.328E-02
DAV:  17    -0.927522432879E+03    0.12877E-03   -0.25407E-04  4520   0.176E-02    0.160E-02
DAV:  18    -0.927522400803E+03    0.32076E-04   -0.65889E-05  4272   0.716E-03    0.662E-03
DAV:  19    -0.927522395348E+03    0.54553E-05   -0.13108E-05  2528   0.388E-03
   1 F= -.92752240E+03 E0= -.92747543E+03  d E =-.939288E-01
