Li                                      
           1
    21.650000    0.000000    0.000000
     0.000000   21.650000    0.000000
    -0.000000   -0.000000   21.650000
   Li
   500
Direct configuration=     1
   0.01933649  0.99102817  0.98649856
   0.00627254  0.09785166  0.08425896
   0.99027153  0.20410125  0.19792923
   0.00100311  0.31737397  0.29867620
   0.01112151  0.41861851  0.39021755
   0.00878845  0.48841668  0.50006618
   0.99599406  0.58809215  0.61126767
   0.00634740  0.70818191  0.70722186
   0.99866724  0.79232895  0.79603580
   0.99752226  0.89053151  0.88084465
   0.10205327  0.98860403  0.10453662
   0.09041624  0.11505066  0.20358716
   0.10220179  0.22293354  0.29266170
   0.10950376  0.31205260  0.39967744
   0.12616193  0.39901373  0.51187319
   0.11392389  0.49270329  0.60760028
   0.11349746  0.60073147  0.70517187
   0.08871015  0.70791329  0.80321662
   0.09079066  0.79966188  0.89482581
   0.09678630  0.90271001  0.99714336
   0.18185032  0.00326495  0.20040870
   0.19259199  0.10863229  0.30428115
   0.18538924  0.21621988  0.41004396
   0.20359027  0.30955516  0.51365387
   0.20907217  0.38099516  0.62381207
   0.20280656  0.49505462  0.68697413
   0.20086315  0.60968543  0.78986131
   0.21812626  0.71171971  0.89117502
   0.19782949  0.79783232  0.99021210
   0.19318243  0.88945474  0.09811864
   0.30354514  0.00034048  0.29804408
   0.28715889  0.11722473  0.39390206
   0.29257324  0.18925311  0.50649304
   0.31343002  0.29595937  0.60956030
   0.31339709  0.39898054  0.69898322
   0.31042930  0.49427123  0.78555241
   0.30851507  0.59472933  0.89504680
   0.30935576  0.70824740  0.00578721
   0.28813775  0.79923752  0.10423757
   0.29611355  0.90716260  0.19826515
   0.39270804  0.00510924  0.40800663
   0.40098012  0.10509947  0.51028485
   0.40053228  0.20698629  0.60851534
   0.41527799  0.31121346  0.71327942
   0.41045345  0.38884486  0.80961008
   0.39138384  0.51360472  0.90011727
   0.38733367  0.60518620  0.00657619
   0.37510250  0.70711783  0.11506211
   0.36991039  0.80083545  0.21365131
   0.38718770  0.92193598  0.30617569
   0.49897372  0.00826049  0.48058564
   0.50672849  0.07769161  0.60063426
   0.50101649  0.19679497  0.70042362
   0.51035459  0.29192222  0.81588815
   0.50404659  0.41072321  0.89225471
   0.48791561  0.50139400  0.01026314
   0.50416270  0.61513881  0.10607448
   0.48211916  0.71799058  0.20663293
   0.49274638  0.81047806  0.31358786
   0.49677028  0.91696809  0.39814441
   0.59508927  0.99505753  0.59308810
   0.60184713  0.10357009  0.70225490
   0.59271881  0.20040284  0.80186910
   0.57478376  0.30104375  0.91181001
   0.60203551  0.40890989  0.01681432
   0.59212420  0.51639175  0.10734401
   0.59598655  0.63939252  0.19126964
   0.59037785  0.71009760  0.31720803
   0.60789525  0.79835295  0.40804292
   0.59077692  0.91818769  0.49465111
   0.69614072  0.00959579  0.70184165
   0.68916512  0.09411581  0.81091622
   0.70691746  0.20791304  0.90818795
   0.70047353  0.31283908  0.00342824
   0.69345736  0.41266306  0.10246071
   0.69222793  0.50936857  0.20028857
   0.67577478  0.62965440  0.29875251
   0.69132470  0.70188528  0.40071751
   0.69554134  0.80911040  0.49581770
   0.69782707  0.91069605  0.58558698
   0.79122651  0.98184724  0.80077612
   0.81248608  0.08759134  0.90119396
   0.80588018  0.19639915  0.01021107
   0.78777743  0.31387040  0.09059500
   0.80888564  0.40962316  0.19218029
   0.79580709  0.53414967  0.29803690
   0.80241415  0.60972726  0.40083244
   0.78401476  0.69094910  0.48988941
   0.80290693  0.78382552  0.59386476
   0.78179586  0.89370620  0.69407921
   0.89004397  0.99305040  0.90504761
   0.90933187  0.08890844  0.99882910
   0.91388617  0.20300448  0.08991930
   0.90376980  0.31504434  0.18486440
   0.89184555  0.40259855  0.28342451
   0.89785847  0.50407496  0.40033846
   0.89498287  0.59968085  0.50620557
   0.90045122  0.68452423  0.59953355
   0.89981061  0.79971047  0.68099062
   0.89788953  0.87819611  0.78081376
   0.10945599  0.08181746  0.98502066
   0.09996999  0.20817846  0.08286120
   0.08739536  0.30336456  0.19484820
   0.10901372  0.41050674  0.29919449
   0.10927952  0.48843926  0.40708976
   0.10831928  0.58517406  0.50875874
   0.10239635  0.71059035  0.60325042
   0.09398749  0.80598011  0.68373287
   0.08869486  0.91027930  0.79251113
   0.10479920  0.99147152  0.89033384
   0.18440979  0.09108826  0.09610620
   0.19038592  0.19438498  0.19230260
   0.19313684  0.29863844  0.29302028
   0.22241474  0.40418631  0.39762447
   0.20589973  0.49185234  0.51002665
   0.21307787  0.61247958  0.59695667
   0.18996381  0.70136057  0.70894257
   0.20008251  0.80481382  0.79875744
   0.20099882  0.88879734  0.88978155
   0.17816621  0.98868779  0.00230698
   0.28860575  0.10384597  0.19557066
   0.28842490  0.19677251  0.29990037
   0.28890274  0.28929285  0.39609155
   0.30360597  0.38293194  0.51135861
   0.31180718  0.49772959  0.59971264
   0.30172468  0.59646519  0.70152780
   0.30386456  0.70705307  0.79345257
   0.30385664  0.80670048  0.89800116
   0.28376842  0.90191543  0.00621213
   0.28961404  0.99827385  0.11145651
   0.40238927  0.10657665  0.30225319
   0.40245260  0.20386603  0.39809521
   0.39626685  0.29538938  0.50848282
   0.41074740  0.38699258  0.60902322
   0.41098231  0.50052920  0.70628746
   0.40659166  0.60669430  0.81654197
   0.39017986  0.70364531  0.90737998
   0.39226910  0.80819001  0.00584140
   0.40093614  0.91723676  0.10563907
   0.39388092  0.01578800  0.20443780
   0.49818266  0.10855166  0.39772277
   0.48505353  0.19621889  0.49315911
   0.50065320  0.29306470  0.58877223
   0.50771698  0.39119646  0.68444318
   0.50679009  0.51339587  0.81404668
   0.49307061  0.60438728  0.90803212
   0.48425014  0.70712344  0.00387439
   0.49118764  0.81279410  0.11872989
   0.49576235  0.90191071  0.21291888
   0.51430502  0.00790428  0.31816343
   0.58216412  0.10316098  0.47882882
   0.60700371  0.19193118  0.58687000
   0.59648962  0.29317385  0.69822646
   0.59453159  0.40486548  0.80872906
   0.59225584  0.51144710  0.91787668
   0.59824599  0.61720681  0.99737355
   0.59392141  0.71944839  0.09420963
   0.59019561  0.80302733  0.20515460
   0.60150533  0.88946390  0.29898486
   0.60818113  0.00712292  0.40486075
   0.69893300  0.08264700  0.57802757
   0.70982818  0.19146134  0.69394485
   0.67303538  0.30248539  0.81361545
   0.69355432  0.39445001  0.90014544
   0.70240952  0.49471035  0.99107815
   0.70895614  0.59985967  0.10047816
   0.68359703  0.71348322  0.19013550
   0.69039542  0.80571622  0.31069752
   0.70583133  0.90021436  0.40419989
   0.69707868  0.01182393  0.48615295
   0.78281775  0.09704195  0.69648689
   0.78314967  0.19480178  0.79110151
   0.79402486  0.29991326  0.90179768
   0.80898586  0.41670943  0.00980638
   0.80705281  0.50240517  0.09583384
   0.79470904  0.61005538  0.21097765
   0.80034400  0.71070466  0.30060168
   0.79030046  0.79157806  0.39694353
   0.79678472  0.91106235  0.49584370
   0.80370449  0.98923598  0.59890223
   0.88724610  0.09726635  0.78666982
   0.90018250  0.19194280  0.89443451
   0.90697059  0.30140220  0.00912454
   0.90917695  0.41670331  0.09575053
   0.90112206  0.51872404  0.20056068
   0.89952398  0.60706071  0.29717218
   0.90094298  0.70680307  0.39542840
   0.88582014  0.78397197  0.49921895
   0.90061904  0.89161667  0.59624698
   0.89905998  0.98884968  0.70112267
   0.00047162  0.08974390  0.88806448
   0.00837847  0.19794945  0.98402352
   0.99980868  0.30405809  0.08606780
   0.00410910  0.40899601  0.19173865
   0.99669943  0.50018749  0.30540036
   0.99979568  0.59274576  0.40724927
   0.00418291  0.69010679  0.50787849
   0.98520798  0.80035966  0.59797760
   0.00641519  0.90158769  0.70169286
   0.97589673  0.00828095  0.81071082
   0.20960417  0.19846950  0.00544690
   0.17839733  0.31343009  0.10313960
   0.19472779  0.40212192  0.17662248
   0.21329666  0.48820935  0.30124789
   0.20109048  0.58936641  0.41967773
   0.19278632  0.70728176  0.50341194
   0.19781289  0.79935412  0.59968387
   0.20296587  0.89448252  0.67727026
   0.20130767  0.98640713  0.79805398
   0.21035516  0.08631607  0.89904251
   0.29404537  0.20765925  0.09226665
   0.30059582  0.30425091  0.18591583
   0.30394816  0.38420296  0.28865544
   0.30070861  0.48117734  0.42196553
   0.30356462  0.61841805  0.50481710
   0.29877705  0.71241795  0.60684432
   0.29928406  0.80511888  0.70541942
   0.29717026  0.89778081  0.79887731
   0.29622684  0.97881455  0.89572362
   0.28682216  0.08388241  0.00730094
   0.40208345  0.19040529  0.20810243
   0.41359242  0.28144985  0.28996531
   0.38607099  0.38564672  0.37904542
   0.39944867  0.49052809  0.50166293
   0.41456538  0.60199732  0.60919557
   0.39698189  0.70224472  0.70330403
   0.39782140  0.81732256  0.79539007
   0.40161636  0.91818528  0.90376418
   0.39195026  0.00462111  0.02070638
   0.39984336  0.11686795  0.10038391
   0.50986903  0.18419448  0.30109420
   0.49774412  0.28680963  0.38734849
   0.48243328  0.40196727  0.48343984
   0.50436793  0.50089550  0.59104673
   0.49897928  0.60431921  0.70818116
   0.49144273  0.71144525  0.79215658
   0.48598357  0.81136818  0.89991647
   0.50501184  0.89428973  0.00586391
   0.49132808  0.00545398  0.10634142
   0.50906627  0.09598304  0.20140026
   0.62034143  0.19746820  0.40451407
   0.59575721  0.28933729  0.48467548
   0.59861679  0.39624863  0.60124639
   0.59278744  0.50892237  0.70407159
   0.59679006  0.61709409  0.79703010
   0.59097578  0.70506573  0.90171431
   0.58329577  0.79578038  0.99514904
   0.60764768  0.89540929  0.11566917
   0.60281751  0.98626184  0.20250191
   0.61539486  0.10116553  0.29678886
   0.71156079  0.19510239  0.48918953
   0.70950328  0.29391402  0.58163721
   0.68516225  0.39850631  0.70046846
   0.67350116  0.50250712  0.80187932
   0.68814718  0.59932083  0.88753314
   0.69733135  0.70669050  0.00599833
   0.68717914  0.80561364  0.08961507
   0.71357143  0.89027625  0.20044289
   0.71305487  0.98492640  0.29547507
   0.71583894  0.09333993  0.39133116
   0.80878919  0.19864160  0.59137527
   0.77189389  0.29315857  0.70289032
   0.78509780  0.39325428  0.79928533
   0.78295971  0.48959279  0.87700719
   0.79465212  0.60043774  0.98352826
   0.80778608  0.68996278  0.10090600
   0.80792184  0.79022299  0.20566188
   0.80814192  0.89550369  0.30138181
   0.81042802  0.00168398  0.39401432
   0.80989608  0.09662227  0.49977528
   0.88808871  0.21034567  0.70388268
   0.89694743  0.30034549  0.80937223
   0.89656188  0.39237215  0.89886840
   0.89091595  0.50947264  0.97467162
   0.90406589  0.60128681  0.09674849
   0.90456779  0.69511135  0.19457862
   0.92185969  0.79820047  0.31446979
   0.90194569  0.90194863  0.41246055
   0.90138856  0.00566491  0.49166025
   0.90880159  0.10128244  0.61350754
   0.99868446  0.20100661  0.79068948
   0.99614127  0.29221404  0.91669215
   0.99752219  0.40533842  0.98746129
   0.99724265  0.51168102  0.10663910
   0.00897088  0.59827614  0.20055560
   0.00519142  0.69252204  0.31532481
   0.99166273  0.81070109  0.42615389
   0.99086480  0.91063238  0.51126692
   0.00700436  0.99111897  0.61517302
   0.00644754  0.11000339  0.70139066
   0.12129112  0.19829312  0.91607343
   0.11101038  0.30917014  0.00001689
   0.09649967  0.41279279  0.09404372
   0.09132764  0.48884663  0.21592702
   0.11459045  0.60264865  0.32550375
   0.08938218  0.69930524  0.41610247
   0.09392082  0.80377466  0.49885316
   0.09192663  0.90023654  0.60407420
   0.10562691  0.00327459  0.70979117
   0.09782313  0.08406184  0.78898536
   0.31368135  0.30538265  0.99518614
   0.31596875  0.41429028  0.08330560
   0.32813128  0.48114381  0.20526195
   0.29243518  0.56916033  0.31590678
   0.29062227  0.69749394  0.39973459
   0.29295716  0.80143959  0.50108257
   0.30079914  0.90959501  0.59149251
   0.30773636  0.01349285  0.70506782
   0.31084318  0.09181062  0.80203055
   0.29734363  0.19494299  0.89722262
   0.39883241  0.27991716  0.11429231
   0.40627313  0.38762601  0.19390847
   0.39437515  0.50487982  0.30467391
   0.40475187  0.60010826  0.40583011
   0.39979070  0.70242440  0.50605047
   0.39898117  0.80227244  0.60371496
   0.40471296  0.91622085  0.69045331
   0.40642806  0.99466648  0.79035708
   0.40941480  0.09488139  0.91307925
   0.39242043  0.19615299  0.99857911
   0.52519961  0.28974261  0.20203783
   0.50651923  0.39626103  0.29448694
   0.48633845  0.48680280  0.39001856
   0.49246969  0.59353333  0.49373281
   0.50611185  0.68736828  0.59033517
   0.49300846  0.80150239  0.68465717
   0.50530727  0.89515046  0.80027354
   0.51032807  0.99419106  0.90685431
   0.50740247  0.10325372  0.99862503
   0.50907842  0.19325231  0.09366690
   0.61631131  0.28830592  0.30781861
   0.60498461  0.39357609  0.38981423
   0.58764575  0.46895459  0.49320832
   0.58732501  0.58686026  0.59255115
   0.59932111  0.69835743  0.69670173
   0.59141353  0.78773660  0.80481560
   0.62041930  0.89733737  0.89115008
   0.60147632  0.99536586  0.00752105
   0.60469495  0.10207417  0.10480350
   0.61716055  0.19816878  0.19389668
   0.70147971  0.28918697  0.40535871
   0.71444052  0.39419058  0.47672707
   0.68946942  0.48094394  0.59298250
   0.68503241  0.60392218  0.69154918
   0.71115825  0.69756337  0.80037853
   0.70716079  0.79513756  0.90835811
   0.70771692  0.90395964  0.99786815
   0.69977846  0.99527625  0.11320121
   0.71637414  0.08966263  0.19324635
   0.71352148  0.20036271  0.27199633
   0.81066440  0.29701035  0.48836811
   0.79191287  0.38161112  0.60837492
   0.78593137  0.48180413  0.70027335
   0.79590956  0.60074501  0.77976172
   0.79501155  0.69356139  0.88917866
   0.81126187  0.80282345  0.00360405
   0.80580313  0.90044081  0.10918850
   0.82235879  0.98692097  0.18831729
   0.81177932  0.08779896  0.28237182
   0.80743188  0.20547530  0.39631330
   0.89490374  0.30182528  0.61502842
   0.90693752  0.39390264  0.70270783
   0.88815796  0.49582890  0.79449630
   0.88711587  0.60469938  0.87848787
   0.90006988  0.70018255  0.99045501
   0.90684018  0.78877974  0.10629834
   0.91595430  0.88130257  0.18171965
   0.91078881  0.98406649  0.28853520
   0.89540090  0.10403246  0.38230798
   0.90279111  0.21579131  0.50434853
   0.01436051  0.30400974  0.69613803
   0.99610942  0.40391055  0.80815753
   0.99941528  0.50430845  0.89734373
   0.00595993  0.59268412  0.99549994
   0.01930831  0.69214301  0.09728993
   0.00548118  0.78480180  0.19932581
   0.98780813  0.89770709  0.28866778
   0.00588115  0.00512495  0.39688493
   0.99751121  0.10376500  0.50741088
   0.00358246  0.20649665  0.61401221
   0.09961052  0.28471241  0.80755519
   0.12121013  0.39225673  0.89859742
   0.08978403  0.50654384  0.97506505
   0.11843425  0.60038721  0.09822445
   0.11333510  0.69575983  0.21387121
   0.09615372  0.79759091  0.31212444
   0.09058523  0.89398967  0.40088389
   0.09007402  0.00891027  0.49547937
   0.10039846  0.11515398  0.62188978
   0.09910080  0.19710826  0.70569066
   0.21501803  0.31251451  0.90714686
   0.20828105  0.39335271  0.00186454
   0.18733020  0.50568218  0.09942518
   0.20285484  0.58478777  0.21515740
   0.21193121  0.69664941  0.32574227
   0.18758979  0.80603312  0.40425506
   0.18760201  0.90035894  0.50556627
   0.19750982  0.01133645  0.59619767
   0.21372491  0.10196253  0.70469340
   0.19261881  0.19662458  0.80745167
   0.40850426  0.40714805  0.99166220
   0.40983354  0.50822180  0.10449872
   0.39622992  0.60963343  0.21206586
   0.39627750  0.70135426  0.30288880
   0.40997720  0.80816195  0.40114587
   0.39261002  0.90841014  0.50307960
   0.40724522  0.00988857  0.61202847
   0.39716783  0.10142485  0.71870766
   0.40025125  0.19921562  0.80265149
   0.40491187  0.29218736  0.90078613
   0.49223510  0.40007822  0.10718020
   0.50057462  0.51106623  0.20882834
   0.49703823  0.60470240  0.30402469
   0.49455321  0.70401367  0.40697670
   0.50156567  0.80363373  0.50029692
   0.50560182  0.90550014  0.59331136
   0.50115966  0.99926795  0.70501312
   0.50060251  0.10490961  0.80345796
   0.49754067  0.19121511  0.92071263
   0.48582687  0.31484901  0.99141173
   0.59982229  0.40614927  0.20955314
   0.59565074  0.51535010  0.29920569
   0.58439502  0.59198069  0.42507911
   0.59921439  0.69479584  0.49180089
   0.59417639  0.80550876  0.59835415
   0.59059154  0.90206124  0.70646979
   0.58828838  0.01213077  0.80016795
   0.60044404  0.10933172  0.91408691
   0.60525540  0.20535221  0.00253607
   0.59301012  0.31023339  0.09547016
   0.70884381  0.39520384  0.30367068
   0.70519233  0.50229039  0.39048619
   0.69052732  0.59173040  0.51181343
   0.67837124  0.70517918  0.59188211
   0.69295191  0.79358669  0.69527414
   0.67793013  0.88985302  0.79096249
   0.71618327  0.99868655  0.90420450
   0.69127605  0.08665307  0.00916386
   0.70828486  0.19178146  0.10383357
   0.70518987  0.29976735  0.19954017
   0.79921140  0.41332219  0.39153770
   0.79888725  0.50996068  0.50283398
   0.79183775  0.59869642  0.61154292
   0.80280456  0.69750280  0.67985332
   0.79502478  0.79463108  0.77714619
   0.80296285  0.89484276  0.89662907
   0.79464975  0.99096276  0.01385122
   0.81197886  0.08108564  0.08878015
   0.82522629  0.20032646  0.17385130
   0.80323575  0.30514517  0.29195582
   0.89295993  0.38499618  0.49894081
   0.89459313  0.49617556  0.60004797
   0.89921959  0.57787673  0.70139858
   0.90669859  0.70766108  0.78425222
   0.89679255  0.79150944  0.89020682
   0.90849630  0.89465281  0.99913621
   0.91570745  0.98418681  0.09382876
   0.91325524  0.09767935  0.19944301
   0.90099688  0.20915762  0.30397866
   0.90198077  0.31542715  0.39156472
   0.00185554  0.40112547  0.58778246
   0.99845281  0.48358799  0.70485190
   0.00586797  0.60200347  0.78908975
   0.98833679  0.70173794  0.89456795
   0.99898957  0.79636793  0.99686011
   0.01491382  0.89561618  0.10564523
   0.01040153  0.99931149  0.19162230
   0.01157447  0.10669131  0.30919267
   0.99977767  0.19892643  0.39828794
   0.01752120  0.30832982  0.49397348
   0.09556689  0.38543460  0.71928938
   0.11091402  0.48358351  0.79100093
   0.10631813  0.61360412  0.88213352
   0.09748994  0.70388017  0.99479117
   0.11111251  0.79102974  0.10152252
   0.09866380  0.89092956  0.20254580
   0.08741387  0.98801567  0.29128652
   0.11426815  0.10143450  0.39471379
   0.10793977  0.19722963  0.50387378
   0.10954768  0.28237079  0.59897125
   0.21159882  0.39225201  0.78989918
   0.20544824  0.50165857  0.88260620
   0.20791075  0.61287256  0.99537725
   0.20818494  0.70233583  0.11006813
   0.20513035  0.79454978  0.21250163
   0.19289464  0.89073457  0.29865658
   0.20945694  0.98365023  0.39203167
   0.19660172  0.11505936  0.50533973
   0.21274577  0.19059214  0.60598317
   0.19230559  0.29735126  0.70214092
   0.30231666  0.41093963  0.90522235
   0.28827643  0.50971413  0.00716540
   0.29601428  0.60654519  0.11745065
   0.28336487  0.69246204  0.22937715
   0.29745888  0.81636106  0.30904891
   0.30616064  0.90067116  0.39791448
   0.28677035  0.00686624  0.50576567
   0.29820042  0.10015062  0.61992617
   0.30869234  0.20197569  0.70792486
   0.30228520  0.30061413  0.78909064
