 500 500   0   0
  0.2029568E+02  0.2165000E-08  0.2165000E-08  0.2165000E-08  0.5000000E-15
  1.000000000000000E-004
  CAR 
 Li                                      
      3.54270987     -3.44537740  301      0.39385261      1.00000000
     -3.445  0.0000E+00  0.0000E+00
     -3.422  0.0000E+00  0.0000E+00
     -3.399  0.0000E+00  0.0000E+00
     -3.375  0.0000E+00  0.0000E+00
     -3.352  0.0000E+00  0.0000E+00
     -3.329  0.0000E+00  0.0000E+00
     -3.306  0.0000E+00  0.0000E+00
     -3.282  0.1335E-10  0.3110E-12
     -3.259  0.2558E-07  0.5961E-09
     -3.236  0.1507E-04  0.3517E-06
     -3.212  0.2758E-02  0.6461E-04
     -3.189  0.1588E+00  0.3764E-02
     -3.166  0.2929E+01  0.7199E-01
     -3.143  0.1765E+02  0.4832E+00
     -3.119  0.3543E+02  0.1309E+01
     -3.096  0.2390E+02  0.1865E+01
     -3.073  0.5827E+01  0.2001E+01
     -3.049  0.8072E+01  0.2189E+01
     -3.026  0.4621E+02  0.3265E+01
     -3.003  0.9970E+02  0.5588E+01
     -2.980  0.7853E+02  0.7417E+01
     -2.956  0.2291E+02  0.7951E+01
     -2.933  0.8257E+01  0.8143E+01
     -2.910  0.3976E+02  0.9069E+01
     -2.886  0.9580E+02  0.1130E+02
     -2.863  0.8487E+02  0.1328E+02
     -2.840  0.2794E+02  0.1393E+02
     -2.816  0.9419E+01  0.1415E+02
     -2.793  0.4380E+02  0.1517E+02
     -2.770  0.1163E+03  0.1788E+02
     -2.747  0.1204E+03  0.2068E+02
     -2.723  0.4916E+02  0.2183E+02
     -2.700  0.1603E+02  0.2220E+02
     -2.677  0.5665E+02  0.2352E+02
     -2.653  0.1540E+03  0.2711E+02
     -2.630  0.1825E+03  0.3136E+02
     -2.607  0.9281E+02  0.3352E+02
     -2.584  0.2144E+02  0.3402E+02
     -2.560  0.2284E+02  0.3455E+02
     -2.537  0.7392E+02  0.3627E+02
     -2.514  0.9869E+02  0.3857E+02
     -2.490  0.5097E+02  0.3976E+02
     -2.467  0.1366E+02  0.4008E+02
     -2.444  0.3684E+02  0.4094E+02
     -2.420  0.1277E+03  0.4391E+02
     -2.397  0.1862E+03  0.4825E+02
     -2.374  0.1212E+03  0.5107E+02
     -2.351  0.4126E+02  0.5203E+02
     -2.327  0.5203E+02  0.5324E+02
     -2.304  0.1633E+03  0.5705E+02
     -2.281  0.2576E+03  0.6305E+02
     -2.257  0.2042E+03  0.6780E+02
     -2.234  0.8018E+02  0.6967E+02
     -2.211  0.2199E+02  0.7018E+02
     -2.188  0.4741E+02  0.7129E+02
     -2.164  0.9763E+02  0.7356E+02
     -2.141  0.7822E+02  0.7538E+02
     -2.118  0.2562E+02  0.7598E+02
     -2.094  0.2484E+02  0.7656E+02
     -2.071  0.1020E+03  0.7893E+02
     -2.048  0.1995E+03  0.8358E+02
     -2.024  0.1812E+03  0.8780E+02
     -2.001  0.8015E+02  0.8967E+02
     -1.978  0.3830E+02  0.9056E+02
     -1.955  0.1104E+03  0.9314E+02
     -1.931  0.2296E+03  0.9848E+02
     -1.908  0.2403E+03  0.1041E+03
     -1.885  0.1305E+03  0.1071E+03
     -1.861  0.3878E+02  0.1080E+03
     -1.838  0.4408E+02  0.1091E+03
     -1.815  0.1329E+03  0.1121E+03
     -1.792  0.1852E+03  0.1165E+03
     -1.768  0.1177E+03  0.1192E+03
     -1.745  0.4973E+02  0.1204E+03
     -1.722  0.9431E+02  0.1226E+03
     -1.698  0.2096E+03  0.1274E+03
     -1.675  0.2462E+03  0.1332E+03
     -1.652  0.1540E+03  0.1368E+03
     -1.628  0.5410E+02  0.1380E+03
     -1.605  0.6108E+02  0.1394E+03
     -1.582  0.1772E+03  0.1436E+03
     -1.559  0.2628E+03  0.1497E+03
     -1.535  0.1923E+03  0.1542E+03
     -1.512  0.7129E+02  0.1558E+03
     -1.489  0.4265E+02  0.1568E+03
     -1.465  0.1146E+03  0.1595E+03
     -1.442  0.1795E+03  0.1637E+03
     -1.419  0.1339E+03  0.1668E+03
     -1.396  0.5257E+02  0.1680E+03
     -1.372  0.5172E+02  0.1692E+03
     -1.349  0.1174E+03  0.1720E+03
     -1.326  0.1531E+03  0.1755E+03
     -1.302  0.1252E+03  0.1784E+03
     -1.279  0.6770E+02  0.1800E+03
     -1.256  0.8491E+02  0.1820E+03
     -1.232  0.2179E+03  0.1871E+03
     -1.209  0.3460E+03  0.1951E+03
     -1.186  0.3420E+03  0.2031E+03
     -1.163  0.2156E+03  0.2081E+03
     -1.139  0.1037E+03  0.2105E+03
     -1.116  0.1364E+03  0.2137E+03
     -1.093  0.2328E+03  0.2191E+03
     -1.069  0.2257E+03  0.2244E+03
     -1.046  0.1249E+03  0.2273E+03
     -1.023  0.5912E+02  0.2287E+03
     -1.000  0.6959E+02  0.2303E+03
     -0.976  0.1346E+03  0.2334E+03
     -0.953  0.1949E+03  0.2380E+03
     -0.930  0.1532E+03  0.2415E+03
     -0.906  0.1376E+03  0.2448E+03
     -0.883  0.2214E+03  0.2499E+03
     -0.860  0.2666E+03  0.2561E+03
     -0.836  0.2331E+03  0.2616E+03
     -0.813  0.1392E+03  0.2648E+03
     -0.790  0.4857E+02  0.2659E+03
     -0.767  0.3137E+02  0.2667E+03
     -0.743  0.7040E+02  0.2683E+03
     -0.720  0.9099E+02  0.2704E+03
     -0.697  0.6131E+02  0.2718E+03
     -0.673  0.7102E+02  0.2735E+03
     -0.650  0.1881E+03  0.2779E+03
     -0.627  0.3018E+03  0.2849E+03
     -0.604  0.3293E+03  0.2926E+03
     -0.580  0.3107E+03  0.2998E+03
     -0.557  0.2415E+03  0.3054E+03
     -0.534  0.1734E+03  0.3095E+03
     -0.510  0.2104E+03  0.3144E+03
     -0.487  0.2967E+03  0.3213E+03
     -0.464  0.2973E+03  0.3282E+03
     -0.440  0.2147E+03  0.3332E+03
     -0.417  0.1366E+03  0.3364E+03
     -0.394  0.8352E+02  0.3383E+03
     -0.371  0.9954E+02  0.3407E+03
     -0.347  0.1364E+03  0.3438E+03
     -0.324  0.1639E+03  0.3477E+03
     -0.301  0.1989E+03  0.3523E+03
     -0.277  0.1810E+03  0.3565E+03
     -0.254  0.1718E+03  0.3605E+03
     -0.231  0.1740E+03  0.3646E+03
     -0.208  0.1438E+03  0.3679E+03
     -0.184  0.1653E+03  0.3718E+03
     -0.161  0.2584E+03  0.3778E+03
     -0.138  0.3177E+03  0.3852E+03
     -0.114  0.2983E+03  0.3921E+03
     -0.091  0.2132E+03  0.3971E+03
     -0.068  0.1784E+03  0.4013E+03
     -0.045  0.2286E+03  0.4066E+03
     -0.021  0.2281E+03  0.4119E+03
      0.002  0.1355E+03  0.4151E+03
      0.025  0.6445E+02  0.4166E+03
      0.049  0.1063E+03  0.4190E+03
      0.072  0.2186E+03  0.4241E+03
      0.095  0.3039E+03  0.4312E+03
      0.119  0.3088E+03  0.4384E+03
      0.142  0.2472E+03  0.4442E+03
      0.165  0.1823E+03  0.4484E+03
      0.188  0.1860E+03  0.4527E+03
      0.212  0.2171E+03  0.4578E+03
      0.235  0.2090E+03  0.4627E+03
      0.258  0.1884E+03  0.4670E+03
      0.282  0.2081E+03  0.4719E+03
      0.305  0.2307E+03  0.4773E+03
      0.328  0.2427E+03  0.4829E+03
      0.351  0.2729E+03  0.4893E+03
      0.375  0.2715E+03  0.4956E+03
      0.398  0.2263E+03  0.5009E+03
      0.421  0.2076E+03  0.5057E+03
      0.445  0.2353E+03  0.5112E+03
      0.468  0.2423E+03  0.5168E+03
      0.491  0.2191E+03  0.5219E+03
      0.515  0.2113E+03  0.5269E+03
      0.538  0.2568E+03  0.5328E+03
      0.561  0.3300E+03  0.5405E+03
      0.584  0.3819E+03  0.5494E+03
      0.608  0.3872E+03  0.5584E+03
      0.631  0.3581E+03  0.5668E+03
      0.654  0.3240E+03  0.5743E+03
      0.678  0.2870E+03  0.5810E+03
      0.701  0.2640E+03  0.5872E+03
      0.724  0.2685E+03  0.5934E+03
      0.747  0.2787E+03  0.5999E+03
      0.771  0.2735E+03  0.6063E+03
      0.794  0.2272E+03  0.6116E+03
      0.817  0.1364E+03  0.6148E+03
      0.841  0.6206E+02  0.6162E+03
      0.864  0.7302E+02  0.6179E+03
      0.887  0.1254E+03  0.6208E+03
      0.911  0.1567E+03  0.6245E+03
      0.934  0.1811E+03  0.6287E+03
      0.957  0.1729E+03  0.6327E+03
      0.980  0.1645E+03  0.6366E+03
      1.004  0.2010E+03  0.6412E+03
      1.027  0.2427E+03  0.6469E+03
      1.050  0.2557E+03  0.6529E+03
      1.074  0.2504E+03  0.6587E+03
      1.097  0.2486E+03  0.6645E+03
      1.120  0.2568E+03  0.6705E+03
      1.143  0.2751E+03  0.6769E+03
      1.167  0.2977E+03  0.6838E+03
      1.190  0.3094E+03  0.6910E+03
      1.213  0.2953E+03  0.6979E+03
      1.237  0.2634E+03  0.7040E+03
      1.260  0.2281E+03  0.7093E+03
      1.283  0.2028E+03  0.7141E+03
      1.307  0.1774E+03  0.7182E+03
      1.330  0.1741E+03  0.7222E+03
      1.353  0.1947E+03  0.7268E+03
      1.376  0.2138E+03  0.7318E+03
      1.400  0.2302E+03  0.7371E+03
      1.423  0.2362E+03  0.7426E+03
      1.446  0.2368E+03  0.7481E+03
      1.470  0.2273E+03  0.7534E+03
      1.493  0.2020E+03  0.7581E+03
      1.516  0.1803E+03  0.7623E+03
      1.539  0.1662E+03  0.7662E+03
      1.563  0.1538E+03  0.7698E+03
      1.586  0.1410E+03  0.7731E+03
      1.609  0.1480E+03  0.7765E+03
      1.633  0.1707E+03  0.7805E+03
      1.656  0.1603E+03  0.7842E+03
      1.679  0.1291E+03  0.7872E+03
      1.703  0.1023E+03  0.7896E+03
      1.726  0.9786E+02  0.7919E+03
      1.749  0.1267E+03  0.7949E+03
      1.772  0.1557E+03  0.7985E+03
      1.796  0.1868E+03  0.8028E+03
      1.819  0.2189E+03  0.8079E+03
      1.842  0.2319E+03  0.8133E+03
      1.866  0.2487E+03  0.8191E+03
      1.889  0.2699E+03  0.8254E+03
      1.912  0.2697E+03  0.8317E+03
      1.935  0.2615E+03  0.8378E+03
      1.959  0.2533E+03  0.8437E+03
      1.982  0.2321E+03  0.8491E+03
      2.005  0.2164E+03  0.8541E+03
      2.029  0.2123E+03  0.8591E+03
      2.052  0.1961E+03  0.8637E+03
      2.075  0.1601E+03  0.8674E+03
      2.099  0.1454E+03  0.8708E+03
      2.122  0.1582E+03  0.8745E+03
      2.145  0.1442E+03  0.8778E+03
      2.168  0.9682E+02  0.8801E+03
      2.192  0.9427E+02  0.8823E+03
      2.215  0.1354E+03  0.8854E+03
      2.238  0.1631E+03  0.8892E+03
      2.262  0.1793E+03  0.8934E+03
      2.285  0.1761E+03  0.8975E+03
      2.308  0.1597E+03  0.9012E+03
      2.331  0.1480E+03  0.9047E+03
      2.355  0.1427E+03  0.9080E+03
      2.378  0.1435E+03  0.9113E+03
      2.401  0.1537E+03  0.9149E+03
      2.425  0.1533E+03  0.9185E+03
      2.448  0.1259E+03  0.9214E+03
      2.471  0.1204E+03  0.9242E+03
      2.494  0.1439E+03  0.9276E+03
      2.518  0.1485E+03  0.9310E+03
      2.541  0.1425E+03  0.9343E+03
      2.564  0.1396E+03  0.9376E+03
      2.588  0.1341E+03  0.9407E+03
      2.611  0.1113E+03  0.9433E+03
      2.634  0.8134E+02  0.9452E+03
      2.658  0.6944E+02  0.9468E+03
      2.681  0.9479E+02  0.9490E+03
      2.704  0.1218E+03  0.9519E+03
      2.727  0.1368E+03  0.9551E+03
      2.751  0.1555E+03  0.9587E+03
      2.774  0.1738E+03  0.9627E+03
      2.797  0.1785E+03  0.9669E+03
      2.821  0.1650E+03  0.9707E+03
      2.844  0.1634E+03  0.9745E+03
      2.867  0.1634E+03  0.9783E+03
      2.890  0.1481E+03  0.9818E+03
      2.914  0.1237E+03  0.9847E+03
      2.937  0.8826E+02  0.9867E+03
      2.960  0.4290E+02  0.9877E+03
      2.984  0.1038E+02  0.9880E+03
      3.007  0.9999E+00  0.9880E+03
      3.030  0.2889E+00  0.9880E+03
      3.054  0.3014E+01  0.9881E+03
      3.077  0.1465E+02  0.9884E+03
      3.100  0.3809E+02  0.9893E+03
      3.123  0.6676E+02  0.9909E+03
      3.147  0.9118E+02  0.9930E+03
      3.170  0.1123E+03  0.9956E+03
      3.193  0.1190E+03  0.9984E+03
      3.217  0.9568E+02  0.1001E+04
      3.240  0.4718E+02  0.1002E+04
      3.263  0.1161E+02  0.1002E+04
      3.286  0.1247E+01  0.1002E+04
      3.310  0.5275E-01  0.1002E+04
      3.333  0.8023E-03  0.1002E+04
      3.356  0.4099E-05  0.1002E+04
      3.380  0.6730E-08  0.1002E+04
      3.403  0.3460E-11  0.1002E+04
      3.426  0.0000E+00  0.1002E+04
      3.450  0.0000E+00  0.1002E+04
      3.473  0.0000E+00  0.1002E+04
      3.496  0.0000E+00  0.1002E+04
      3.519  0.0000E+00  0.1002E+04
      3.543  0.0000E+00  0.1002E+04
