 running on   64 total cores
 distrk:  each k-point on   32 cores,    2 groups
 distr:  one band on   32 cores,    1 groups
 vasp.6.2.1 16May21 (build Nov 23 2021 15:40:41) complex                        
  
 POSCAR found type information on POSCAR Li
 POSCAR found :  1 types and     500 ions
 scaLAPACK will be used
 -----------------------------------------------------------------------------
|                                                                             |
|           W    W    AA    RRRRR   N    N  II  N    N   GGGG   !!!           |
|           W    W   A  A   R    R  NN   N  II  NN   N  G    G  !!!           |
|           W    W  A    A  R    R  N N  N  II  N N  N  G       !!!           |
|           W WW W  AAAAAA  RRRRR   N  N N  II  N  N N  G  GGG   !            |
|           WW  WW  A    A  R   R   N   NN  II  N   NN  G    G                |
|           W    W  A    A  R    R  N    N  II  N    N   GGGG   !!!           |
|                                                                             |
|     For optimal performance we recommend to set                             |
|       NCORE = 2 up to number-of-cores-per-socket                            |
|     NCORE specifies how many cores store one orbital (NPAR=cpu/NCORE).      |
|     This setting can greatly improve the performance of VASP for DFT.       |
|     The default, NCORE=1 might be grossly inefficient on modern             |
|     multi-core architectures or massively parallel machines. Do your        |
|     own testing! More info at https://www.vasp.at/wiki/index.php/NCORE      |
|     Unfortunately you need to use the default for GW and RPA                |
|     calculations (for HF NCORE is supported but not extensively tested      |
|     yet).                                                                   |
|                                                                             |
 -----------------------------------------------------------------------------

 -----------------------------------------------------------------------------
|                                                                             |
|               ----> ADVICE to this user running VASP <----                  |
|                                                                             |
|     You have a (more or less) 'large supercell' and for larger cells it     |
|     might be more efficient to use real-space projection operators.         |
|     Therefore, try LREAL= Auto in the INCAR file.                           |
|     Mind: If you want to do very accurate calculations, keep the            |
|     reciprocal projection scheme (i.e. LREAL=.FALSE.).                      |
|                                                                             |
 -----------------------------------------------------------------------------

 LDA part: xc-table for Pade appr. of Perdew
 POSCAR found type information on POSCAR Li
 POSCAR found :  1 types and     500 ions
 POSCAR, INCAR and KPOINTS ok, starting setup
 FFT: planning ...
 WAVECAR not read
 entering main loop
       N       E                     dE             d eps       ncg     rms          rms(c)
DAV:   1    -0.303766344483E+03   -0.30377E+03   -0.12122E+05  4008   0.656E+02
DAV:   2    -0.892890251052E+03   -0.58912E+03   -0.54015E+03  4604   0.671E+01
DAV:   3    -0.934290401182E+03   -0.41400E+02   -0.37655E+02  5160   0.140E+01
DAV:   4    -0.935683680695E+03   -0.13933E+01   -0.13710E+01  4632   0.280E+00
DAV:   5    -0.935714983679E+03   -0.31303E-01   -0.31255E-01  4792   0.449E-01    0.723E+00
DAV:   6    -0.934633977877E+03    0.10810E+01   -0.69188E+00  4616   0.344E+00    0.630E+00
DAV:   7    -0.929832828028E+03    0.48011E+01   -0.54236E+00  4656   0.334E+00    0.379E+00
DAV:   8    -0.928407522705E+03    0.14253E+01   -0.28756E+00  4544   0.165E+00    0.204E+00
DAV:   9    -0.928130364267E+03    0.27716E+00   -0.14171E+00  4376   0.985E-01    0.117E+00
DAV:  10    -0.928217396455E+03   -0.87032E-01   -0.34383E-01  4768   0.670E-01    0.116E+00
DAV:  11    -0.928055888102E+03    0.16151E+00   -0.17646E-01  4584   0.482E-01    0.492E-01
DAV:  12    -0.928053401359E+03    0.24867E-02   -0.52837E-02  4488   0.197E-01    0.271E-01
DAV:  13    -0.928052229834E+03    0.11715E-02   -0.17028E-02  4656   0.153E-01    0.210E-01
DAV:  14    -0.928048270854E+03    0.39590E-02   -0.48433E-03  4560   0.880E-02    0.986E-02
DAV:  15    -0.928047703824E+03    0.56703E-03   -0.16272E-03  4464   0.433E-02    0.511E-02
DAV:  16    -0.928047878889E+03   -0.17506E-03   -0.65752E-04  4640   0.314E-02    0.486E-02
DAV:  17    -0.928047528969E+03    0.34992E-03   -0.40479E-04  4584   0.236E-02    0.153E-02
DAV:  18    -0.928047514585E+03    0.14384E-04   -0.12679E-04  4336   0.924E-03    0.877E-03
DAV:  19    -0.928047509158E+03    0.54272E-05   -0.22572E-05  3184   0.542E-03
   1 F= -.92804751E+03 E0= -.92800002E+03  d E =-.949747E-01
