Li                                      
           1
    21.650000    0.000000    0.000000
     0.000000   21.650000    0.000000
    -0.000000   -0.000000   21.650000
   Li
   500
Direct configuration=     1
   0.00000508  0.99405453  0.00119727
   0.00602922  0.10438314  0.09988300
   0.98449748  0.19297924  0.19215187
   0.99734123  0.28822751  0.29238885
   0.00874198  0.40094300  0.40131583
   0.00941645  0.50001027  0.50815730
   0.01606318  0.59404578  0.60765441
   0.01593751  0.70085499  0.69263853
   0.00063866  0.80042330  0.78422988
   0.00335520  0.89661482  0.89727863
   0.11471926  0.99645909  0.10903967
   0.10597618  0.09928059  0.21733636
   0.10688564  0.20170381  0.30331428
   0.09690467  0.29734482  0.41882690
   0.09206907  0.39563723  0.49461578
   0.10058612  0.47704741  0.61698913
   0.10072951  0.59779687  0.70396646
   0.09518864  0.70698943  0.80335615
   0.08951386  0.80275785  0.90202350
   0.10605008  0.91042354  0.01344290
   0.19667567  0.99383084  0.20411091
   0.19086645  0.10657939  0.30000478
   0.18965212  0.20400481  0.40903664
   0.21259663  0.30278632  0.50523334
   0.20234919  0.39597313  0.60268149
   0.20640593  0.48979439  0.70795023
   0.21128188  0.61428893  0.80460267
   0.18902398  0.69683758  0.90913532
   0.19120813  0.79290740  0.99898055
   0.18880669  0.90364453  0.10101289
   0.27945979  0.00835465  0.29815433
   0.29550573  0.11450464  0.40995343
   0.30868881  0.18799161  0.50891863
   0.30253372  0.30858909  0.59151590
   0.31592945  0.39416270  0.71025599
   0.30012044  0.49088528  0.79636727
   0.30289258  0.60269086  0.91240748
   0.29680018  0.71336234  0.99884119
   0.28462785  0.79665665  0.11286594
   0.29145195  0.89657060  0.20845460
   0.40079551  0.00452126  0.38860782
   0.41968580  0.10062789  0.50271909
   0.41064054  0.19040974  0.61544922
   0.41322928  0.27916782  0.70371422
   0.40906935  0.37115110  0.78042183
   0.39409827  0.49269392  0.89201342
   0.39501270  0.59844417  0.98351404
   0.39530821  0.69643754  0.09974484
   0.38975249  0.80005834  0.18657308
   0.40622094  0.90129063  0.28612537
   0.49649900  0.99939271  0.49036385
   0.51216100  0.08663815  0.61593718
   0.50969497  0.18121992  0.71435215
   0.50411928  0.28326345  0.78097199
   0.51469035  0.40538285  0.88640935
   0.48008285  0.49804710  0.99777270
   0.49543282  0.59938528  0.10661777
   0.48765544  0.69856111  0.19013758
   0.48986259  0.79030185  0.27953696
   0.50596570  0.90672139  0.39034604
   0.60876686  0.99657749  0.60137767
   0.61399233  0.08438687  0.72337202
   0.61514368  0.20382557  0.80430424
   0.59985323  0.30639652  0.88759281
   0.59422982  0.41020706  0.00894460
   0.61694270  0.49064380  0.09196577
   0.58999722  0.59373007  0.19546914
   0.59459074  0.70992491  0.29334150
   0.59382316  0.78918760  0.39967766
   0.58706540  0.90319704  0.50430196
   0.71580415  0.98364046  0.68976838
   0.70617749  0.09566260  0.80494078
   0.70439827  0.20444351  0.88923485
   0.71106107  0.30387988  0.99519953
   0.72552928  0.40726123  0.10451473
   0.70458269  0.50766988  0.19650032
   0.70743898  0.59909149  0.29551966
   0.70175788  0.69925120  0.39846973
   0.68520332  0.78523160  0.48826689
   0.69977436  0.90477346  0.59838302
   0.79973005  0.99620837  0.81097229
   0.79856127  0.10134628  0.90422477
   0.80716748  0.20475999  0.99711252
   0.80659321  0.29983479  0.10643112
   0.80499135  0.39232571  0.21018033
   0.80774142  0.50309316  0.30839133
   0.78770092  0.59654227  0.39154242
   0.80370935  0.70590885  0.50633737
   0.80447556  0.78779821  0.59592135
   0.81192918  0.89801881  0.70560404
   0.90313512  0.00002624  0.90145209
   0.90229790  0.09160373  0.00575138
   0.89305990  0.20992406  0.09405048
   0.90279762  0.28515596  0.21428536
   0.90809257  0.40790787  0.29645135
   0.91236334  0.50412653  0.40585566
   0.90653027  0.61417175  0.50876100
   0.88938212  0.69901776  0.60911302
   0.89640387  0.78476825  0.69698305
   0.91365557  0.90362191  0.79135870
   0.11434770  0.09268860  0.99994451
   0.09852992  0.20526700  0.10834752
   0.09759827  0.30389997  0.21153529
   0.09835126  0.38788414  0.30328953
   0.11050377  0.48139074  0.39980996
   0.11081734  0.58593477  0.50036927
   0.10239582  0.70504952  0.60758442
   0.12161630  0.81616154  0.70394875
   0.10004215  0.90292777  0.80596196
   0.09129873  0.00894936  0.90969760
   0.20226196  0.10702937  0.10439778
   0.20469610  0.20128827  0.21538833
   0.19687176  0.30582813  0.31200090
   0.19750562  0.40737309  0.41872453
   0.20079411  0.48571902  0.51510827
   0.20535895  0.59872345  0.60028936
   0.19158910  0.70241611  0.71336596
   0.19785794  0.82176221  0.80528199
   0.19210050  0.89972054  0.90853564
   0.18652131  0.98711213  0.00411738
   0.31933911  0.10576439  0.20716877
   0.29988932  0.20796815  0.30733481
   0.30697902  0.30192750  0.40629800
   0.31034321  0.40017850  0.49840937
   0.30992841  0.49976807  0.60302180
   0.28221792  0.62366347  0.71630852
   0.30704257  0.73121298  0.80942343
   0.30684698  0.81346726  0.89594030
   0.29241533  0.89559721  0.00128512
   0.30317971  0.99273254  0.10448642
   0.39160058  0.11489342  0.30467151
   0.40960553  0.20442755  0.40572039
   0.41438784  0.29666833  0.49795792
   0.38940610  0.39364268  0.60412539
   0.39569656  0.50966336  0.70378483
   0.38774134  0.60525092  0.79774607
   0.40096423  0.70744418  0.90544600
   0.39294213  0.80030821  0.00495817
   0.40549315  0.90346655  0.09603181
   0.39813536  0.00517792  0.21022300
   0.50499645  0.09543616  0.40018885
   0.50553605  0.19018063  0.50653163
   0.49413680  0.28561281  0.59559786
   0.50065252  0.39959830  0.67975111
   0.49623334  0.49416852  0.78297854
   0.49518458  0.59937848  0.89391174
   0.49893252  0.69135054  0.00105670
   0.50127254  0.79842663  0.08757229
   0.49783874  0.89807459  0.19196586
   0.50928158  0.99733730  0.29454015
   0.59113250  0.09176235  0.49734068
   0.60833891  0.17892823  0.61341633
   0.59991795  0.29588678  0.71360441
   0.59091335  0.39922420  0.78997864
   0.60076467  0.50545411  0.88324683
   0.59679689  0.60003841  0.98357126
   0.60514266  0.69835493  0.08968963
   0.59702245  0.80050055  0.18380110
   0.59129028  0.88955824  0.29795639
   0.59714965  0.00317859  0.39720532
   0.70790527  0.10911986  0.61743519
   0.70845687  0.20493973  0.69692064
   0.70683651  0.29978542  0.79820425
   0.69756894  0.40028149  0.89050827
   0.71562813  0.49235449  0.99262143
   0.69516468  0.58383942  0.08818593
   0.68862990  0.68712237  0.19191056
   0.70965187  0.80555335  0.28738888
   0.70275241  0.89661015  0.39946123
   0.69525110  0.00539704  0.49598775
   0.78893464  0.08198107  0.70566637
   0.80139179  0.20230502  0.80461166
   0.81055913  0.29028282  0.89922660
   0.79947978  0.39050153  0.98947293
   0.81441507  0.49524031  0.09793430
   0.79179919  0.61224449  0.18448468
   0.80358908  0.70180305  0.29187100
   0.79743973  0.79334620  0.39911303
   0.79607331  0.89400206  0.50769553
   0.80960468  0.97949257  0.60809289
   0.90030065  0.09546861  0.81047557
   0.91253766  0.20043196  0.91440031
   0.89771478  0.31350758  0.99214674
   0.89715943  0.40353336  0.10892571
   0.90048784  0.50199150  0.19738841
   0.91324500  0.59646551  0.29569686
   0.89864858  0.70673999  0.40223438
   0.90782158  0.80219701  0.50463109
   0.90583381  0.89003397  0.60035306
   0.91516223  0.00296185  0.69670500
   0.99710280  0.09622219  0.90052201
   0.00743447  0.20008042  0.00663531
   0.99955737  0.30793783  0.10078266
   0.00738655  0.39674525  0.20928321
   0.00238549  0.49142847  0.30427460
   0.01159515  0.59299594  0.40927373
   0.02219953  0.68484311  0.50819059
   0.01692169  0.79992583  0.59934363
   0.99940326  0.88302942  0.68827252
   0.02071581  0.99621184  0.79649036
   0.19606657  0.20061903  0.99116900
   0.21235507  0.29709017  0.09694726
   0.18951970  0.40143921  0.19017032
   0.18017272  0.49625156  0.29462271
   0.19277443  0.59966539  0.39902220
   0.20108884  0.70561977  0.48536661
   0.19830112  0.80101896  0.58623278
   0.20171932  0.90693472  0.69925569
   0.18892128  0.00120521  0.80296449
   0.20274355  0.10217188  0.89914256
   0.30343714  0.20556494  0.10465228
   0.29929055  0.31195810  0.20647944
   0.27714764  0.38494854  0.30635249
   0.29014656  0.49208016  0.39560449
   0.31061586  0.59344076  0.49010719
   0.28270388  0.70132785  0.60044994
   0.27757393  0.82989297  0.70507622
   0.29637817  0.89595985  0.81352573
   0.29550063  0.98962962  0.90695008
   0.29308080  0.11207437  0.99547365
   0.40842051  0.21288329  0.20315732
   0.39506860  0.29773203  0.30145621
   0.39742521  0.40335285  0.40199300
   0.41285675  0.50501265  0.51183093
   0.40056244  0.60551909  0.59839354
   0.37583938  0.71267969  0.69599719
   0.39507918  0.80967693  0.80564973
   0.40681438  0.90054869  0.90829371
   0.41494223  0.00555820  0.98044531
   0.39954396  0.09190141  0.10534153
   0.49832123  0.20272179  0.28722516
   0.50652548  0.29022583  0.39736232
   0.49908955  0.38494746  0.49930131
   0.50780153  0.50735113  0.59548043
   0.49418866  0.60875259  0.70783155
   0.49389978  0.71092675  0.80231135
   0.50900601  0.80413085  0.91116377
   0.51819485  0.90207288  0.99829144
   0.49733684  0.00024028  0.09847881
   0.50082596  0.10904414  0.18896045
   0.59703762  0.19244049  0.39972531
   0.59615532  0.29701395  0.49978741
   0.60288249  0.40358415  0.59519098
   0.59679753  0.49675147  0.70232348
   0.60001890  0.60152370  0.79350277
   0.60813181  0.69629204  0.88469142
   0.61121197  0.79277299  0.99396495
   0.60513722  0.90124528  0.09306362
   0.58984643  0.99984940  0.19382054
   0.60673267  0.10160021  0.29358992
   0.69538969  0.19762965  0.50332531
   0.70403170  0.30380567  0.60178162
   0.70588393  0.40899563  0.70965115
   0.69909246  0.48799532  0.79967813
   0.71091983  0.58979906  0.87682824
   0.69456913  0.68686630  0.98955162
   0.69346293  0.79741224  0.09917977
   0.69590692  0.91297999  0.19134431
   0.69618253  0.01527855  0.29204287
   0.69820607  0.10036458  0.38790646
   0.80400339  0.19620942  0.61668141
   0.80174443  0.32439603  0.70350153
   0.81161519  0.39524053  0.81459872
   0.79922419  0.49057818  0.89245355
   0.79158740  0.58822280  0.98767625
   0.80083376  0.68927453  0.09356152
   0.80054637  0.79286808  0.20312714
   0.79829794  0.91021249  0.30415915
   0.78953334  0.00420239  0.39196612
   0.79644267  0.09080393  0.50127562
   0.88456460  0.20013328  0.71392080
   0.90208113  0.29964802  0.79127367
   0.91466747  0.39657348  0.89583614
   0.91770124  0.49261498  0.99422023
   0.90723907  0.60061170  0.09125530
   0.89616120  0.69187284  0.18922642
   0.90745583  0.80827444  0.28149949
   0.88116458  0.90480622  0.40180487
   0.90004252  0.98871109  0.49866750
   0.88691620  0.10194407  0.60998511
   0.00860845  0.19166395  0.78333905
   0.01578224  0.28974426  0.89132936
   0.01223259  0.39571674  0.99832328
   0.00450895  0.49344447  0.11176015
   0.99436911  0.60729339  0.20871669
   0.99073505  0.69375690  0.30329642
   0.00399669  0.79390586  0.40802768
   0.00059770  0.91123820  0.49080245
   0.00320332  0.00832277  0.59142417
   0.99399881  0.09213739  0.70197866
   0.08970412  0.18691711  0.90343295
   0.10782230  0.29930571  0.00200377
   0.10258293  0.40288619  0.09119272
   0.08196397  0.49572341  0.21118198
   0.09137840  0.58314222  0.31155946
   0.08417022  0.69826025  0.40394920
   0.10515974  0.81948500  0.49679898
   0.10729418  0.90360044  0.58978750
   0.10636182  0.99005913  0.68626246
   0.10697365  0.10503424  0.80323903
   0.28219156  0.30135434  0.99042862
   0.30012902  0.39483089  0.08240940
   0.29940001  0.48593269  0.19399508
   0.29701725  0.57711412  0.28448001
   0.29915221  0.69694666  0.39916721
   0.30308899  0.80638335  0.49229375
   0.30364115  0.90659835  0.59213343
   0.28913627  0.98609491  0.71253821
   0.28475773  0.10912018  0.80278468
   0.29592510  0.21352343  0.90448519
   0.38721529  0.30441805  0.09691366
   0.40831970  0.39859527  0.19725900
   0.40623536  0.47981861  0.29257955
   0.39777991  0.58621817  0.39259013
   0.40328278  0.71520981  0.50372562
   0.38992429  0.80151639  0.60259315
   0.41213741  0.90867831  0.70338420
   0.40281640  0.99987939  0.80890984
   0.39812892  0.10803928  0.90077920
   0.39653361  0.20703617  0.00814614
   0.49324909  0.31226124  0.18104600
   0.50249139  0.39328513  0.29729813
   0.49426294  0.50341257  0.39912513
   0.49791710  0.60712870  0.50132663
   0.49512661  0.71858694  0.60256777
   0.49621812  0.80554217  0.70741814
   0.49556076  0.89631774  0.80935425
   0.50602994  0.00375131  0.89786336
   0.51802626  0.10422513  0.00351431
   0.50161198  0.19524079  0.10419799
   0.59445191  0.29202611  0.29403220
   0.57491887  0.40146772  0.39666270
   0.59719915  0.51442784  0.49505079
   0.59338342  0.60281184  0.61722089
   0.59114424  0.71505272  0.69416354
   0.60126094  0.80806886  0.81630604
   0.60163435  0.90609782  0.91229166
   0.61124195  0.99986455  0.00787777
   0.60390652  0.09409414  0.10690244
   0.60172749  0.20180212  0.19336572
   0.68720897  0.32034490  0.39779713
   0.68451916  0.41950564  0.49862735
   0.69809297  0.51087325  0.58290613
   0.68373621  0.61724593  0.69723051
   0.69230759  0.71169098  0.80173598
   0.70072259  0.81043544  0.89698305
   0.70085915  0.89624235  0.99300629
   0.70870293  0.00493671  0.10787529
   0.70132619  0.09559194  0.19318058
   0.70464065  0.18488149  0.29998200
   0.79016472  0.29283264  0.50384723
   0.79619988  0.41914433  0.59698136
   0.80056425  0.51334674  0.71132931
   0.80438841  0.60391806  0.80495994
   0.79613899  0.71065712  0.90885903
   0.80650028  0.80374269  0.00720624
   0.79897985  0.88859833  0.10781629
   0.81991263  0.01074749  0.19315429
   0.81884629  0.10281243  0.30370505
   0.79809215  0.20975849  0.40807408
   0.88799095  0.29818339  0.60185102
   0.89679721  0.39403374  0.68681777
   0.89632412  0.50663943  0.79357482
   0.90249176  0.60247493  0.89271164
   0.89035992  0.69456963  0.01126608
   0.90433433  0.78955686  0.11063198
   0.90275873  0.89897381  0.18370503
   0.91342931  0.99801529  0.28883723
   0.89797110  0.08492834  0.40824806
   0.89760730  0.19789995  0.51134375
   0.98261615  0.31336264  0.70000664
   0.00723467  0.38621843  0.78557120
   0.99779495  0.50973679  0.87765074
   0.99799946  0.60893395  0.99296093
   0.00187176  0.69182589  0.10344286
   0.00288396  0.79790481  0.19992239
   0.99408934  0.89562073  0.31847096
   0.99493996  0.00772371  0.40474970
   0.99319838  0.11157679  0.50038398
   0.99975615  0.20695744  0.61699532
   0.10044847  0.28366252  0.80389091
   0.08405542  0.40252314  0.88703358
   0.09131253  0.49901326  0.99428808
   0.09913971  0.59624863  0.10700817
   0.09580884  0.69117844  0.21791543
   0.10505443  0.78825213  0.30937512
   0.10249646  0.90105668  0.40784506
   0.10023063  0.00702882  0.49392404
   0.10590087  0.09573035  0.59977152
   0.11165612  0.19956648  0.69145326
   0.18161005  0.29544404  0.89302901
   0.18884533  0.40964811  0.98085277
   0.19613055  0.50229446  0.08032583
   0.19888421  0.59161019  0.19701200
   0.19245559  0.68556886  0.30193476
   0.19353382  0.79478533  0.40306634
   0.21413373  0.90274255  0.48194374
   0.20884104  0.99578223  0.58566099
   0.19525129  0.09018318  0.69861611
   0.19473539  0.20156892  0.79141996
   0.40018532  0.40366283  0.00239823
   0.40704369  0.50270949  0.09577580
   0.38123365  0.58494218  0.19279423
   0.39214297  0.69544081  0.28391766
   0.39837625  0.80777207  0.38232516
   0.40169044  0.89610803  0.49067326
   0.41155527  0.00680543  0.60417703
   0.39786803  0.08728833  0.70985972
   0.39593384  0.19906366  0.80565859
   0.41659072  0.30055265  0.88994801
   0.49524524  0.39389618  0.09388712
   0.50576150  0.48695555  0.19123108
   0.48435024  0.59889796  0.28017938
   0.48646770  0.69716079  0.39823412
   0.49811836  0.79059210  0.48732038
   0.49847167  0.90678460  0.60182412
   0.51086462  0.00009571  0.71146770
   0.50612367  0.09985605  0.82078221
   0.50762099  0.19746433  0.90357560
   0.50745718  0.29563607  0.00885292
   0.61100549  0.40440079  0.21024478
   0.59537010  0.50342776  0.27976311
   0.58224944  0.61023701  0.36992397
   0.59766022  0.68988025  0.49794569
   0.58864100  0.79574338  0.59244486
   0.59716124  0.87691484  0.70227148
   0.62261362  0.98567412  0.80224609
   0.60570134  0.10403003  0.89740362
   0.61362629  0.21905612  0.00036072
   0.60914818  0.31633673  0.09228738
   0.70511714  0.40262363  0.29827261
   0.68256784  0.49922955  0.39073921
   0.68168211  0.60171816  0.50343161
   0.69133854  0.70025339  0.59231874
   0.69534054  0.80589782  0.71306779
   0.70986879  0.90059770  0.79341920
   0.70107057  0.99434447  0.89666783
   0.69594539  0.09995481  0.00071315
   0.70334858  0.21446014  0.09879424
   0.70280726  0.29632993  0.21341927
   0.80446493  0.39767842  0.40801507
   0.78715510  0.51253723  0.48718381
   0.79416628  0.60607332  0.59223956
   0.79124387  0.69542183  0.71633000
   0.81888797  0.79922632  0.80957964
   0.82096687  0.90082211  0.90703474
   0.80516227  0.00128255  0.99259093
   0.79551403  0.11978646  0.08402941
   0.80786682  0.18960547  0.20587327
   0.80384240  0.30456888  0.30712165
   0.89853473  0.39278473  0.49877086
   0.89651501  0.51906381  0.60366883
   0.89058873  0.61120015  0.68736636
   0.90341020  0.70690842  0.79289431
   0.92219900  0.80417848  0.89644502
   0.89505235  0.90255771  0.00803719
   0.89325367  0.00047875  0.09928146
   0.90113002  0.11243239  0.18845407
   0.89332564  0.21325948  0.32029455
   0.90638288  0.31086313  0.41180577
   0.99605653  0.39938149  0.59850376
   0.98562652  0.48112704  0.70084148
   0.98589123  0.62643158  0.78183612
   0.98356641  0.69797722  0.90064633
   0.00425508  0.80567582  0.02262305
   0.00849124  0.89224009  0.10540311
   0.99961365  0.01180008  0.21105875
   0.99597426  0.11580393  0.29710337
   0.99115092  0.20060124  0.41111050
   0.98814545  0.30170659  0.51586726
   0.09387501  0.39421926  0.71168853
   0.09137048  0.50164297  0.78964194
   0.08134463  0.59846263  0.89208812
   0.09328066  0.69583844  0.99369123
   0.10112669  0.78322683  0.10707675
   0.08820462  0.89956911  0.23270834
   0.10290035  0.00245040  0.30677538
   0.10075411  0.10983567  0.40835828
   0.07861507  0.21054337  0.51999843
   0.10096325  0.30694025  0.60379212
   0.19735153  0.40840176  0.80289477
   0.19499126  0.49528366  0.88856625
   0.19155448  0.59981696  0.99731190
   0.19713699  0.69847319  0.11334548
   0.19890821  0.81674178  0.21460329
   0.20139017  0.90332437  0.31359883
   0.20460122  0.01434375  0.41452121
   0.19330724  0.11310293  0.51235314
   0.20103552  0.22069287  0.60300847
   0.19753163  0.30117598  0.72110867
   0.30686642  0.39028877  0.89818372
   0.30632480  0.50245896  0.98792298
   0.29003635  0.59388736  0.08953903
   0.27837884  0.70653757  0.20906837
   0.29928259  0.78446217  0.29283417
   0.29931238  0.90633809  0.38837594
   0.31338074  0.99562791  0.50082980
   0.29163919  0.09097910  0.59298368
   0.28902178  0.19192264  0.69668657
   0.30006945  0.28782191  0.79098434
