 500 500   0   0
  0.2153794E+02  0.2208300E-08  0.2208300E-08  0.2208300E-08  0.5000000E-15
  1.000000000000000E-004
  CAR 
 Li                                      
      3.14832106     -3.49887738  301      0.23729435      1.00000000
     -3.499  0.0000E+00  0.0000E+00
     -3.477  0.0000E+00  0.0000E+00
     -3.455  0.0000E+00  0.0000E+00
     -3.432  0.0000E+00  0.0000E+00
     -3.410  0.0000E+00  0.0000E+00
     -3.388  0.0000E+00  0.0000E+00
     -3.366  0.6639E-13  0.1471E-14
     -3.344  0.1857E-09  0.4117E-11
     -3.322  0.1756E-06  0.3895E-08
     -3.299  0.5723E-04  0.1272E-05
     -3.277  0.6484E-02  0.1449E-03
     -3.255  0.2583E+00  0.5868E-02
     -3.233  0.3669E+01  0.8716E-01
     -3.211  0.1887E+02  0.5054E+00
     -3.189  0.3563E+02  0.1295E+01
     -3.167  0.2485E+02  0.1846E+01
     -3.144  0.6955E+01  0.2000E+01
     -3.122  0.8735E+01  0.2193E+01
     -3.100  0.4415E+02  0.3171E+01
     -3.078  0.9609E+02  0.5301E+01
     -3.056  0.8568E+02  0.7199E+01
     -3.034  0.3161E+02  0.7899E+01
     -3.011  0.9784E+01  0.8116E+01
     -2.989  0.3359E+02  0.8861E+01
     -2.967  0.8638E+02  0.1077E+02
     -2.945  0.9360E+02  0.1285E+02
     -2.923  0.4340E+02  0.1381E+02
     -2.901  0.1368E+02  0.1411E+02
     -2.878  0.3470E+02  0.1488E+02
     -2.856  0.9447E+02  0.1698E+02
     -2.834  0.1233E+03  0.1971E+02
     -2.812  0.7804E+02  0.2144E+02
     -2.790  0.2957E+02  0.2209E+02
     -2.768  0.4294E+02  0.2304E+02
     -2.746  0.1141E+03  0.2557E+02
     -2.723  0.1684E+03  0.2930E+02
     -2.701  0.1358E+03  0.3231E+02
     -2.679  0.6162E+02  0.3367E+02
     -2.657  0.2415E+02  0.3421E+02
     -2.635  0.4551E+02  0.3522E+02
     -2.613  0.8807E+02  0.3717E+02
     -2.590  0.8393E+02  0.3903E+02
     -2.568  0.3851E+02  0.3988E+02
     -2.546  0.2433E+02  0.4042E+02
     -2.524  0.7286E+02  0.4204E+02
     -2.502  0.1477E+03  0.4531E+02
     -2.480  0.1655E+03  0.4898E+02
     -2.457  0.1041E+03  0.5128E+02
     -2.435  0.5200E+02  0.5243E+02
     -2.413  0.8631E+02  0.5435E+02
     -2.391  0.1718E+03  0.5815E+02
     -2.369  0.2190E+03  0.6300E+02
     -2.347  0.1839E+03  0.6708E+02
     -2.325  0.9939E+02  0.6928E+02
     -2.302  0.4061E+02  0.7018E+02
     -2.280  0.5297E+02  0.7136E+02
     -2.258  0.9178E+02  0.7339E+02
     -2.236  0.7964E+02  0.7515E+02
     -2.214  0.3610E+02  0.7595E+02
     -2.192  0.3584E+02  0.7675E+02
     -2.169  0.1048E+03  0.7907E+02
     -2.147  0.1831E+03  0.8313E+02
     -2.125  0.1800E+03  0.8712E+02
     -2.103  0.1033E+03  0.8940E+02
     -2.081  0.5668E+02  0.9066E+02
     -2.059  0.1030E+03  0.9294E+02
     -2.036  0.1877E+03  0.9710E+02
     -2.014  0.2210E+03  0.1020E+03
     -1.992  0.1721E+03  0.1058E+03
     -1.970  0.8451E+02  0.1077E+03
     -1.948  0.5249E+02  0.1088E+03
     -1.926  0.1048E+03  0.1112E+03
     -1.904  0.1625E+03  0.1148E+03
     -1.881  0.1470E+03  0.1180E+03
     -1.859  0.8726E+02  0.1200E+03
     -1.837  0.8385E+02  0.1218E+03
     -1.815  0.1518E+03  0.1252E+03
     -1.793  0.2061E+03  0.1297E+03
     -1.771  0.1949E+03  0.1341E+03
     -1.748  0.1296E+03  0.1369E+03
     -1.726  0.7807E+02  0.1387E+03
     -1.704  0.1171E+03  0.1413E+03
     -1.682  0.1995E+03  0.1457E+03
     -1.660  0.2261E+03  0.1507E+03
     -1.638  0.1612E+03  0.1543E+03
     -1.616  0.7934E+02  0.1560E+03
     -1.593  0.7165E+02  0.1576E+03
     -1.571  0.1241E+03  0.1604E+03
     -1.549  0.1561E+03  0.1638E+03
     -1.527  0.1256E+03  0.1666E+03
     -1.505  0.7214E+02  0.1682E+03
     -1.483  0.7632E+02  0.1699E+03
     -1.460  0.1235E+03  0.1726E+03
     -1.438  0.1459E+03  0.1759E+03
     -1.416  0.1223E+03  0.1786E+03
     -1.394  0.8955E+02  0.1806E+03
     -1.372  0.1312E+03  0.1835E+03
     -1.350  0.2304E+03  0.1886E+03
     -1.327  0.3022E+03  0.1953E+03
     -1.305  0.3054E+03  0.2020E+03
     -1.283  0.2281E+03  0.2071E+03
     -1.261  0.1381E+03  0.2101E+03
     -1.239  0.1362E+03  0.2132E+03
     -1.217  0.1981E+03  0.2176E+03
     -1.195  0.2171E+03  0.2224E+03
     -1.172  0.1650E+03  0.2260E+03
     -1.150  0.9053E+02  0.2280E+03
     -1.128  0.7897E+02  0.2298E+03
     -1.106  0.1357E+03  0.2328E+03
     -1.084  0.1872E+03  0.2369E+03
     -1.062  0.1696E+03  0.2407E+03
     -1.039  0.1407E+03  0.2438E+03
     -1.017  0.1803E+03  0.2478E+03
     -0.995  0.2358E+03  0.2530E+03
     -0.973  0.2442E+03  0.2584E+03
     -0.951  0.1928E+03  0.2627E+03
     -0.929  0.1104E+03  0.2651E+03
     -0.906  0.5596E+02  0.2664E+03
     -0.884  0.6216E+02  0.2678E+03
     -0.862  0.8554E+02  0.2697E+03
     -0.840  0.8168E+02  0.2715E+03
     -0.818  0.8667E+02  0.2734E+03
     -0.796  0.1587E+03  0.2769E+03
     -0.774  0.2478E+03  0.2824E+03
     -0.751  0.2894E+03  0.2888E+03
     -0.729  0.2852E+03  0.2951E+03
     -0.707  0.2543E+03  0.3008E+03
     -0.685  0.2227E+03  0.3057E+03
     -0.663  0.2181E+03  0.3105E+03
     -0.641  0.2567E+03  0.3162E+03
     -0.618  0.2881E+03  0.3226E+03
     -0.596  0.2546E+03  0.3282E+03
     -0.574  0.1918E+03  0.3325E+03
     -0.552  0.1471E+03  0.3358E+03
     -0.530  0.1309E+03  0.3387E+03
     -0.508  0.1360E+03  0.3417E+03
     -0.485  0.1343E+03  0.3446E+03
     -0.463  0.1516E+03  0.3480E+03
     -0.441  0.1918E+03  0.3523E+03
     -0.419  0.2107E+03  0.3569E+03
     -0.397  0.2025E+03  0.3614E+03
     -0.375  0.1736E+03  0.3653E+03
     -0.353  0.1472E+03  0.3685E+03
     -0.330  0.1786E+03  0.3725E+03
     -0.308  0.2535E+03  0.3781E+03
     -0.286  0.2967E+03  0.3847E+03
     -0.264  0.2800E+03  0.3909E+03
     -0.242  0.2265E+03  0.3959E+03
     -0.220  0.1890E+03  0.4001E+03
     -0.197  0.1943E+03  0.4044E+03
     -0.175  0.2056E+03  0.4089E+03
     -0.153  0.1814E+03  0.4130E+03
     -0.131  0.1416E+03  0.4161E+03
     -0.109  0.1494E+03  0.4194E+03
     -0.087  0.2048E+03  0.4239E+03
     -0.064  0.2543E+03  0.4296E+03
     -0.042  0.2648E+03  0.4354E+03
     -0.020  0.2466E+03  0.4409E+03
      0.002  0.2185E+03  0.4457E+03
      0.024  0.2112E+03  0.4504E+03
      0.046  0.2235E+03  0.4554E+03
      0.068  0.2166E+03  0.4602E+03
      0.091  0.1912E+03  0.4644E+03
      0.113  0.1783E+03  0.4684E+03
      0.135  0.2119E+03  0.4731E+03
      0.157  0.2619E+03  0.4789E+03
      0.179  0.2766E+03  0.4850E+03
      0.201  0.2628E+03  0.4908E+03
      0.224  0.2581E+03  0.4965E+03
      0.246  0.2480E+03  0.5020E+03
      0.268  0.2211E+03  0.5069E+03
      0.290  0.2095E+03  0.5116E+03
      0.312  0.2242E+03  0.5165E+03
      0.334  0.2449E+03  0.5220E+03
      0.356  0.2715E+03  0.5280E+03
      0.379  0.3023E+03  0.5347E+03
      0.401  0.3211E+03  0.5418E+03
      0.423  0.3226E+03  0.5489E+03
      0.445  0.3179E+03  0.5560E+03
      0.467  0.3122E+03  0.5629E+03
      0.489  0.3076E+03  0.5697E+03
      0.512  0.2998E+03  0.5764E+03
      0.534  0.2829E+03  0.5826E+03
      0.556  0.2585E+03  0.5883E+03
      0.578  0.2359E+03  0.5936E+03
      0.600  0.2195E+03  0.5984E+03
      0.622  0.2113E+03  0.6031E+03
      0.645  0.2040E+03  0.6076E+03
      0.667  0.1961E+03  0.6120E+03
      0.689  0.1895E+03  0.6162E+03
      0.711  0.1834E+03  0.6202E+03
      0.733  0.1800E+03  0.6242E+03
      0.755  0.1765E+03  0.6281E+03
      0.777  0.1687E+03  0.6319E+03
      0.800  0.1699E+03  0.6356E+03
      0.822  0.1914E+03  0.6399E+03
      0.844  0.2205E+03  0.6448E+03
      0.866  0.2387E+03  0.6501E+03
      0.888  0.2499E+03  0.6556E+03
      0.910  0.2683E+03  0.6615E+03
      0.933  0.2790E+03  0.6677E+03
      0.955  0.2682E+03  0.6737E+03
      0.977  0.2595E+03  0.6794E+03
      0.999  0.2607E+03  0.6852E+03
      1.021  0.2642E+03  0.6911E+03
      1.043  0.2624E+03  0.6969E+03
      1.066  0.2498E+03  0.7024E+03
      1.088  0.2313E+03  0.7075E+03
      1.110  0.2217E+03  0.7124E+03
      1.132  0.2204E+03  0.7173E+03
      1.154  0.2196E+03  0.7222E+03
      1.176  0.2224E+03  0.7271E+03
      1.198  0.2223E+03  0.7320E+03
      1.221  0.2266E+03  0.7371E+03
      1.243  0.2328E+03  0.7422E+03
      1.265  0.2327E+03  0.7474E+03
      1.287  0.2225E+03  0.7523E+03
      1.309  0.2039E+03  0.7568E+03
      1.331  0.1903E+03  0.7610E+03
      1.354  0.1860E+03  0.7652E+03
      1.376  0.1754E+03  0.7691E+03
      1.398  0.1657E+03  0.7727E+03
      1.420  0.1645E+03  0.7764E+03
      1.442  0.1569E+03  0.7798E+03
      1.464  0.1441E+03  0.7830E+03
      1.487  0.1380E+03  0.7861E+03
      1.509  0.1456E+03  0.7893E+03
      1.531  0.1562E+03  0.7928E+03
      1.553  0.1592E+03  0.7963E+03
      1.575  0.1696E+03  0.8001E+03
      1.597  0.1853E+03  0.8042E+03
      1.619  0.1987E+03  0.8086E+03
      1.642  0.2099E+03  0.8132E+03
      1.664  0.2175E+03  0.8180E+03
      1.686  0.2250E+03  0.8230E+03
      1.708  0.2313E+03  0.8282E+03
      1.730  0.2389E+03  0.8334E+03
      1.752  0.2370E+03  0.8387E+03
      1.775  0.2236E+03  0.8437E+03
      1.797  0.2031E+03  0.8482E+03
      1.819  0.1751E+03  0.8520E+03
      1.841  0.1573E+03  0.8555E+03
      1.863  0.1656E+03  0.8592E+03
      1.885  0.1697E+03  0.8629E+03
      1.908  0.1535E+03  0.8663E+03
      1.930  0.1317E+03  0.8693E+03
      1.952  0.1284E+03  0.8721E+03
      1.974  0.1421E+03  0.8753E+03
      1.996  0.1576E+03  0.8788E+03
      2.018  0.1675E+03  0.8825E+03
      2.040  0.1648E+03  0.8861E+03
      2.063  0.1676E+03  0.8898E+03
      2.085  0.1727E+03  0.8937E+03
      2.107  0.1678E+03  0.8974E+03
      2.129  0.1610E+03  0.9009E+03
      2.151  0.1574E+03  0.9044E+03
      2.173  0.1480E+03  0.9077E+03
      2.196  0.1368E+03  0.9107E+03
      2.218  0.1334E+03  0.9137E+03
      2.240  0.1475E+03  0.9170E+03
      2.262  0.1735E+03  0.9208E+03
      2.284  0.1830E+03  0.9249E+03
      2.306  0.1626E+03  0.9285E+03
      2.328  0.1465E+03  0.9317E+03
      2.351  0.1511E+03  0.9351E+03
      2.373  0.1511E+03  0.9384E+03
      2.395  0.1329E+03  0.9414E+03
      2.417  0.1205E+03  0.9440E+03
      2.439  0.1260E+03  0.9468E+03
      2.461  0.1369E+03  0.9498E+03
      2.484  0.1418E+03  0.9530E+03
      2.506  0.1572E+03  0.9565E+03
      2.528  0.1668E+03  0.9602E+03
      2.550  0.1663E+03  0.9639E+03
      2.572  0.1677E+03  0.9676E+03
      2.594  0.1615E+03  0.9711E+03
      2.617  0.1568E+03  0.9746E+03
      2.639  0.1531E+03  0.9780E+03
      2.661  0.1456E+03  0.9812E+03
      2.683  0.1401E+03  0.9843E+03
      2.705  0.1110E+03  0.9868E+03
      2.727  0.7493E+02  0.9885E+03
      2.749  0.7885E+02  0.9902E+03
      2.772  0.1059E+03  0.9926E+03
      2.794  0.1272E+03  0.9954E+03
      2.816  0.1234E+03  0.9981E+03
      2.838  0.9706E+02  0.1000E+04
      2.860  0.5691E+02  0.1002E+04
      2.882  0.1860E+02  0.1002E+04
      2.905  0.2706E+01  0.1002E+04
      2.927  0.1567E+00  0.1002E+04
      2.949  0.3409E-02  0.1002E+04
      2.971  0.2691E-04  0.1002E+04
      2.993  0.7537E-07  0.1002E+04
      3.015  0.7388E-10  0.1002E+04
      3.038  0.2756E-13  0.1002E+04
      3.060  0.0000E+00  0.1002E+04
      3.082  0.0000E+00  0.1002E+04
      3.104  0.0000E+00  0.1002E+04
      3.126  0.0000E+00  0.1002E+04
      3.148  0.0000E+00  0.1002E+04
