       N       E                     dE             d eps       ncg     rms          rms(c)
DAV:   1    -0.299679242889E+03   -0.29968E+03   -0.11956E+05  4008   0.651E+02
DAV:   2    -0.878593121371E+03   -0.57891E+03   -0.53061E+03  4604   0.655E+01
DAV:   3    -0.920526440365E+03   -0.41933E+02   -0.38290E+02  5192   0.139E+01
DAV:   4    -0.921978815900E+03   -0.14524E+01   -0.14306E+01  4688   0.283E+00
DAV:   5    -0.922013321544E+03   -0.34506E-01   -0.34441E-01  4888   0.458E-01    0.864E+00
DAV:   6    -0.918524527222E+03    0.34888E+01   -0.91597E+00  4664   0.397E+00    0.696E+00
DAV:   7    -0.913317374435E+03    0.52072E+01   -0.81759E+00  4872   0.395E+00    0.456E+00
DAV:   8    -0.911084656337E+03    0.22327E+01   -0.44256E+00  4640   0.218E+00    0.252E+00
DAV:   9    -0.910547730195E+03    0.53693E+00   -0.25609E+00  4464   0.127E+00    0.122E+00
DAV:  10    -0.910663568466E+03   -0.11584E+00   -0.61430E-01  4832   0.797E-01    0.122E+00
DAV:  11    -0.910490523492E+03    0.17304E+00   -0.28479E-01  4672   0.552E-01    0.540E-01
DAV:  12    -0.910484785873E+03    0.57376E-02   -0.72063E-02  4400   0.222E-01    0.295E-01
DAV:  13    -0.910483629586E+03    0.11563E-02   -0.20303E-02  4560   0.142E-01    0.190E-01
DAV:  14    -0.910483023622E+03    0.60596E-03   -0.61978E-03  4832   0.999E-02    0.147E-01
DAV:  15    -0.910480596342E+03    0.24273E-02   -0.23388E-03  4600   0.602E-02    0.570E-02
DAV:  16    -0.910480682338E+03   -0.85996E-04   -0.10486E-03  4632   0.315E-02    0.407E-02
DAV:  17    -0.910480497059E+03    0.18528E-03   -0.46068E-04  4624   0.231E-02    0.205E-02
DAV:  18    -0.910480466595E+03    0.30464E-04   -0.98685E-05  4488   0.101E-02    0.120E-02
DAV:  19    -0.910480451405E+03    0.15191E-04   -0.34522E-05  3872   0.586E-03    0.605E-03
DAV:  20    -0.910480450067E+03    0.13380E-05   -0.10290E-05  2616   0.382E-03
   1 F= -.91048045E+03 E0= -.91042508E+03  d E =-.110744E+00
