Li                                      
           1
    22.083000   -0.000000    0.000000
    -0.000000   22.083000    0.000000
     0.000000    0.000000   22.083000
   Li
   500
Direct configuration=     1
   0.00712781  0.01175444  0.99583809
   0.00314708  0.10146686  0.09965499
   0.99975493  0.20492293  0.22810104
   0.98610492  0.29723630  0.32542935
   0.98388379  0.40135684  0.43151924
   0.00405746  0.51715300  0.50164977
   0.02437549  0.59115872  0.59243717
   0.99838114  0.71206203  0.68462435
   0.98461029  0.81973046  0.81419858
   0.98189199  0.89929454  0.89778151
   0.09114366  0.00384813  0.10314210
   0.10689691  0.09521319  0.21461991
   0.11114505  0.19509476  0.30931130
   0.10154302  0.30541697  0.41489505
   0.12528156  0.39206131  0.51278161
   0.11742465  0.49479976  0.60840508
   0.08708715  0.59714482  0.72028491
   0.08971192  0.71632898  0.79130266
   0.08872839  0.80855254  0.89457905
   0.10241508  0.89944941  0.99508819
   0.19651100  0.98503083  0.19829032
   0.20608476  0.08241094  0.31790935
   0.21835983  0.19247221  0.41702412
   0.22191518  0.30325742  0.52019505
   0.20968818  0.38491245  0.60808201
   0.20538210  0.50004234  0.68936239
   0.19473578  0.60920654  0.78721142
   0.20214198  0.71898207  0.90265610
   0.18963310  0.80910069  0.99820629
   0.19668674  0.89782744  0.10000077
   0.30558881  0.96949345  0.31468782
   0.28236099  0.09413939  0.41331863
   0.32003244  0.19824610  0.53135110
   0.32133915  0.30897516  0.62804096
   0.30700560  0.39109121  0.67598468
   0.29989409  0.50012368  0.78576681
   0.28455101  0.59081501  0.90361118
   0.29267713  0.71504232  0.96489679
   0.30970674  0.78776855  0.09258647
   0.31412196  0.89325562  0.18937324
   0.40026616  0.02381313  0.38613995
   0.39890725  0.08598754  0.50748211
   0.40195969  0.18289492  0.62950483
   0.43412655  0.29771253  0.71333064
   0.38851514  0.41138189  0.80838691
   0.40147811  0.49652684  0.90020092
   0.38497332  0.60065708  0.98665967
   0.36515474  0.67491684  0.07576275
   0.40989558  0.77511807  0.18209660
   0.40419832  0.89383568  0.29893927
   0.50108376  0.00671752  0.49426305
   0.52177958  0.09020486  0.61187348
   0.51616646  0.17813869  0.68357423
   0.52029380  0.31579675  0.81264977
   0.50160399  0.41105740  0.91588269
   0.50144180  0.50879046  0.01688583
   0.48410813  0.60017965  0.09816501
   0.49088037  0.69277175  0.17718595
   0.52011462  0.78786996  0.27823226
   0.50028011  0.89567137  0.39374617
   0.58012130  0.98229582  0.59555392
   0.60756059  0.09894185  0.72264790
   0.59654360  0.19753073  0.81918109
   0.60946971  0.32271615  0.90402164
   0.58513392  0.40114046  0.02939135
   0.61218197  0.49973131  0.11988931
   0.60487733  0.60472594  0.19299935
   0.61190352  0.69669136  0.27909505
   0.59923386  0.79313274  0.38984086
   0.58191376  0.88401961  0.48718059
   0.69415698  0.98142841  0.68687765
   0.69417360  0.09669450  0.79393514
   0.70620877  0.21441166  0.90703828
   0.70820071  0.30324614  0.01785730
   0.69668927  0.39432607  0.10184094
   0.70659540  0.50629901  0.17469530
   0.70814507  0.62813624  0.28913047
   0.68857019  0.69007261  0.39407439
   0.68643186  0.78671815  0.51125117
   0.67027159  0.86736125  0.60662323
   0.80249911  0.02158480  0.82066221
   0.79022703  0.10272365  0.91521206
   0.81202200  0.19173630  0.00607038
   0.81301013  0.28447193  0.12312956
   0.80594095  0.40142683  0.21764999
   0.80658805  0.51338524  0.29532612
   0.82454977  0.60857195  0.39800385
   0.80711484  0.70895139  0.48910647
   0.78987979  0.80663903  0.60847368
   0.79910546  0.89883024  0.69060230
   0.88893955  0.02749116  0.91344789
   0.91079966  0.12824610  0.99037233
   0.90871692  0.20621187  0.11745663
   0.88449143  0.30260744  0.24297887
   0.90760343  0.40895811  0.31605219
   0.89806316  0.50989165  0.38613638
   0.90595532  0.58724775  0.48559506
   0.91812296  0.68852048  0.58857438
   0.89283171  0.79877204  0.69385531
   0.87704814  0.92289667  0.78602210
   0.09237008  0.08344421  0.00088044
   0.08422631  0.20280739  0.10820576
   0.08402656  0.29986225  0.22101658
   0.11287789  0.39787512  0.31940056
   0.10692537  0.49854860  0.41452179
   0.10647732  0.62150572  0.51618132
   0.10855951  0.71702657  0.61907290
   0.08801073  0.81639101  0.71206010
   0.09590800  0.91188311  0.81382228
   0.10424224  0.99206118  0.90499932
   0.20223469  0.11109793  0.11238219
   0.18203842  0.23648171  0.19133286
   0.21287356  0.30874458  0.31349959
   0.22168751  0.39759961  0.40352578
   0.22353369  0.48016930  0.50152609
   0.21432642  0.60490883  0.60968019
   0.19699176  0.70495651  0.70649463
   0.20778915  0.81508532  0.81405498
   0.19916444  0.91333278  0.91016644
   0.19279957  0.01796832  0.02293436
   0.29247986  0.11459622  0.22058091
   0.27469876  0.20981535  0.29400333
   0.30211934  0.29092307  0.41153773
   0.34366550  0.38355747  0.50645164
   0.29206681  0.50784385  0.58814129
   0.31920471  0.61926557  0.69203555
   0.27992550  0.71238285  0.80644884
   0.30649635  0.83727431  0.91801345
   0.29541481  0.90549513  0.01386276
   0.29649681  0.01783012  0.11063199
   0.38025660  0.10729264  0.30599670
   0.37426303  0.19024289  0.39160473
   0.40470938  0.26844306  0.50558165
   0.42769778  0.41764296  0.59095678
   0.39976049  0.53140918  0.68905987
   0.39185443  0.60395051  0.80405484
   0.39740848  0.70863261  0.89589843
   0.40320027  0.82054333  0.99730222
   0.39235804  0.91616282  0.10759561
   0.40438998  0.01306968  0.19779471
   0.49264823  0.10811148  0.39822518
   0.49852711  0.18179696  0.50128203
   0.49670212  0.30125917  0.60844034
   0.51946822  0.40772689  0.71043658
   0.48999989  0.50710759  0.80082777
   0.50767590  0.60603420  0.91829997
   0.49540400  0.70758348  0.01510247
   0.48367012  0.80850450  0.09138584
   0.52478111  0.89672821  0.20196251
   0.50458673  0.00232324  0.29612044
   0.60211574  0.09709928  0.47808660
   0.60467587  0.18577936  0.59715147
   0.59805321  0.28524428  0.69765189
   0.60405387  0.40280093  0.81555997
   0.61882756  0.48447747  0.90717378
   0.59662053  0.58965217  0.02369326
   0.59057792  0.71234315  0.09267856
   0.59478998  0.79395104  0.18621915
   0.60656077  0.89950269  0.29387342
   0.60153996  0.98763616  0.40965122
   0.68370233  0.10488871  0.58934871
   0.70244568  0.19605962  0.68222296
   0.71316972  0.28887958  0.80945306
   0.71651596  0.40494244  0.91321641
   0.69343962  0.48405704  0.03573128
   0.70395328  0.62464391  0.09154293
   0.69428858  0.72189039  0.18300289
   0.70317121  0.78021184  0.29352674
   0.68771030  0.87653036  0.40753302
   0.68867434  0.99010791  0.50170218
   0.79547423  0.11620822  0.66815102
   0.77315889  0.18327068  0.79510293
   0.78803891  0.28927115  0.89684390
   0.81953953  0.38691564  0.02010408
   0.80302977  0.51260753  0.09579112
   0.79005526  0.60648393  0.20361584
   0.80261917  0.71881277  0.29149675
   0.79175140  0.79452551  0.38817067
   0.79311164  0.88223932  0.51990600
   0.78112511  0.00224662  0.58304965
   0.91516535  0.10748449  0.79601046
   0.90489391  0.18336332  0.88447855
   0.91205686  0.27479016  0.98868261
   0.88954234  0.38246576  0.10057646
   0.89225349  0.49726370  0.22963774
   0.91162892  0.61173704  0.30246120
   0.91516742  0.69690311  0.39754382
   0.90774372  0.81310031  0.50661692
   0.89473073  0.91125697  0.61280874
   0.91139722  0.00447296  0.68504638
   0.99282701  0.11186654  0.90607526
   0.00890078  0.20793552  0.99875747
   0.99321590  0.31389067  0.12401155
   0.99757435  0.39225930  0.21615888
   0.99986467  0.49769122  0.32213875
   0.01509051  0.60437087  0.39587535
   0.99354453  0.69534574  0.51105383
   0.98753612  0.81216236  0.58159707
   0.00198765  0.88051590  0.70203578
   0.98463546  0.99558459  0.80299992
   0.17496674  0.20055855  0.01003599
   0.18972574  0.31275789  0.09418230
   0.21003335  0.40006825  0.19469562
   0.21838328  0.49030861  0.30616815
   0.19162912  0.59176827  0.38746483
   0.18737515  0.69163599  0.48424096
   0.21680133  0.78729711  0.59886591
   0.20206818  0.90378528  0.71096525
   0.21793062  0.99484248  0.78379435
   0.19139866  0.09933685  0.90106080
   0.28053746  0.19862065  0.10323811
   0.29948783  0.31549273  0.20746492
   0.29189463  0.40872621  0.31228627
   0.33601750  0.51174479  0.39443370
   0.30442591  0.61164176  0.47962154
   0.31709865  0.68000047  0.59596244
   0.30544145  0.78382964  0.69981527
   0.30650875  0.90973891  0.79949338
   0.28124788  0.99835994  0.90392280
   0.28666402  0.11098439  0.00698453
   0.38795028  0.20988955  0.20792236
   0.38242071  0.29912679  0.31329307
   0.40773772  0.40444887  0.41092207
   0.42078328  0.52055509  0.48341966
   0.40900511  0.60259121  0.58439210
   0.39246846  0.71211777  0.71598107
   0.38518365  0.80996489  0.82460867
   0.42310748  0.92501352  0.91808220
   0.41256261  0.00143123  0.01614328
   0.39353220  0.10817515  0.12860012
   0.50447231  0.20203895  0.29992771
   0.49228545  0.28272352  0.40192048
   0.49036360  0.39793181  0.48693629
   0.50288763  0.50620990  0.60371923
   0.50039701  0.62586764  0.69511003
   0.50576561  0.70842696  0.79197139
   0.51431922  0.78250974  0.90641617
   0.51456237  0.89730882  0.98276088
   0.50722487  0.99928160  0.10847120
   0.50024374  0.10286728  0.21573795
   0.61075400  0.22147998  0.39954490
   0.58165248  0.31033390  0.50628793
   0.59014906  0.38668674  0.58680023
   0.60324206  0.49756210  0.68278062
   0.59831494  0.59888228  0.79784878
   0.61532055  0.69241159  0.89464999
   0.61897196  0.80366667  0.00087902
   0.63222362  0.89297889  0.08428212
   0.60301525  0.00071281  0.21093575
   0.60938759  0.10899833  0.31796774
   0.67940408  0.21489066  0.49225864
   0.68250612  0.28829383  0.60153428
   0.68156021  0.39330966  0.70456762
   0.70626021  0.49788497  0.79579826
   0.70162297  0.59129591  0.90543525
   0.71416497  0.69252632  0.00279914
   0.69736425  0.78353076  0.08275267
   0.69537729  0.88565962  0.19537936
   0.67612355  0.98561432  0.30211824
   0.69877592  0.09850838  0.38186481
   0.79979174  0.19728480  0.58437829
   0.80045619  0.30063356  0.68750804
   0.79480290  0.39368087  0.78837132
   0.80321782  0.49194727  0.91960126
   0.80507254  0.60950697  0.00630473
   0.82647117  0.71097485  0.09195555
   0.81928054  0.80239851  0.22273351
   0.78136865  0.88487607  0.31120856
   0.80777922  0.99542111  0.42562481
   0.78627094  0.10542095  0.50435235
   0.88743456  0.19445450  0.66853170
   0.90314825  0.28566843  0.78090685
   0.88005799  0.37157866  0.88287959
   0.90786322  0.47960067  0.99825049
   0.91762644  0.60342490  0.09970140
   0.92017094  0.69124852  0.19292465
   0.92181881  0.79897671  0.29201028
   0.89593381  0.89798272  0.39637660
   0.90338900  0.99093722  0.50196175
   0.89578637  0.09586633  0.58160161
   0.03175221  0.17823570  0.77839576
   0.00182213  0.29742099  0.87581207
   0.98976876  0.39316882  0.96460860
   0.02594975  0.49126707  0.09574253
   0.99849589  0.58664558  0.18724919
   0.99289989  0.69860159  0.27182244
   0.02584869  0.79395862  0.40494500
   0.00666916  0.89402159  0.49488240
   0.00530632  0.00003716  0.58628654
   0.02029326  0.10253798  0.69504615
   0.09381945  0.19559054  0.88682677
   0.09119988  0.30159721  0.99490220
   0.08959045  0.40879701  0.09134288
   0.10462890  0.49864786  0.21208686
   0.10150566  0.58870143  0.30187005
   0.11593993  0.69847569  0.39724974
   0.09810510  0.79044146  0.50907192
   0.10102389  0.89052912  0.58977094
   0.08779805  0.96475736  0.69911138
   0.08922595  0.07654771  0.81099297
   0.27910326  0.28028708  0.99692563
   0.29414474  0.40212548  0.09204662
   0.30279632  0.50284046  0.18870858
   0.31278165  0.60974001  0.29536254
   0.28246528  0.71429382  0.37746965
   0.29852399  0.77814107  0.51154613
   0.29072048  0.90317972  0.62546556
   0.31198566  0.99536172  0.69699141
   0.31674700  0.09664201  0.80148361
   0.28606448  0.19927842  0.89678340
   0.39340729  0.31041322  0.07578774
   0.38500293  0.39365850  0.19462137
   0.39363759  0.48370379  0.29801738
   0.44084701  0.61842683  0.37967966
   0.39629165  0.69104777  0.47303319
   0.39206322  0.79596877  0.58829544
   0.40671876  0.89198740  0.70820383
   0.40692648  0.99522380  0.80469559
   0.38991230  0.11048252  0.90574032
   0.40676953  0.19145707  0.98643566
   0.48171997  0.30231348  0.21277894
   0.50416289  0.41711391  0.30072250
   0.49895803  0.51408819  0.38573090
   0.50276003  0.62499528  0.50823172
   0.47848830  0.70100324  0.60306311
   0.48928252  0.77483307  0.69697207
   0.49989963  0.88575509  0.81336162
   0.49980865  0.02197682  0.91680304
   0.48171100  0.09427493  0.02580337
   0.48877936  0.19728127  0.09448315
   0.60606082  0.30203898  0.29561983
   0.59227517  0.40293241  0.39708999
   0.58869318  0.51304381  0.48023869
   0.60722519  0.62288707  0.61057617
   0.62535840  0.71146997  0.69792599
   0.60941968  0.78627955  0.79871909
   0.61888873  0.90512913  0.89848351
   0.60943260  0.00120926  0.00331973
   0.60436513  0.10822753  0.11853503
   0.60648814  0.20201892  0.22406960
   0.70546729  0.32901068  0.39702961
   0.67267292  0.41517222  0.50924897
   0.69914732  0.51550601  0.60541524
   0.70727771  0.61170565  0.69643679
   0.69194270  0.69820920  0.79914670
   0.71381999  0.80751149  0.89895743
   0.71705961  0.90703830  0.99695558
   0.69375767  0.00409029  0.09421370
   0.68954888  0.10132797  0.21384721
   0.69868604  0.21234542  0.29716109
   0.78444078  0.31268452  0.51198368
   0.77962102  0.39681779  0.60495272
   0.80084442  0.48991043  0.68017275
   0.80657101  0.60513811  0.78585849
   0.81503835  0.70085605  0.90449575
   0.81358957  0.81188264  0.99212640
   0.80138106  0.89289193  0.10430311
   0.80585869  0.99990586  0.20142979
   0.79384923  0.10414310  0.30881156
   0.78403182  0.19329470  0.40482268
   0.90861930  0.30743670  0.59989249
   0.90821753  0.38515471  0.68068090
   0.88839728  0.49883823  0.79105597
   0.89638989  0.58610959  0.89529383
   0.90144138  0.71204657  0.98997062
   0.91934614  0.80576115  0.10853810
   0.89992958  0.91094912  0.21045311
   0.89990817  0.99699910  0.32445247
   0.87801807  0.07917708  0.39749240
   0.88983185  0.21774736  0.48542850
   0.01945449  0.27665733  0.67431494
   0.99202045  0.40336954  0.78164488
   0.99425153  0.48383350  0.89349936
   0.00957473  0.59113110  0.98115632
   0.01317782  0.68508953  0.07134886
   0.01333448  0.78428692  0.19973655
   0.98359446  0.89783336  0.30911575
   0.00523174  0.98769989  0.39721442
   0.97702206  0.09852061  0.50348454
   0.99050802  0.18560730  0.58417128
   0.11568863  0.29023123  0.78474038
   0.12048530  0.38617404  0.88375028
   0.08741210  0.50081047  0.98884713
   0.10751465  0.59766527  0.09930951
   0.11147441  0.69394405  0.21488546
   0.09970723  0.80313312  0.30033581
   0.11075533  0.88555453  0.40776673
   0.09692019  0.99260224  0.50966894
   0.10655187  0.08316965  0.59207150
   0.12957934  0.18898166  0.70364762
   0.20146092  0.29309490  0.88140614
   0.21096913  0.39033852  0.99255268
   0.17157181  0.48500734  0.09558782
   0.20957152  0.59307696  0.19128707
   0.21896251  0.70460042  0.28500597
   0.20646883  0.81642206  0.38928078
   0.21663817  0.88466631  0.49870698
   0.20473383  0.98259973  0.59742624
   0.18771567  0.08317437  0.71791865
   0.18806358  0.18211209  0.78772165
   0.37067238  0.40709751  0.97015096
   0.39198815  0.50120382  0.09799785
   0.37261637  0.59948016  0.18423303
   0.39539645  0.72230227  0.29072337
   0.40229807  0.78907312  0.37702804
   0.39308112  0.90364141  0.49876555
   0.43753809  0.98392461  0.62108565
   0.42315406  0.09390158  0.70929184
   0.41801528  0.19462116  0.80894252
   0.41094048  0.30022186  0.88957880
   0.49610104  0.38903577  0.09481857
   0.49233198  0.49584576  0.17217244
   0.49736327  0.60010969  0.26173777
   0.51962835  0.71046613  0.38901596
   0.49684515  0.78955652  0.47775790
   0.48700112  0.88053634  0.59635389
   0.51100442  0.99360636  0.71416478
   0.52372667  0.11224020  0.80823690
   0.50691783  0.18213803  0.92299519
   0.50224110  0.30633084  0.98487775
   0.59932041  0.38988754  0.19762716
   0.58978032  0.49762712  0.27711576
   0.58753387  0.60626722  0.37264226
   0.60713802  0.70769547  0.48652080
   0.56840708  0.79810590  0.60887604
   0.57709904  0.90655456  0.71746879
   0.59597064  0.00673920  0.81782144
   0.59663552  0.09028110  0.92155678
   0.60079269  0.21634329  0.99988037
   0.57809271  0.29041266  0.12516994
   0.69783352  0.41375525  0.29104123
   0.70391814  0.52060659  0.38918695
   0.68333262  0.59708964  0.48715692
   0.70025450  0.71082213  0.59586557
   0.70406178  0.79590067  0.69994473
   0.69611262  0.90602732  0.80243112
   0.70272695  0.00119065  0.88782729
   0.71276220  0.09759236  0.00644809
   0.70952955  0.20765940  0.09857398
   0.71207487  0.30045576  0.20446064
   0.78425162  0.40344024  0.39357597
   0.79539072  0.50318491  0.49644960
   0.80901974  0.61053646  0.58279130
   0.81093474  0.69583693  0.69950246
   0.80160698  0.80125022  0.79717184
   0.81038243  0.92424621  0.89591318
   0.79877106  0.99821627  0.00504334
   0.80765710  0.09718176  0.10487126
   0.80072095  0.17250525  0.21205241
   0.79082639  0.29228887  0.31943436
   0.88734350  0.40127621  0.50703597
   0.87927457  0.51290354  0.59300966
   0.90858082  0.60622143  0.68325554
   0.90338448  0.70234923  0.80424072
   0.89477972  0.80416937  0.89007509
   0.88607980  0.90425961  0.00688140
   0.90222819  0.00197776  0.10557213
   0.91160039  0.09076461  0.22515805
   0.88247102  0.18987577  0.31973571
   0.87713608  0.30769303  0.39114485
   0.00517136  0.41685417  0.58613608
   0.99528276  0.49520388  0.68390378
   0.99531374  0.60569412  0.79019729
   0.98237071  0.70905244  0.89771007
   0.97947137  0.80712742  0.99954525
   0.97479824  0.92077346  0.10223137
   0.99523724  0.01310502  0.21175571
   0.00498831  0.09328797  0.32999689
   0.97641940  0.19597624  0.41561470
   0.00363470  0.30586088  0.49080960
   0.08676771  0.39949035  0.69713284
   0.10151042  0.49627041  0.79557582
   0.09718405  0.62271284  0.87002712
   0.11427577  0.69824742  0.99741709
   0.07289088  0.79177076  0.09662904
   0.07551594  0.90951865  0.18370216
   0.10313918  0.97992402  0.32036066
   0.10014206  0.08791993  0.41893534
   0.10280123  0.18617204  0.49174204
   0.09522143  0.28268036  0.59873723
   0.21658168  0.41301460  0.77229757
   0.18521935  0.48854496  0.88678801
   0.17866252  0.60098176  0.98458624
   0.20566164  0.70895157  0.08670709
   0.18019444  0.81806425  0.20608103
   0.18191717  0.90063323  0.29199932
   0.20074123  0.98691090  0.42299659
   0.21205866  0.08923285  0.52138543
   0.20704299  0.21313415  0.60762472
   0.18357193  0.30557042  0.69956052
   0.29019976  0.39224033  0.88412394
   0.28257121  0.50300513  0.99099952
   0.28146478  0.58529586  0.07461465
   0.27974639  0.70841611  0.18707642
   0.29203136  0.81736317  0.26840704
   0.30127658  0.90087227  0.40023999
   0.31789501  0.99362602  0.52702517
   0.30229653  0.08238341  0.62087787
   0.30718570  0.20821944  0.72020970
   0.27478403  0.31001368  0.79278152
