 504 504   0   0
  0.1922536E+02  0.2105579E-08  0.2083983E-08  0.2208205E-08  0.5000000E-15
  1.000000000000000E-004
  CAR 
 Li                                      
      3.67404643     -3.36639194  301      0.53718356      1.00000000
     -3.366  0.0000E+00  0.0000E+00
     -3.343  0.0000E+00  0.0000E+00
     -3.319  0.0000E+00  0.0000E+00
     -3.296  0.0000E+00  0.0000E+00
     -3.273  0.0000E+00  0.0000E+00
     -3.249  0.0000E+00  0.0000E+00
     -3.226  0.0000E+00  0.0000E+00
     -3.202  0.8808E-11  0.2067E-12
     -3.179  0.1887E-07  0.4430E-09
     -3.155  0.1221E-04  0.2870E-06
     -3.132  0.2410E-02  0.5686E-04
     -3.108  0.1471E+00  0.3509E-02
     -3.085  0.2827E+01  0.6985E-01
     -3.061  0.1747E+02  0.4798E+00
     -3.038  0.3540E+02  0.1311E+01
     -3.014  0.2377E+02  0.1868E+01
     -2.991  0.6064E+01  0.2011E+01
     -2.967  0.1055E+02  0.2258E+01
     -2.944  0.4755E+02  0.3374E+01
     -2.920  0.9199E+02  0.5533E+01
     -2.897  0.7621E+02  0.7322E+01
     -2.874  0.2607E+02  0.7933E+01
     -2.850  0.1038E+02  0.8177E+01
     -2.827  0.3952E+02  0.9105E+01
     -2.803  0.8767E+02  0.1116E+02
     -2.780  0.8335E+02  0.1312E+02
     -2.756  0.3408E+02  0.1392E+02
     -2.733  0.1902E+02  0.1436E+02
     -2.709  0.5238E+02  0.1559E+02
     -2.686  0.9437E+02  0.1781E+02
     -2.662  0.1013E+03  0.2018E+02
     -2.639  0.6168E+02  0.2163E+02
     -2.615  0.3347E+02  0.2242E+02
     -2.592  0.6836E+02  0.2402E+02
     -2.568  0.1227E+03  0.2690E+02
     -2.545  0.1416E+03  0.3022E+02
     -2.522  0.1079E+03  0.3276E+02
     -2.498  0.4771E+02  0.3388E+02
     -2.475  0.3045E+02  0.3459E+02
     -2.451  0.6476E+02  0.3611E+02
     -2.428  0.8716E+02  0.3816E+02
     -2.404  0.6470E+02  0.3968E+02
     -2.381  0.4565E+02  0.4075E+02
     -2.357  0.6045E+02  0.4217E+02
     -2.334  0.8726E+02  0.4421E+02
     -2.310  0.1138E+03  0.4689E+02
     -2.287  0.1208E+03  0.4972E+02
     -2.263  0.1072E+03  0.5223E+02
     -2.240  0.1061E+03  0.5472E+02
     -2.216  0.1205E+03  0.5755E+02
     -2.193  0.1478E+03  0.6102E+02
     -2.170  0.1644E+03  0.6488E+02
     -2.146  0.1410E+03  0.6819E+02
     -2.123  0.8876E+02  0.7027E+02
     -2.099  0.5390E+02  0.7153E+02
     -2.076  0.4412E+02  0.7257E+02
     -2.052  0.6323E+02  0.7405E+02
     -2.029  0.6786E+02  0.7565E+02
     -2.005  0.7202E+02  0.7734E+02
     -1.982  0.1078E+03  0.7987E+02
     -1.958  0.1284E+03  0.8288E+02
     -1.935  0.1337E+03  0.8602E+02
     -1.911  0.1370E+03  0.8923E+02
     -1.888  0.1176E+03  0.9199E+02
     -1.864  0.1049E+03  0.9446E+02
     -1.841  0.1237E+03  0.9736E+02
     -1.817  0.1530E+03  0.1009E+03
     -1.794  0.1771E+03  0.1051E+03
     -1.771  0.1629E+03  0.1089E+03
     -1.747  0.9833E+02  0.1112E+03
     -1.724  0.4440E+02  0.1123E+03
     -1.700  0.6354E+02  0.1138E+03
     -1.677  0.1149E+03  0.1165E+03
     -1.653  0.1384E+03  0.1197E+03
     -1.630  0.1378E+03  0.1229E+03
     -1.606  0.1369E+03  0.1262E+03
     -1.583  0.1443E+03  0.1295E+03
     -1.559  0.1674E+03  0.1335E+03
     -1.536  0.1779E+03  0.1377E+03
     -1.512  0.1463E+03  0.1411E+03
     -1.489  0.1143E+03  0.1438E+03
     -1.465  0.1243E+03  0.1467E+03
     -1.442  0.1465E+03  0.1501E+03
     -1.419  0.1641E+03  0.1540E+03
     -1.395  0.1440E+03  0.1574E+03
     -1.372  0.1157E+03  0.1601E+03
     -1.348  0.9589E+02  0.1623E+03
     -1.325  0.1001E+03  0.1647E+03
     -1.301  0.1099E+03  0.1672E+03
     -1.278  0.1036E+03  0.1697E+03
     -1.254  0.1129E+03  0.1723E+03
     -1.231  0.1289E+03  0.1754E+03
     -1.207  0.1311E+03  0.1784E+03
     -1.184  0.1344E+03  0.1816E+03
     -1.160  0.1571E+03  0.1853E+03
     -1.137  0.1690E+03  0.1892E+03
     -1.113  0.1695E+03  0.1932E+03
     -1.090  0.1762E+03  0.1973E+03
     -1.067  0.2003E+03  0.2020E+03
     -1.043  0.2193E+03  0.2072E+03
     -1.020  0.2173E+03  0.2123E+03
     -0.996  0.1993E+03  0.2170E+03
     -0.973  0.1745E+03  0.2211E+03
     -0.949  0.1569E+03  0.2247E+03
     -0.926  0.1353E+03  0.2279E+03
     -0.902  0.1123E+03  0.2306E+03
     -0.879  0.1003E+03  0.2329E+03
     -0.855  0.1226E+03  0.2358E+03
     -0.832  0.1530E+03  0.2394E+03
     -0.808  0.1555E+03  0.2430E+03
     -0.785  0.1517E+03  0.2466E+03
     -0.761  0.1522E+03  0.2502E+03
     -0.738  0.1729E+03  0.2542E+03
     -0.714  0.1980E+03  0.2589E+03
     -0.691  0.1857E+03  0.2632E+03
     -0.668  0.1599E+03  0.2670E+03
     -0.644  0.1387E+03  0.2702E+03
     -0.621  0.1311E+03  0.2733E+03
     -0.597  0.1513E+03  0.2769E+03
     -0.574  0.1655E+03  0.2807E+03
     -0.550  0.1525E+03  0.2843E+03
     -0.527  0.1490E+03  0.2878E+03
     -0.503  0.1682E+03  0.2918E+03
     -0.480  0.1901E+03  0.2962E+03
     -0.456  0.2141E+03  0.3013E+03
     -0.433  0.2182E+03  0.3064E+03
     -0.409  0.2105E+03  0.3113E+03
     -0.386  0.1925E+03  0.3158E+03
     -0.362  0.1942E+03  0.3204E+03
     -0.339  0.2240E+03  0.3256E+03
     -0.316  0.2329E+03  0.3311E+03
     -0.292  0.2074E+03  0.3360E+03
     -0.269  0.1693E+03  0.3400E+03
     -0.245  0.1497E+03  0.3435E+03
     -0.222  0.1609E+03  0.3472E+03
     -0.198  0.1774E+03  0.3514E+03
     -0.175  0.1710E+03  0.3554E+03
     -0.151  0.1617E+03  0.3592E+03
     -0.128  0.1682E+03  0.3632E+03
     -0.104  0.1822E+03  0.3674E+03
     -0.081  0.1951E+03  0.3720E+03
     -0.057  0.1973E+03  0.3766E+03
     -0.034  0.2017E+03  0.3814E+03
     -0.010  0.2088E+03  0.3863E+03
      0.013  0.2123E+03  0.3913E+03
      0.036  0.2183E+03  0.3964E+03
      0.060  0.2322E+03  0.4018E+03
      0.083  0.2457E+03  0.4076E+03
      0.107  0.2421E+03  0.4133E+03
      0.130  0.2223E+03  0.4185E+03
      0.154  0.2111E+03  0.4235E+03
      0.177  0.2116E+03  0.4284E+03
      0.201  0.2001E+03  0.4331E+03
      0.224  0.1933E+03  0.4376E+03
      0.248  0.1982E+03  0.4423E+03
      0.271  0.1961E+03  0.4469E+03
      0.295  0.1934E+03  0.4514E+03
      0.318  0.1893E+03  0.4559E+03
      0.342  0.1806E+03  0.4601E+03
      0.365  0.1743E+03  0.4642E+03
      0.389  0.1852E+03  0.4686E+03
      0.412  0.2016E+03  0.4733E+03
      0.435  0.2202E+03  0.4785E+03
      0.459  0.2380E+03  0.4840E+03
      0.482  0.2555E+03  0.4900E+03
      0.506  0.2581E+03  0.4961E+03
      0.529  0.2522E+03  0.5020E+03
      0.553  0.2528E+03  0.5079E+03
      0.576  0.2535E+03  0.5139E+03
      0.600  0.2622E+03  0.5201E+03
      0.623  0.2716E+03  0.5264E+03
      0.647  0.2671E+03  0.5327E+03
      0.670  0.2588E+03  0.5388E+03
      0.694  0.2586E+03  0.5448E+03
      0.717  0.2578E+03  0.5509E+03
      0.741  0.2516E+03  0.5568E+03
      0.764  0.2433E+03  0.5625E+03
      0.787  0.2379E+03  0.5681E+03
      0.811  0.2319E+03  0.5735E+03
      0.834  0.2292E+03  0.5789E+03
      0.858  0.2226E+03  0.5841E+03
      0.881  0.2117E+03  0.5891E+03
      0.905  0.2051E+03  0.5939E+03
      0.928  0.2071E+03  0.5988E+03
      0.952  0.2024E+03  0.6035E+03
      0.975  0.1979E+03  0.6082E+03
      0.999  0.2042E+03  0.6130E+03
      1.022  0.2037E+03  0.6177E+03
      1.046  0.1945E+03  0.6223E+03
      1.069  0.1960E+03  0.6269E+03
      1.093  0.2084E+03  0.6318E+03
      1.116  0.2201E+03  0.6370E+03
      1.139  0.2160E+03  0.6420E+03
      1.163  0.2146E+03  0.6471E+03
      1.186  0.2259E+03  0.6524E+03
      1.210  0.2311E+03  0.6578E+03
      1.233  0.2274E+03  0.6631E+03
      1.257  0.2264E+03  0.6684E+03
      1.280  0.2283E+03  0.6738E+03
      1.304  0.2152E+03  0.6789E+03
      1.327  0.2172E+03  0.6840E+03
      1.351  0.2262E+03  0.6893E+03
      1.374  0.2165E+03  0.6943E+03
      1.398  0.2095E+03  0.6993E+03
      1.421  0.2076E+03  0.7041E+03
      1.445  0.2064E+03  0.7090E+03
      1.468  0.2065E+03  0.7138E+03
      1.492  0.2127E+03  0.7188E+03
      1.515  0.2112E+03  0.7238E+03
      1.538  0.2017E+03  0.7285E+03
      1.562  0.1951E+03  0.7331E+03
      1.585  0.1963E+03  0.7377E+03
      1.609  0.2082E+03  0.7426E+03
      1.632  0.2087E+03  0.7475E+03
      1.656  0.2049E+03  0.7523E+03
      1.679  0.2087E+03  0.7572E+03
      1.703  0.2036E+03  0.7620E+03
      1.726  0.1935E+03  0.7665E+03
      1.750  0.1908E+03  0.7710E+03
      1.773  0.1941E+03  0.7755E+03
      1.797  0.2054E+03  0.7804E+03
      1.820  0.2156E+03  0.7854E+03
      1.844  0.2123E+03  0.7904E+03
      1.867  0.2063E+03  0.7952E+03
      1.890  0.2056E+03  0.8001E+03
      1.914  0.2074E+03  0.8049E+03
      1.937  0.2110E+03  0.8099E+03
      1.961  0.2075E+03  0.8148E+03
      1.984  0.2097E+03  0.8197E+03
      2.008  0.2138E+03  0.8247E+03
      2.031  0.2066E+03  0.8295E+03
      2.055  0.2016E+03  0.8343E+03
      2.078  0.1966E+03  0.8389E+03
      2.102  0.1819E+03  0.8432E+03
      2.125  0.1832E+03  0.8475E+03
      2.149  0.1938E+03  0.8520E+03
      2.172  0.1878E+03  0.8564E+03
      2.196  0.1766E+03  0.8606E+03
      2.219  0.1763E+03  0.8647E+03
      2.242  0.1778E+03  0.8689E+03
      2.266  0.1763E+03  0.8730E+03
      2.289  0.1737E+03  0.8771E+03
      2.313  0.1697E+03  0.8811E+03
      2.336  0.1798E+03  0.8853E+03
      2.360  0.1922E+03  0.8898E+03
      2.383  0.1818E+03  0.8941E+03
      2.407  0.1621E+03  0.8979E+03
      2.430  0.1541E+03  0.9015E+03
      2.454  0.1527E+03  0.9051E+03
      2.477  0.1439E+03  0.9084E+03
      2.501  0.1408E+03  0.9118E+03
      2.524  0.1548E+03  0.9154E+03
      2.548  0.1638E+03  0.9192E+03
      2.571  0.1634E+03  0.9231E+03
      2.595  0.1582E+03  0.9268E+03
      2.618  0.1525E+03  0.9304E+03
      2.641  0.1447E+03  0.9338E+03
      2.665  0.1289E+03  0.9368E+03
      2.688  0.1215E+03  0.9396E+03
      2.712  0.1291E+03  0.9427E+03
      2.735  0.1337E+03  0.9458E+03
      2.759  0.1331E+03  0.9489E+03
      2.782  0.1374E+03  0.9521E+03
      2.806  0.1472E+03  0.9556E+03
      2.829  0.1478E+03  0.9591E+03
      2.853  0.1387E+03  0.9623E+03
      2.876  0.1396E+03  0.9656E+03
      2.900  0.1270E+03  0.9686E+03
      2.923  0.1193E+03  0.9714E+03
      2.947  0.1248E+03  0.9743E+03
      2.970  0.1303E+03  0.9774E+03
      2.993  0.1288E+03  0.9804E+03
      3.017  0.1207E+03  0.9832E+03
      3.040  0.1199E+03  0.9860E+03
      3.064  0.1173E+03  0.9888E+03
      3.087  0.1020E+03  0.9912E+03
      3.111  0.9623E+02  0.9934E+03
      3.134  0.1069E+03  0.9959E+03
      3.158  0.1135E+03  0.9986E+03
      3.181  0.1014E+03  0.1001E+04
      3.205  0.8547E+02  0.1003E+04
      3.228  0.6823E+02  0.1005E+04
      3.252  0.4581E+02  0.1006E+04
      3.275  0.2868E+02  0.1006E+04
      3.299  0.2672E+02  0.1007E+04
      3.322  0.3658E+02  0.1008E+04
      3.345  0.4618E+02  0.1009E+04
      3.369  0.3382E+02  0.1010E+04
      3.392  0.1093E+02  0.1010E+04
      3.416  0.1341E+01  0.1010E+04
      3.439  0.5760E-01  0.1010E+04
      3.463  0.8241E-03  0.1010E+04
      3.486  0.3798E-05  0.1010E+04
      3.510  0.5502E-08  0.1010E+04
      3.533  0.2458E-11  0.1010E+04
      3.557  0.0000E+00  0.1010E+04
      3.580  0.0000E+00  0.1010E+04
      3.604  0.0000E+00  0.1010E+04
      3.627  0.0000E+00  0.1010E+04
      3.651  0.0000E+00  0.1010E+04
      3.674  0.0000E+00  0.1010E+04
