 running on   64 total cores
 distrk:  each k-point on   32 cores,    2 groups
 distr:  one band on   32 cores,    1 groups
 vasp.6.2.1 16May21 (build Nov 23 2021 15:40:41) complex                        
  
 POSCAR found type information on POSCAR Li
 POSCAR found :  1 types and     504 ions
 scaLAPACK will be used
 -----------------------------------------------------------------------------
|                                                                             |
|           W    W    AA    RRRRR   N    N  II  N    N   GGGG   !!!           |
|           W    W   A  A   R    R  NN   N  II  NN   N  G    G  !!!           |
|           W    W  A    A  R    R  N N  N  II  N N  N  G       !!!           |
|           W WW W  AAAAAA  RRRRR   N  N N  II  N  N N  G  GGG   !            |
|           WW  WW  A    A  R   R   N   NN  II  N   NN  G    G                |
|           W    W  A    A  R    R  N    N  II  N    N   GGGG   !!!           |
|                                                                             |
|     For optimal performance we recommend to set                             |
|       NCORE = 2 up to number-of-cores-per-socket                            |
|     NCORE specifies how many cores store one orbital (NPAR=cpu/NCORE).      |
|     This setting can greatly improve the performance of VASP for DFT.       |
|     The default, NCORE=1 might be grossly inefficient on modern             |
|     multi-core architectures or massively parallel machines. Do your        |
|     own testing! More info at https://www.vasp.at/wiki/index.php/NCORE      |
|     Unfortunately you need to use the default for GW and RPA                |
|     calculations (for HF NCORE is supported but not extensively tested      |
|     yet).                                                                   |
|                                                                             |
 -----------------------------------------------------------------------------

 -----------------------------------------------------------------------------
|                                                                             |
|               ----> ADVICE to this user running VASP <----                  |
|                                                                             |
|     You have a (more or less) 'large supercell' and for larger cells it     |
|     might be more efficient to use real-space projection operators.         |
|     Therefore, try LREAL= Auto in the INCAR file.                           |
|     Mind: If you want to do very accurate calculations, keep the            |
|     reciprocal projection scheme (i.e. LREAL=.FALSE.).                      |
|                                                                             |
 -----------------------------------------------------------------------------

 LDA part: xc-table for Pade appr. of Perdew
 POSCAR found type information on POSCAR Li
 POSCAR found :  1 types and     504 ions
 POSCAR, INCAR and KPOINTS ok, starting setup
 FFT: planning ...
 WAVECAR not read
 entering main loop
       N       E                     dE             d eps       ncg     rms          rms(c)
DAV:   1    -0.260543031609E+03   -0.26054E+03   -0.12438E+05  4040   0.661E+02
DAV:   2    -0.881671141108E+03   -0.62113E+03   -0.56854E+03  4636   0.689E+01
DAV:   3    -0.925674540321E+03   -0.44003E+02   -0.40106E+02  5168   0.145E+01
DAV:   4    -0.927170542051E+03   -0.14960E+01   -0.14712E+01  4728   0.290E+00
DAV:   5    -0.927205545671E+03   -0.35004E-01   -0.34928E-01  4856   0.468E-01    0.960E+00
DAV:   6    -0.919171254118E+03    0.80343E+01   -0.12375E+01  4576   0.410E+00    0.646E+00
DAV:   7    -0.917695309941E+03    0.14759E+01   -0.87289E+00  4688   0.414E+00    0.548E+00
DAV:   8    -0.913940989709E+03    0.37543E+01   -0.43906E+00  4680   0.265E+00    0.289E+00
DAV:   9    -0.913552333138E+03    0.38866E+00   -0.23162E+00  4632   0.156E+00    0.208E+00
DAV:  10    -0.913205662385E+03    0.34667E+00   -0.11608E+00  4696   0.111E+00    0.129E+00
DAV:  11    -0.913104367651E+03    0.10129E+00   -0.40580E-01  4488   0.551E-01    0.709E-01
DAV:  12    -0.913125591843E+03   -0.21224E-01   -0.92991E-02  4816   0.368E-01    0.659E-01
DAV:  13    -0.913080141960E+03    0.45450E-01   -0.51965E-02  4760   0.282E-01    0.309E-01
DAV:  14    -0.913081467659E+03   -0.13257E-02   -0.17698E-02  4728   0.158E-01    0.242E-01
DAV:  15    -0.913076345531E+03    0.51221E-02   -0.11243E-02  4680   0.123E-01    0.127E-01
DAV:  16    -0.913075096449E+03    0.12491E-02   -0.33551E-03  4528   0.599E-02    0.594E-02
DAV:  17    -0.913074968955E+03    0.12749E-03   -0.10972E-03  4392   0.289E-02    0.304E-02
DAV:  18    -0.913074946421E+03    0.22534E-04   -0.25579E-04  4744   0.178E-02    0.242E-02
DAV:  19    -0.913074883258E+03    0.63163E-04   -0.99275E-05  4632   0.119E-02    0.133E-02
DAV:  20    -0.913074857754E+03    0.25505E-04   -0.40433E-05  4432   0.637E-03    0.521E-03
DAV:  21    -0.913074853198E+03    0.45558E-05   -0.14899E-05  2344   0.327E-03
   1 F= -.91307485E+03 E0= -.91301798E+03  d E =-.113750E+00
