 432 432   0   0
  0.1857636E+02  0.2002080E-08  0.2002080E-08  0.2002080E-08  0.5000000E-15
  1.000000000000000E-004
  CAR 
 Li                                      
      4.11902305     -3.33729217  301      0.64734827      1.00000000
     -3.337  0.0000E+00  0.0000E+00
     -3.312  0.0000E+00  0.0000E+00
     -3.288  0.0000E+00  0.0000E+00
     -3.263  0.0000E+00  0.0000E+00
     -3.238  0.0000E+00  0.0000E+00
     -3.213  0.0000E+00  0.0000E+00
     -3.188  0.0000E+00  0.0000E+00
     -3.163  0.2982E-12  0.7411E-14
     -3.138  0.1590E-08  0.3954E-10
     -3.114  0.2213E-05  0.5505E-07
     -3.089  0.8111E-03  0.2021E-04
     -3.064  0.7948E-01  0.1996E-02
     -3.039  0.2131E+01  0.5496E-01
     -3.014  0.1608E+02  0.4547E+00
     -2.989  0.3516E+02  0.1328E+01
     -2.964  0.2257E+02  0.1889E+01
     -2.940  0.4303E+01  0.1996E+01
     -2.915  0.2800E+01  0.2066E+01
     -2.890  0.2494E+02  0.2686E+01
     -2.865  0.8022E+02  0.4680E+01
     -2.840  0.9114E+02  0.6945E+01
     -2.815  0.3706E+02  0.7866E+01
     -2.790  0.5730E+01  0.8008E+01
     -2.766  0.9680E+01  0.8249E+01
     -2.741  0.5123E+02  0.9522E+01
     -2.716  0.9623E+02  0.1191E+02
     -2.691  0.6611E+02  0.1356E+02
     -2.666  0.1658E+02  0.1397E+02
     -2.641  0.5596E+01  0.1411E+02
     -2.617  0.3547E+02  0.1499E+02
     -2.592  0.1057E+03  0.1762E+02
     -2.567  0.1189E+03  0.2057E+02
     -2.542  0.4985E+02  0.2181E+02
     -2.517  0.9085E+01  0.2204E+02
     -2.492  0.2430E+02  0.2264E+02
     -2.467  0.1069E+03  0.2530E+02
     -2.443  0.1796E+03  0.2976E+02
     -2.418  0.1255E+03  0.3288E+02
     -2.393  0.3925E+02  0.3386E+02
     -2.368  0.7664E+01  0.3405E+02
     -2.343  0.2462E+02  0.3466E+02
     -2.318  0.8375E+02  0.3674E+02
     -2.293  0.9339E+02  0.3906E+02
     -2.269  0.3376E+02  0.3990E+02
     -2.244  0.5886E+01  0.4005E+02
     -2.219  0.2543E+02  0.4068E+02
     -2.194  0.1079E+03  0.4336E+02
     -2.169  0.1807E+03  0.4785E+02
     -2.144  0.1274E+03  0.5102E+02
     -2.119  0.3674E+02  0.5193E+02
     -2.095  0.1983E+02  0.5243E+02
     -2.070  0.9517E+02  0.5479E+02
     -2.045  0.2186E+03  0.6022E+02
     -2.020  0.2319E+03  0.6599E+02
     -1.995  0.1253E+03  0.6910E+02
     -1.970  0.3316E+02  0.6992E+02
     -1.945  0.1310E+02  0.7025E+02
     -1.921  0.4955E+02  0.7148E+02
     -1.896  0.9264E+02  0.7378E+02
     -1.871  0.6807E+02  0.7548E+02
     -1.846  0.2015E+02  0.7598E+02
     -1.821  0.1752E+02  0.7641E+02
     -1.796  0.8626E+02  0.7856E+02
     -1.771  0.1897E+03  0.8327E+02
     -1.747  0.1831E+03  0.8782E+02
     -1.722  0.7543E+02  0.8970E+02
     -1.697  0.1675E+02  0.9011E+02
     -1.672  0.4515E+02  0.9124E+02
     -1.647  0.1533E+03  0.9505E+02
     -1.622  0.2446E+03  0.1011E+03
     -1.597  0.1959E+03  0.1060E+03
     -1.573  0.7083E+02  0.1078E+03
     -1.548  0.1451E+02  0.1081E+03
     -1.523  0.4152E+02  0.1091E+03
     -1.498  0.1314E+03  0.1124E+03
     -1.473  0.1775E+03  0.1168E+03
     -1.448  0.1030E+03  0.1194E+03
     -1.424  0.3162E+02  0.1202E+03
     -1.399  0.6448E+02  0.1218E+03
     -1.374  0.1829E+03  0.1263E+03
     -1.349  0.2450E+03  0.1324E+03
     -1.324  0.1659E+03  0.1365E+03
     -1.299  0.5463E+02  0.1379E+03
     -1.274  0.3358E+02  0.1387E+03
     -1.250  0.1229E+03  0.1418E+03
     -1.225  0.2351E+03  0.1476E+03
     -1.200  0.2170E+03  0.1530E+03
     -1.175  0.9810E+02  0.1555E+03
     -1.150  0.2406E+02  0.1560E+03
     -1.125  0.3559E+02  0.1569E+03
     -1.100  0.1148E+03  0.1598E+03
     -1.076  0.1729E+03  0.1641E+03
     -1.051  0.1197E+03  0.1671E+03
     -1.026  0.3481E+02  0.1679E+03
     -1.001  0.1490E+02  0.1683E+03
     -0.976  0.6280E+02  0.1699E+03
     -0.951  0.1326E+03  0.1732E+03
     -0.926  0.1451E+03  0.1768E+03
     -0.902  0.1005E+03  0.1793E+03
     -0.877  0.7565E+02  0.1811E+03
     -0.852  0.1725E+03  0.1854E+03
     -0.827  0.2841E+03  0.1925E+03
     -0.802  0.3002E+03  0.1999E+03
     -0.777  0.2481E+03  0.2061E+03
     -0.752  0.1318E+03  0.2094E+03
     -0.728  0.7665E+02  0.2113E+03
     -0.703  0.1563E+03  0.2152E+03
     -0.678  0.2185E+03  0.2206E+03
     -0.653  0.1785E+03  0.2250E+03
     -0.628  0.9289E+02  0.2274E+03
     -0.603  0.3081E+02  0.2281E+03
     -0.578  0.5579E+02  0.2295E+03
     -0.554  0.1545E+03  0.2334E+03
     -0.529  0.1973E+03  0.2383E+03
     -0.504  0.1188E+03  0.2412E+03
     -0.479  0.4225E+02  0.2423E+03
     -0.454  0.8431E+02  0.2444E+03
     -0.429  0.2171E+03  0.2497E+03
     -0.404  0.2920E+03  0.2570E+03
     -0.380  0.2421E+03  0.2630E+03
     -0.355  0.1382E+03  0.2665E+03
     -0.330  0.1091E+03  0.2692E+03
     -0.305  0.8445E+02  0.2713E+03
     -0.280  0.2709E+02  0.2719E+03
     -0.255  0.1120E+02  0.2722E+03
     -0.230  0.5479E+02  0.2736E+03
     -0.206  0.1575E+03  0.2775E+03
     -0.181  0.2447E+03  0.2836E+03
     -0.156  0.2455E+03  0.2897E+03
     -0.131  0.1808E+03  0.2942E+03
     -0.106  0.1203E+03  0.2972E+03
     -0.081  0.1430E+03  0.3007E+03
     -0.057  0.1929E+03  0.3055E+03
     -0.032  0.2153E+03  0.3109E+03
     -0.007  0.2218E+03  0.3164E+03
      0.018  0.2187E+03  0.3218E+03
      0.043  0.2136E+03  0.3271E+03
      0.068  0.1664E+03  0.3313E+03
      0.093  0.1149E+03  0.3341E+03
      0.117  0.1038E+03  0.3367E+03
      0.142  0.1024E+03  0.3392E+03
      0.167  0.1292E+03  0.3425E+03
      0.192  0.1567E+03  0.3463E+03
      0.217  0.2218E+03  0.3519E+03
      0.242  0.2908E+03  0.3591E+03
      0.267  0.3126E+03  0.3669E+03
      0.291  0.2833E+03  0.3739E+03
      0.316  0.1822E+03  0.3784E+03
      0.341  0.8290E+02  0.3805E+03
      0.366  0.1081E+03  0.3832E+03
      0.391  0.2067E+03  0.3883E+03
      0.416  0.2543E+03  0.3946E+03
      0.441  0.2144E+03  0.4000E+03
      0.465  0.1298E+03  0.4032E+03
      0.490  0.7816E+02  0.4051E+03
      0.515  0.1111E+03  0.4079E+03
      0.540  0.1589E+03  0.4118E+03
      0.565  0.1976E+03  0.4167E+03
      0.590  0.2006E+03  0.4217E+03
      0.615  0.1767E+03  0.4261E+03
      0.639  0.1765E+03  0.4305E+03
      0.664  0.1963E+03  0.4354E+03
      0.689  0.2276E+03  0.4410E+03
      0.714  0.2442E+03  0.4471E+03
      0.739  0.2337E+03  0.4529E+03
      0.764  0.2048E+03  0.4580E+03
      0.789  0.1629E+03  0.4621E+03
      0.813  0.1411E+03  0.4656E+03
      0.838  0.1370E+03  0.4690E+03
      0.863  0.1556E+03  0.4728E+03
      0.888  0.1882E+03  0.4775E+03
      0.913  0.2082E+03  0.4827E+03
      0.938  0.2101E+03  0.4879E+03
      0.963  0.2243E+03  0.4935E+03
      0.987  0.2530E+03  0.4998E+03
      1.012  0.2797E+03  0.5067E+03
      1.037  0.2858E+03  0.5138E+03
      1.062  0.2640E+03  0.5204E+03
      1.087  0.2340E+03  0.5262E+03
      1.112  0.2211E+03  0.5317E+03
      1.136  0.2146E+03  0.5370E+03
      1.161  0.2216E+03  0.5426E+03
      1.186  0.2414E+03  0.5486E+03
      1.211  0.2367E+03  0.5544E+03
      1.236  0.2317E+03  0.5602E+03
      1.261  0.2347E+03  0.5660E+03
      1.286  0.2175E+03  0.5714E+03
      1.310  0.2113E+03  0.5767E+03
      1.335  0.2353E+03  0.5825E+03
      1.360  0.2520E+03  0.5888E+03
      1.385  0.2420E+03  0.5948E+03
      1.410  0.2218E+03  0.6003E+03
      1.435  0.2138E+03  0.6056E+03
      1.460  0.2039E+03  0.6107E+03
      1.484  0.1839E+03  0.6153E+03
      1.509  0.1789E+03  0.6197E+03
      1.534  0.1802E+03  0.6242E+03
      1.559  0.1881E+03  0.6289E+03
      1.584  0.2026E+03  0.6339E+03
      1.609  0.2124E+03  0.6392E+03
      1.634  0.2015E+03  0.6442E+03
      1.658  0.1675E+03  0.6484E+03
      1.683  0.1048E+03  0.6510E+03
      1.708  0.5087E+02  0.6522E+03
      1.733  0.7009E+02  0.6540E+03
      1.758  0.1310E+03  0.6572E+03
      1.783  0.1439E+03  0.6608E+03
      1.808  0.1078E+03  0.6635E+03
      1.832  0.1046E+03  0.6661E+03
      1.857  0.1553E+03  0.6699E+03
      1.882  0.1844E+03  0.6745E+03
      1.907  0.1929E+03  0.6793E+03
      1.932  0.1855E+03  0.6839E+03
      1.957  0.1660E+03  0.6881E+03
      1.982  0.1306E+03  0.6913E+03
      2.006  0.9803E+02  0.6937E+03
      2.031  0.1080E+03  0.6964E+03
      2.056  0.1538E+03  0.7002E+03
      2.081  0.1793E+03  0.7047E+03
      2.106  0.1773E+03  0.7091E+03
      2.131  0.1701E+03  0.7133E+03
      2.156  0.1703E+03  0.7176E+03
      2.180  0.1721E+03  0.7218E+03
      2.205  0.1681E+03  0.7260E+03
      2.230  0.1836E+03  0.7306E+03
      2.255  0.2068E+03  0.7357E+03
      2.280  0.2092E+03  0.7409E+03
      2.305  0.1940E+03  0.7457E+03
      2.330  0.1666E+03  0.7499E+03
      2.354  0.1399E+03  0.7534E+03
      2.379  0.1352E+03  0.7567E+03
      2.404  0.1586E+03  0.7607E+03
      2.429  0.1647E+03  0.7648E+03
      2.454  0.1522E+03  0.7685E+03
      2.479  0.1501E+03  0.7723E+03
      2.503  0.1456E+03  0.7759E+03
      2.528  0.1274E+03  0.7791E+03
      2.553  0.1038E+03  0.7816E+03
      2.578  0.7425E+02  0.7835E+03
      2.603  0.6284E+02  0.7850E+03
      2.628  0.9567E+02  0.7874E+03
      2.653  0.1146E+03  0.7903E+03
      2.677  0.1067E+03  0.7929E+03
      2.702  0.8194E+02  0.7950E+03
      2.727  0.3564E+02  0.7958E+03
      2.752  0.6139E+01  0.7960E+03
      2.777  0.1572E+01  0.7960E+03
      2.802  0.1593E+02  0.7964E+03
      2.827  0.6628E+02  0.7981E+03
      2.851  0.9590E+02  0.8005E+03
      2.876  0.5122E+02  0.8017E+03
      2.901  0.1012E+02  0.8020E+03
      2.926  0.6881E+00  0.8020E+03
      2.951  0.1700E-01  0.8020E+03
      2.976  0.1459E+00  0.8020E+03
      3.001  0.2793E+01  0.8021E+03
      3.025  0.1865E+02  0.8025E+03
      3.050  0.5307E+02  0.8039E+03
      3.075  0.8747E+02  0.8060E+03
      3.100  0.1092E+03  0.8087E+03
      3.125  0.1099E+03  0.8115E+03
      3.150  0.9842E+02  0.8139E+03
      3.175  0.8837E+02  0.8161E+03
      3.199  0.6792E+02  0.8178E+03
      3.224  0.6492E+02  0.8194E+03
      3.249  0.9168E+02  0.8217E+03
      3.274  0.1121E+03  0.8245E+03
      3.299  0.1289E+03  0.8277E+03
      3.324  0.1437E+03  0.8313E+03
      3.349  0.1498E+03  0.8350E+03
      3.373  0.1404E+03  0.8385E+03
      3.398  0.1117E+03  0.8412E+03
      3.423  0.9084E+02  0.8435E+03
      3.448  0.8859E+02  0.8457E+03
      3.473  0.6339E+02  0.8473E+03
      3.498  0.2507E+02  0.8479E+03
      3.523  0.9843E+01  0.8482E+03
      3.547  0.2888E+02  0.8489E+03
      3.572  0.5317E+02  0.8502E+03
      3.597  0.5735E+02  0.8516E+03
      3.622  0.6839E+02  0.8533E+03
      3.647  0.8862E+02  0.8555E+03
      3.672  0.9664E+02  0.8579E+03
      3.696  0.9494E+02  0.8603E+03
      3.721  0.7322E+02  0.8621E+03
      3.746  0.6247E+02  0.8637E+03
      3.771  0.5740E+02  0.8651E+03
      3.796  0.2933E+02  0.8658E+03
      3.821  0.7044E+01  0.8660E+03
      3.846  0.6854E+00  0.8660E+03
      3.870  0.2236E-01  0.8660E+03
      3.895  0.2154E-03  0.8660E+03
      3.920  0.5733E-06  0.8660E+03
      3.945  0.4076E-09  0.8660E+03
      3.970  0.7594E-13  0.8660E+03
      3.995  0.0000E+00  0.8660E+03
      4.020  0.0000E+00  0.8660E+03
      4.044  0.0000E+00  0.8660E+03
      4.069  0.0000E+00  0.8660E+03
      4.094  0.0000E+00  0.8660E+03
      4.119  0.0000E+00  0.8660E+03
