 running on   64 total cores
 distrk:  each k-point on   32 cores,    2 groups
 distr:  one band on   32 cores,    1 groups
 vasp.6.2.1 16May21 (build Nov 23 2021 15:40:41) complex                        
  
 POSCAR found type information on POSCAR Li
 POSCAR found :  1 types and     432 ions
 scaLAPACK will be used
 -----------------------------------------------------------------------------
|                                                                             |
|           W    W    AA    RRRRR   N    N  II  N    N   GGGG   !!!           |
|           W    W   A  A   R    R  NN   N  II  NN   N  G    G  !!!           |
|           W    W  A    A  R    R  N N  N  II  N N  N  G       !!!           |
|           W WW W  AAAAAA  RRRRR   N  N N  II  N  N N  G  GGG   !            |
|           WW  WW  A    A  R   R   N   NN  II  N   NN  G    G                |
|           W    W  A    A  R    R  N    N  II  N    N   GGGG   !!!           |
|                                                                             |
|     For optimal performance we recommend to set                             |
|       NCORE = 2 up to number-of-cores-per-socket                            |
|     NCORE specifies how many cores store one orbital (NPAR=cpu/NCORE).      |
|     This setting can greatly improve the performance of VASP for DFT.       |
|     The default, NCORE=1 might be grossly inefficient on modern             |
|     multi-core architectures or massively parallel machines. Do your        |
|     own testing! More info at https://www.vasp.at/wiki/index.php/NCORE      |
|     Unfortunately you need to use the default for GW and RPA                |
|     calculations (for HF NCORE is supported but not extensively tested      |
|     yet).                                                                   |
|                                                                             |
 -----------------------------------------------------------------------------

 -----------------------------------------------------------------------------
|                                                                             |
|               ----> ADVICE to this user running VASP <----                  |
|                                                                             |
|     You have a (more or less) 'large supercell' and for larger cells it     |
|     might be more efficient to use real-space projection operators.         |
|     Therefore, try LREAL= Auto in the INCAR file.                           |
|     Mind: If you want to do very accurate calculations, keep the            |
|     reciprocal projection scheme (i.e. LREAL=.FALSE.).                      |
|                                                                             |
 -----------------------------------------------------------------------------

 LDA part: xc-table for Pade appr. of Perdew
 POSCAR found type information on POSCAR Li
 POSCAR found :  1 types and     432 ions
 POSCAR, INCAR and KPOINTS ok, starting setup
 FFT: planning ...
 WAVECAR not read
 entering main loop
       N       E                     dE             d eps       ncg     rms          rms(c)
DAV:   1    -0.233813226514E+03   -0.23381E+03   -0.10726E+05  3464   0.664E+02
DAV:   2    -0.769262159024E+03   -0.53545E+03   -0.48943E+03  3988   0.696E+01
DAV:   3    -0.805458327249E+03   -0.36196E+02   -0.32947E+02  4304   0.144E+01
DAV:   4    -0.806598513118E+03   -0.11402E+01   -0.11248E+01  3920   0.281E+00
DAV:   5    -0.806623204182E+03   -0.24691E-01   -0.24669E-01  4032   0.443E-01    0.723E+00
DAV:   6    -0.806384561935E+03    0.23864E+00   -0.64966E+00  3912   0.426E+00    0.662E+00
DAV:   7    -0.800180770093E+03    0.62038E+01   -0.52678E+00  3984   0.367E+00    0.344E+00
DAV:   8    -0.799080148045E+03    0.11006E+01   -0.24047E+00  3848   0.165E+00    0.195E+00
DAV:   9    -0.798854615503E+03    0.22553E+00   -0.12690E+00  3784   0.969E-01    0.110E+00
DAV:  10    -0.798856997644E+03   -0.23821E-02   -0.24769E-01  3992   0.614E-01    0.921E-01
DAV:  11    -0.798773004045E+03    0.83994E-01   -0.94908E-02  3944   0.388E-01    0.425E-01
DAV:  12    -0.798768559285E+03    0.44448E-02   -0.34591E-02  3752   0.170E-01    0.202E-01
DAV:  13    -0.798768477985E+03    0.81299E-04   -0.84392E-03  3920   0.117E-01    0.146E-01
DAV:  14    -0.798766602042E+03    0.18759E-02   -0.24077E-03  3912   0.713E-02    0.727E-02
DAV:  15    -0.798766233359E+03    0.36868E-03   -0.92652E-04  3792   0.333E-02    0.330E-02
DAV:  16    -0.798766194512E+03    0.38847E-04   -0.37405E-04  3896   0.195E-02    0.199E-02
DAV:  17    -0.798766145188E+03    0.49324E-04   -0.11336E-04  3816   0.126E-02    0.102E-02
DAV:  18    -0.798766126100E+03    0.19088E-04   -0.21719E-05  2688   0.508E-03    0.527E-03
DAV:  19    -0.798766117927E+03    0.81723E-05   -0.78965E-06  1880   0.312E-03
   1 F= -.79876612E+03 E0= -.79872314E+03  d E =-.859557E-01
