Li                                      
           1
    20.020800    0.000000    0.000000
     0.000000   20.020800    0.000000
     0.000000    0.000000   20.020800
   Li
   432
Direct configuration=     1
   0.99205892  0.00641705  0.98492374
   0.90901705  0.09766421  0.09268381
   0.83652024  0.18502671  0.17502667
   0.74818201  0.28136607  0.25591422
   0.67667997  0.36045491  0.34262582
   0.57061022  0.43108941  0.42250787
   0.50506484  0.51657583  0.50316972
   0.39523701  0.58258358  0.59923929
   0.32459212  0.67699247  0.66626518
   0.24811565  0.76097621  0.75096579
   0.16163776  0.84019192  0.82225749
   0.07422792  0.90583278  0.90551694
   0.05470624  0.92562870  0.07537828
   0.98979568  0.99628419  0.15990069
   0.92426174  0.08817868  0.25517083
   0.82013188  0.15917833  0.31433200
   0.76415837  0.26637692  0.44081353
   0.67175511  0.34985215  0.50704883
   0.59409496  0.41619770  0.57369181
   0.51943180  0.50557885  0.66391312
   0.42352106  0.57581336  0.74595095
   0.32477481  0.68465738  0.82560329
   0.24268095  0.75386624  0.91474439
   0.15119747  0.84074142  0.98899153
   0.16928515  0.83924618  0.15317178
   0.08095980  0.88737396  0.23727722
   0.99815320  0.99086886  0.31984433
   0.93060300  0.09954277  0.38964873
   0.85070917  0.16314182  0.48576847
   0.76780640  0.24294810  0.57638688
   0.66907079  0.31922750  0.66590657
   0.57605872  0.41166539  0.75301219
   0.49568276  0.50231447  0.84837349
   0.42482770  0.59795048  0.91094730
   0.33516439  0.67861651  0.00136754
   0.23367628  0.74278948  0.06688530
   0.24727339  0.74413217  0.24332015
   0.17049223  0.81973737  0.32995130
   0.07598413  0.91153314  0.40682807
   0.98982738  0.00785238  0.48603829
   0.92463072  0.09342982  0.57430137
   0.83843010  0.15977534  0.67080907
   0.75162318  0.24572015  0.73389852
   0.66889405  0.31721776  0.82468983
   0.57800232  0.41018708  0.91037988
   0.49735933  0.51252912  0.01888258
   0.39621362  0.57113438  0.08608773
   0.32527118  0.67212634  0.16702217
   0.34561454  0.67123993  0.34655465
   0.24631015  0.74844708  0.41786204
   0.16104863  0.83583720  0.50201940
   0.08083388  0.92574789  0.57432423
   0.99917187  0.99518090  0.66280072
   0.92907153  0.06041889  0.76231118
   0.83253735  0.17482182  0.81076748
   0.75497248  0.24917340  0.92243882
   0.67079453  0.32372793  0.01868818
   0.57870788  0.41487253  0.08017409
   0.50214092  0.50149014  0.16569099
   0.41106638  0.58244385  0.22746172
   0.41176320  0.56993363  0.42518445
   0.33425064  0.67847039  0.51134943
   0.24979472  0.75906368  0.58074606
   0.16412733  0.85530125  0.66411882
   0.08476482  0.92281607  0.76872613
   0.99090480  0.99077829  0.85339788
   0.90051556  0.09172666  0.91490524
   0.82570875  0.18448574  0.01276361
   0.74427990  0.25205683  0.11188917
   0.66708724  0.36165058  0.17610723
   0.57866007  0.42945435  0.27258461
   0.47978785  0.49511736  0.33116317
   0.09095955  0.08189667  0.91737139
   0.00233422  0.16071487  0.99691931
   0.91804774  0.24918309  0.09205911
   0.84720007  0.36131143  0.16991412
   0.76197628  0.44212285  0.25692736
   0.66740791  0.51635014  0.34441734
   0.58807621  0.58886716  0.42959468
   0.49915939  0.65858058  0.50368172
   0.43180084  0.76918605  0.57758929
   0.33187468  0.83433378  0.66112165
   0.24970006  0.91900117  0.74483401
   0.17603093  0.00851040  0.84227450
   0.16710544  0.99540775  0.99651487
   0.07701933  0.09135620  0.08034830
   0.98772346  0.16812090  0.18694257
   0.90950281  0.26619284  0.24985025
   0.82517382  0.33616795  0.34846363
   0.73807147  0.42832110  0.43232268
   0.67448269  0.50473598  0.49840480
   0.59604100  0.57824803  0.58286479
   0.49854862  0.67598098  0.66102343
   0.43314558  0.74106062  0.74099344
   0.33472772  0.82257333  0.83132445
   0.26071712  0.91225850  0.91375160
   0.24763936  0.91834899  0.07866645
   0.15826640  0.99125435  0.16456035
   0.08582936  0.07424616  0.24266180
   0.00297742  0.17748969  0.32758016
   0.91815097  0.24905623  0.41201152
   0.84240594  0.34950820  0.50831832
   0.75745454  0.40979132  0.58305488
   0.66213727  0.49865097  0.66145076
   0.57256834  0.57779649  0.75345657
   0.49468807  0.66446292  0.83099493
   0.42445549  0.75216242  0.91959319
   0.33963357  0.82517185  0.99998092
   0.32363344  0.82025821  0.16429191
   0.24946021  0.90506996  0.23475659
   0.16171556  0.98541445  0.32147066
   0.08851805  0.08889978  0.40089080
   0.01425731  0.17309939  0.49018218
   0.93046571  0.26003411  0.58370151
   0.83632440  0.32418135  0.67050804
   0.74766154  0.40596818  0.74293319
   0.66696061  0.48976644  0.82316425
   0.57939586  0.58974713  0.91834022
   0.50401741  0.65980737  0.01401130
   0.42755876  0.73003811  0.08224544
   0.42709874  0.74479995  0.25074134
   0.32748398  0.82897569  0.33335482
   0.24807210  0.90914961  0.41139578
   0.16322827  0.98518392  0.49389355
   0.08777525  0.08719133  0.58941364
   0.00221033  0.15978729  0.68127164
   0.93221369  0.24560560  0.76048834
   0.83473792  0.32360166  0.83147427
   0.74742526  0.38966003  0.91863854
   0.67153233  0.48592567  0.99975296
   0.59604580  0.58027483  0.09853351
   0.50842991  0.66649072  0.16642379
   0.48502287  0.65403943  0.32957985
   0.42506162  0.75388005  0.43455807
   0.32401178  0.83271427  0.48979305
   0.25509629  0.92546671  0.59149526
   0.16615451  0.00309321  0.66248522
   0.08486369  0.06770626  0.76907099
   0.99516804  0.15633722  0.84984218
   0.92165274  0.23941227  0.92680626
   0.85061941  0.32797064  0.00500528
   0.75686010  0.42722316  0.08306182
   0.66892233  0.48950809  0.16946345
   0.58556465  0.56638694  0.26148021
   0.18523830  0.17485643  0.82181538
   0.07614894  0.25207734  0.91552589
   0.99938468  0.33731566  0.00180386
   0.92552676  0.41453345  0.08322382
   0.85486051  0.49511358  0.15796386
   0.74497389  0.58687501  0.23222034
   0.66962270  0.66847367  0.33672491
   0.55941089  0.74626599  0.41912678
   0.50742996  0.84287555  0.50558356
   0.40216837  0.91136557  0.57770521
   0.34545391  0.99219260  0.66108879
   0.24784154  0.07306012  0.74697794
   0.24734918  0.07005446  0.91013064
   0.15722153  0.16636958  0.99999691
   0.08674156  0.24398545  0.08631029
   0.00513074  0.34157252  0.16428615
   0.92363982  0.42067690  0.27560585
   0.84120800  0.51595041  0.34766130
   0.75527514  0.59835906  0.40351304
   0.66121970  0.66692701  0.48950345
   0.58617039  0.75444555  0.56361662
   0.49986612  0.84723872  0.65577946
   0.41473998  0.90795738  0.73679750
   0.34841463  0.00326823  0.83281336
   0.33132745  0.00114456  0.01445146
   0.24273647  0.06757025  0.07204463
   0.16527830  0.15825252  0.16930706
   0.08214003  0.24540985  0.24189009
   0.00505916  0.32706425  0.32790989
   0.93256381  0.42112063  0.41423198
   0.84148079  0.49026847  0.48788352
   0.76038037  0.57966278  0.57252048
   0.66805661  0.65952384  0.64581641
   0.58835388  0.75932786  0.73415761
   0.49150754  0.84560399  0.82411756
   0.42763684  0.90369364  0.92006516
   0.42193396  0.90047829  0.09494609
   0.32835633  0.99588827  0.16439376
   0.24683146  0.06132989  0.24517995
   0.16400534  0.17105563  0.32065232
   0.09622886  0.25740443  0.41666897
   0.00057772  0.34888136  0.49798783
   0.92279575  0.42052719  0.59079233
   0.84445841  0.49832182  0.66613445
   0.73836118  0.58637161  0.72314225
   0.67320176  0.66518594  0.82767339
   0.56726785  0.74335739  0.89317194
   0.50428297  0.82181890  0.00855576
   0.50285122  0.82547367  0.18063908
   0.41113275  0.90191391  0.25354513
   0.32767712  0.99133474  0.35368340
   0.24137518  0.08145291  0.41893200
   0.15128885  0.16773384  0.51000197
   0.08500667  0.25698529  0.59771510
   0.99806837  0.33876550  0.68138330
   0.92263618  0.41166255  0.74765795
   0.81169542  0.50002262  0.83566027
   0.72686225  0.59074859  0.92365179
   0.66373575  0.67083317  0.00082806
   0.58484195  0.75540313  0.09147542
   0.59214712  0.73711067  0.25720586
   0.50106273  0.81166312  0.31976502
   0.42000040  0.91465701  0.40917858
   0.32815531  0.98897928  0.49143197
   0.23461029  0.06924421  0.56481536
   0.16387651  0.15546654  0.67248520
   0.07894846  0.24308027  0.76355574
   0.99456826  0.33521057  0.84331434
   0.90972278  0.41215544  0.91059569
   0.80986573  0.49362719  0.98796927
   0.74590343  0.58349963  0.09262859
   0.66827987  0.67691905  0.17675968
   0.26366297  0.25386638  0.76017410
   0.17485734  0.33910231  0.83756845
   0.08172909  0.42208940  0.91152489
   0.99979600  0.49143662  0.98190402
   0.92673682  0.57693608  0.06452150
   0.83958457  0.67512493  0.14950079
   0.76511936  0.74112493  0.26247297
   0.67119269  0.82918477  0.32946299
   0.57441491  0.91658574  0.41475345
   0.50658293  0.99237908  0.50223882
   0.42307840  0.06398079  0.56960343
   0.32281794  0.16105151  0.64515719
   0.33564730  0.15389371  0.83386854
   0.26561600  0.24858802  0.91832526
   0.15823516  0.32437526  0.99184571
   0.08187318  0.42795862  0.07626706
   0.99675384  0.49142124  0.16980440
   0.92852881  0.58312354  0.24884337
   0.85586371  0.66029387  0.32921727
   0.76407207  0.75150354  0.39466951
   0.66248892  0.82956418  0.49636812
   0.58267282  0.91018592  0.58025792
   0.50850399  0.98735868  0.66791316
   0.43321624  0.08895758  0.74015386
   0.41856356  0.07205787  0.92592070
   0.32308225  0.15752036  0.00815979
   0.25241575  0.25218566  0.07601641
   0.16609694  0.34050093  0.16824185
   0.08290488  0.41308685  0.26486268
   0.00635188  0.50331900  0.35413230
   0.94224206  0.59657138  0.41444440
   0.82758372  0.64972938  0.50350280
   0.74778561  0.75937169  0.56450152
   0.66361376  0.83382361  0.65935268
   0.58694471  0.91455816  0.74330597
   0.50884986  0.99938140  0.83692605
   0.49971887  0.99765319  0.00905360
   0.41997333  0.07773702  0.10775153
   0.33408879  0.15267581  0.17566612
   0.26454468  0.25234823  0.24772896
   0.17850295  0.32536131  0.32678259
   0.09000790  0.41773082  0.41531894
   0.01894318  0.49667651  0.51080600
   0.92827208  0.59165567  0.56621183
   0.82226359  0.65618700  0.65209624
   0.73933864  0.75259471  0.73395512
   0.67371119  0.83743007  0.82463619
   0.57248146  0.91852306  0.92523084
   0.58440486  0.90483341  0.08246256
   0.51159635  0.97722322  0.18433507
   0.41938742  0.06509171  0.27260746
   0.33863203  0.16035851  0.32636377
   0.25651715  0.23770552  0.41705515
   0.16635600  0.32426336  0.51384221
   0.08508846  0.41143986  0.58953021
   0.01253147  0.50373506  0.68157981
   0.91448162  0.58531900  0.74331582
   0.82231815  0.65904814  0.83023035
   0.74904695  0.73985426  0.91777474
   0.64905287  0.82760684  0.99169682
   0.66507457  0.82642457  0.18486767
   0.57893382  0.90290645  0.26804394
   0.50196243  0.99689918  0.33881825
   0.41499449  0.08643103  0.43369957
   0.32760981  0.16350272  0.50546932
   0.22652539  0.24767025  0.58432721
   0.17616341  0.33547185  0.68702966
   0.09427066  0.41040298  0.75838570
   0.99916026  0.50039424  0.82422810
   0.90982412  0.57455249  0.90990010
   0.81706851  0.66269612  0.98936925
   0.74239777  0.75145273  0.09196075
   0.33717325  0.34693444  0.66745919
   0.25806118  0.43217442  0.76625640
   0.16487336  0.51207651  0.82611007
   0.08414118  0.58400894  0.90708642
   0.99043345  0.66833901  0.98999576
   0.89991848  0.74559706  0.06368108
   0.81233662  0.84022208  0.17290555
   0.75203652  0.90948383  0.25983212
   0.65458671  0.99160420  0.34944520
   0.57951152  0.10301601  0.43128672
   0.50163327  0.17147520  0.51310337
   0.41437095  0.26500849  0.57484845
   0.41947195  0.24732338  0.73464988
   0.34709676  0.33800722  0.83632541
   0.24621135  0.42905225  0.92258599
   0.16294437  0.51045244  0.99193331
   0.08025653  0.56813115  0.08803999
   0.99364654  0.67116444  0.15829992
   0.90487198  0.75290413  0.22668453
   0.84299518  0.82931816  0.34616420
   0.74699791  0.90727302  0.41956969
   0.66814885  0.00203675  0.48154708
   0.58601848  0.08336559  0.56403428
   0.50182192  0.16206720  0.65590578
   0.50163489  0.16034104  0.83716945
   0.41962178  0.23997297  0.91312943
   0.32223685  0.33597086  0.00324251
   0.23362397  0.42928962  0.08713686
   0.16930966  0.49733398  0.18246747
   0.07928361  0.56560903  0.26390136
   0.00050620  0.68093879  0.33396833
   0.91928325  0.72969393  0.42029331
   0.83583107  0.83636151  0.49389328
   0.75543208  0.92608310  0.56582601
   0.66353834  0.00748292  0.64947100
   0.58159758  0.10363623  0.73000194
   0.57759253  0.09623899  0.91891054
   0.49604219  0.15581346  0.00602098
   0.40641654  0.23533213  0.07142039
   0.33694509  0.32342673  0.16110171
   0.25686142  0.42917584  0.25961303
   0.17856090  0.50739445  0.34215047
   0.09627628  0.58442482  0.42578474
   0.02586412  0.67691262  0.49727094
   0.92392062  0.74011700  0.58370978
   0.83328960  0.83780304  0.65051821
   0.75379963  0.93157783  0.73139374
   0.65826741  0.00219316  0.81581633
   0.66258068  0.01201954  0.99240695
   0.59413253  0.08418356  0.09807576
   0.49520953  0.15227992  0.17205364
   0.41376411  0.25927329  0.24185600
   0.33782426  0.32894555  0.33446820
   0.25880783  0.40234425  0.42692720
   0.16067595  0.49196339  0.50588117
   0.10661506  0.59560511  0.60451566
   0.00227709  0.67537183  0.68660164
   0.89932199  0.75159653  0.74953217
   0.82209094  0.83906698  0.81775105
   0.74586494  0.91347058  0.90798036
   0.72100385  0.92550209  0.08414236
   0.65760243  0.98702038  0.18203232
   0.58827763  0.09154203  0.26730373
   0.49720258  0.19142835  0.34173573
   0.41336776  0.24796789  0.43246795
   0.31877782  0.33780697  0.51453608
   0.22297788  0.41980807  0.59883369
   0.15979956  0.50423611  0.66897560
   0.08151498  0.60865867  0.74883573
   0.99633377  0.67418148  0.84259559
   0.90101648  0.74834223  0.91510488
   0.81751448  0.82854662  0.99080550
   0.42561529  0.42540284  0.58012879
   0.32795341  0.50391906  0.67635438
   0.25508054  0.58190204  0.75712775
   0.16044074  0.68394270  0.83524084
   0.07881476  0.74445770  0.91378406
   0.99026895  0.84352917  0.98389329
   0.89998317  0.91543900  0.06257097
   0.82708250  0.00549937  0.17271516
   0.73802524  0.09076039  0.26069784
   0.67787994  0.18709326  0.34300050
   0.59643017  0.26318157  0.42938265
   0.50781844  0.34190109  0.50052511
   0.51380571  0.33300147  0.65278367
   0.44533099  0.42612245  0.74648755
   0.33998828  0.49982087  0.82762546
   0.24886118  0.59525358  0.91478600
   0.14989210  0.66883096  0.99120051
   0.09212617  0.75619099  0.08472497
   0.99257102  0.83370946  0.15027810
   0.92021862  0.90202005  0.26093926
   0.81502069  0.99974664  0.33544107
   0.74233238  0.09651781  0.42478560
   0.67073925  0.16434068  0.50259152
   0.57985491  0.25300845  0.57688618
   0.57633111  0.23770947  0.74528135
   0.51265450  0.31929943  0.82154731
   0.42910199  0.41352301  0.91685231
   0.33403098  0.49977127  0.98971519
   0.24805641  0.58232741  0.07174933
   0.17675571  0.64899251  0.17357420
   0.08797732  0.75807690  0.23418131
   0.00132769  0.81535016  0.32328670
   0.91604396  0.92431967  0.41382588
   0.83649711  0.01270750  0.49329603
   0.74691741  0.08684471  0.56546034
   0.66847415  0.17917875  0.65262968
   0.65638469  0.17870560  0.82745951
   0.58136852  0.23549499  0.93506889
   0.49186456  0.32049254  0.01112437
   0.41356752  0.42373255  0.09850549
   0.32700363  0.49627522  0.16176788
   0.26566511  0.59526844  0.26216064
   0.17879492  0.66766618  0.34538748
   0.08605658  0.76616832  0.42172445
   0.00174256  0.82821780  0.50118534
   0.91941816  0.92456026  0.56822203
   0.84070411  0.00414769  0.65359622
   0.75181778  0.08610127  0.73473045
   0.74895357  0.08889089  0.90449415
   0.68184132  0.17980337  0.01555131
   0.56261478  0.23318161  0.08839392
   0.49970843  0.31798596  0.18097756
   0.40953985  0.42106914  0.25022427
   0.33433814  0.49654939  0.34201302
   0.25106069  0.57875833  0.41932061
   0.17111659  0.66628477  0.49417998
   0.09866275  0.74678851  0.58749901
   0.99795998  0.83091793  0.66814820
   0.92475820  0.92165735  0.75170353
   0.82329503  0.00647717  0.82467976
   0.81611722  0.01828672  0.01465052
   0.74096897  0.08327545  0.10000825
   0.66362409  0.17700624  0.18075123
   0.59327264  0.25641987  0.27491217
   0.49824680  0.33120058  0.33452768
   0.41161529  0.40518956  0.43262059
   0.32664398  0.47824201  0.49889136
   0.25544107  0.58195544  0.58094295
   0.18432593  0.66995373  0.67011041
   0.07808723  0.75649149  0.75322697
   0.99092878  0.82455896  0.83850228
   0.89281984  0.91021147  0.90991878
