 504 504   0   0
  0.2106490E+02  0.2170700E-08  0.2148436E-08  0.2276500E-08  0.5000000E-15
  1.000000000000000E-004
  CAR 
 Li                                      
      3.25212595     -3.48043505  301      0.29773306      1.00000000
     -3.480  0.0000E+00  0.0000E+00
     -3.458  0.0000E+00  0.0000E+00
     -3.436  0.0000E+00  0.0000E+00
     -3.413  0.0000E+00  0.0000E+00
     -3.391  0.0000E+00  0.0000E+00
     -3.368  0.0000E+00  0.0000E+00
     -3.346  0.2597E-13  0.5829E-15
     -3.323  0.9083E-10  0.2039E-11
     -3.301  0.1031E-06  0.2316E-08
     -3.278  0.3925E-04  0.8833E-06
     -3.256  0.5052E-02  0.1143E-03
     -3.234  0.2225E+00  0.5107E-02
     -3.211  0.3402E+01  0.8145E-01
     -3.189  0.1837E+02  0.4937E+00
     -3.166  0.3554E+02  0.1291E+01
     -3.144  0.2484E+02  0.1849E+01
     -3.121  0.7328E+01  0.2013E+01
     -3.099  0.1154E+02  0.2272E+01
     -3.076  0.4555E+02  0.3294E+01
     -3.054  0.8729E+02  0.5253E+01
     -3.032  0.8087E+02  0.7068E+01
     -3.009  0.3515E+02  0.7857E+01
     -2.987  0.1290E+02  0.8147E+01
     -2.964  0.3526E+02  0.8938E+01
     -2.942  0.7981E+02  0.1073E+02
     -2.919  0.8643E+02  0.1267E+02
     -2.897  0.4754E+02  0.1374E+02
     -2.875  0.2296E+02  0.1425E+02
     -2.852  0.4285E+02  0.1521E+02
     -2.830  0.8215E+02  0.1706E+02
     -2.807  0.1059E+03  0.1943E+02
     -2.785  0.8143E+02  0.2126E+02
     -2.762  0.4150E+02  0.2219E+02
     -2.740  0.5735E+02  0.2348E+02
     -2.717  0.1108E+03  0.2597E+02
     -2.695  0.1417E+03  0.2915E+02
     -2.673  0.1256E+03  0.3196E+02
     -2.650  0.7033E+02  0.3354E+02
     -2.628  0.3156E+02  0.3425E+02
     -2.605  0.4602E+02  0.3528E+02
     -2.583  0.8052E+02  0.3709E+02
     -2.560  0.8551E+02  0.3901E+02
     -2.538  0.6023E+02  0.4036E+02
     -2.515  0.5640E+02  0.4163E+02
     -2.493  0.7598E+02  0.4333E+02
     -2.471  0.1055E+03  0.4570E+02
     -2.448  0.1258E+03  0.4852E+02
     -2.426  0.1201E+03  0.5122E+02
     -2.403  0.1039E+03  0.5355E+02
     -2.381  0.1080E+03  0.5597E+02
     -2.358  0.1328E+03  0.5895E+02
     -2.336  0.1695E+03  0.6276E+02
     -2.313  0.1693E+03  0.6655E+02
     -2.291  0.1228E+03  0.6931E+02
     -2.269  0.7462E+02  0.7099E+02
     -2.246  0.4565E+02  0.7201E+02
     -2.224  0.5040E+02  0.7314E+02
     -2.201  0.7162E+02  0.7475E+02
     -2.179  0.6818E+02  0.7628E+02
     -2.156  0.8349E+02  0.7815E+02
     -2.134  0.1185E+03  0.8081E+02
     -2.111  0.1399E+03  0.8395E+02
     -2.089  0.1454E+03  0.8721E+02
     -2.067  0.1323E+03  0.9018E+02
     -2.044  0.1130E+03  0.9272E+02
     -2.022  0.1170E+03  0.9534E+02
     -1.999  0.1364E+03  0.9841E+02
     -1.977  0.1675E+03  0.1022E+03
     -1.954  0.1874E+03  0.1064E+03
     -1.932  0.1467E+03  0.1097E+03
     -1.910  0.7872E+02  0.1114E+03
     -1.887  0.5050E+02  0.1126E+03
     -1.865  0.8860E+02  0.1146E+03
     -1.842  0.1337E+03  0.1176E+03
     -1.820  0.1364E+03  0.1206E+03
     -1.797  0.1326E+03  0.1236E+03
     -1.775  0.1423E+03  0.1268E+03
     -1.752  0.1607E+03  0.1304E+03
     -1.730  0.1780E+03  0.1344E+03
     -1.708  0.1669E+03  0.1381E+03
     -1.685  0.1344E+03  0.1411E+03
     -1.663  0.1218E+03  0.1439E+03
     -1.640  0.1362E+03  0.1469E+03
     -1.618  0.1522E+03  0.1504E+03
     -1.595  0.1639E+03  0.1540E+03
     -1.573  0.1575E+03  0.1576E+03
     -1.550  0.1259E+03  0.1604E+03
     -1.528  0.9502E+02  0.1625E+03
     -1.506  0.9397E+02  0.1646E+03
     -1.483  0.1092E+03  0.1671E+03
     -1.461  0.1074E+03  0.1695E+03
     -1.438  0.1125E+03  0.1720E+03
     -1.416  0.1419E+03  0.1752E+03
     -1.393  0.1524E+03  0.1786E+03
     -1.371  0.1501E+03  0.1820E+03
     -1.348  0.1626E+03  0.1856E+03
     -1.326  0.1720E+03  0.1895E+03
     -1.304  0.1660E+03  0.1932E+03
     -1.281  0.1793E+03  0.1972E+03
     -1.259  0.2148E+03  0.2021E+03
     -1.236  0.2264E+03  0.2071E+03
     -1.214  0.2083E+03  0.2118E+03
     -1.191  0.1928E+03  0.2162E+03
     -1.169  0.1802E+03  0.2202E+03
     -1.146  0.1626E+03  0.2238E+03
     -1.124  0.1483E+03  0.2272E+03
     -1.102  0.1296E+03  0.2301E+03
     -1.079  0.1093E+03  0.2325E+03
     -1.057  0.1223E+03  0.2353E+03
     -1.034  0.1521E+03  0.2387E+03
     -1.012  0.1620E+03  0.2423E+03
     -0.989  0.1574E+03  0.2459E+03
     -0.967  0.1580E+03  0.2494E+03
     -0.945  0.1690E+03  0.2532E+03
     -0.922  0.1822E+03  0.2573E+03
     -0.900  0.1917E+03  0.2616E+03
     -0.877  0.1839E+03  0.2657E+03
     -0.855  0.1580E+03  0.2693E+03
     -0.832  0.1381E+03  0.2724E+03
     -0.810  0.1507E+03  0.2757E+03
     -0.787  0.1727E+03  0.2796E+03
     -0.765  0.1592E+03  0.2832E+03
     -0.743  0.1409E+03  0.2864E+03
     -0.720  0.1572E+03  0.2899E+03
     -0.698  0.1908E+03  0.2942E+03
     -0.675  0.2202E+03  0.2991E+03
     -0.653  0.2359E+03  0.3044E+03
     -0.630  0.2220E+03  0.3094E+03
     -0.608  0.2002E+03  0.3139E+03
     -0.585  0.1984E+03  0.3183E+03
     -0.563  0.2274E+03  0.3234E+03
     -0.541  0.2521E+03  0.3291E+03
     -0.518  0.2209E+03  0.3340E+03
     -0.496  0.1747E+03  0.3380E+03
     -0.473  0.1518E+03  0.3414E+03
     -0.451  0.1540E+03  0.3448E+03
     -0.428  0.1735E+03  0.3487E+03
     -0.406  0.1856E+03  0.3529E+03
     -0.383  0.1763E+03  0.3568E+03
     -0.361  0.1688E+03  0.3606E+03
     -0.339  0.1869E+03  0.3648E+03
     -0.316  0.2044E+03  0.3694E+03
     -0.294  0.1971E+03  0.3738E+03
     -0.271  0.1816E+03  0.3779E+03
     -0.249  0.1908E+03  0.3822E+03
     -0.226  0.2123E+03  0.3870E+03
     -0.204  0.2273E+03  0.3921E+03
     -0.181  0.2437E+03  0.3975E+03
     -0.159  0.2545E+03  0.4032E+03
     -0.137  0.2545E+03  0.4090E+03
     -0.114  0.2475E+03  0.4145E+03
     -0.092  0.2184E+03  0.4194E+03
     -0.069  0.1919E+03  0.4237E+03
     -0.047  0.2002E+03  0.4282E+03
     -0.024  0.2152E+03  0.4330E+03
     -0.002  0.2157E+03  0.4379E+03
      0.020  0.2155E+03  0.4427E+03
      0.043  0.2129E+03  0.4475E+03
      0.065  0.2063E+03  0.4521E+03
      0.088  0.2029E+03  0.4567E+03
      0.110  0.1965E+03  0.4611E+03
      0.133  0.1926E+03  0.4654E+03
      0.155  0.1958E+03  0.4698E+03
      0.178  0.2088E+03  0.4745E+03
      0.200  0.2171E+03  0.4794E+03
      0.222  0.2245E+03  0.4844E+03
      0.245  0.2433E+03  0.4899E+03
      0.267  0.2653E+03  0.4958E+03
      0.290  0.2697E+03  0.5019E+03
      0.312  0.2726E+03  0.5080E+03
      0.335  0.2864E+03  0.5144E+03
      0.357  0.2955E+03  0.5210E+03
      0.380  0.2897E+03  0.5275E+03
      0.402  0.2759E+03  0.5337E+03
      0.424  0.2789E+03  0.5400E+03
      0.447  0.2867E+03  0.5464E+03
      0.469  0.2806E+03  0.5527E+03
      0.492  0.2696E+03  0.5588E+03
      0.514  0.2486E+03  0.5643E+03
      0.537  0.2361E+03  0.5696E+03
      0.559  0.2347E+03  0.5749E+03
      0.582  0.2355E+03  0.5802E+03
      0.604  0.2298E+03  0.5854E+03
      0.626  0.2200E+03  0.5903E+03
      0.649  0.2125E+03  0.5951E+03
      0.671  0.2096E+03  0.5998E+03
      0.694  0.2132E+03  0.6045E+03
      0.716  0.2158E+03  0.6094E+03
      0.739  0.2056E+03  0.6140E+03
      0.761  0.1988E+03  0.6185E+03
      0.784  0.2026E+03  0.6230E+03
      0.806  0.2022E+03  0.6275E+03
      0.828  0.2029E+03  0.6321E+03
      0.851  0.2132E+03  0.6369E+03
      0.873  0.2272E+03  0.6420E+03
      0.896  0.2408E+03  0.6474E+03
      0.918  0.2481E+03  0.6530E+03
      0.941  0.2524E+03  0.6586E+03
      0.963  0.2540E+03  0.6643E+03
      0.985  0.2536E+03  0.6700E+03
      1.008  0.2440E+03  0.6755E+03
      1.030  0.2349E+03  0.6808E+03
      1.053  0.2306E+03  0.6859E+03
      1.075  0.2288E+03  0.6911E+03
      1.098  0.2290E+03  0.6962E+03
      1.120  0.2280E+03  0.7013E+03
      1.143  0.2232E+03  0.7063E+03
      1.165  0.2205E+03  0.7113E+03
      1.187  0.2158E+03  0.7161E+03
      1.210  0.2117E+03  0.7209E+03
      1.232  0.2159E+03  0.7257E+03
      1.255  0.2224E+03  0.7307E+03
      1.277  0.2242E+03  0.7357E+03
      1.300  0.2101E+03  0.7405E+03
      1.322  0.1963E+03  0.7449E+03
      1.345  0.2115E+03  0.7496E+03
      1.367  0.2293E+03  0.7548E+03
      1.389  0.2285E+03  0.7599E+03
      1.412  0.2228E+03  0.7649E+03
      1.434  0.2201E+03  0.7698E+03
      1.457  0.2203E+03  0.7748E+03
      1.479  0.2197E+03  0.7797E+03
      1.502  0.2250E+03  0.7847E+03
      1.524  0.2243E+03  0.7898E+03
      1.547  0.2177E+03  0.7947E+03
      1.569  0.2117E+03  0.7994E+03
      1.591  0.2148E+03  0.8042E+03
      1.614  0.2258E+03  0.8093E+03
      1.636  0.2254E+03  0.8144E+03
      1.659  0.2235E+03  0.8194E+03
      1.681  0.2265E+03  0.8245E+03
      1.704  0.2309E+03  0.8296E+03
      1.726  0.2274E+03  0.8347E+03
      1.749  0.2129E+03  0.8395E+03
      1.771  0.2059E+03  0.8441E+03
      1.793  0.1989E+03  0.8486E+03
      1.816  0.1900E+03  0.8529E+03
      1.838  0.1950E+03  0.8573E+03
      1.861  0.1976E+03  0.8617E+03
      1.883  0.1894E+03  0.8659E+03
      1.906  0.1867E+03  0.8701E+03
      1.928  0.1924E+03  0.8744E+03
      1.950  0.1978E+03  0.8789E+03
      1.973  0.1923E+03  0.8832E+03
      1.995  0.1882E+03  0.8874E+03
      2.018  0.1819E+03  0.8915E+03
      2.040  0.1755E+03  0.8954E+03
      2.063  0.1748E+03  0.8994E+03
      2.085  0.1707E+03  0.9032E+03
      2.108  0.1661E+03  0.9069E+03
      2.130  0.1601E+03  0.9105E+03
      2.152  0.1489E+03  0.9139E+03
      2.175  0.1409E+03  0.9170E+03
      2.197  0.1431E+03  0.9202E+03
      2.220  0.1474E+03  0.9235E+03
      2.242  0.1461E+03  0.9268E+03
      2.265  0.1534E+03  0.9303E+03
      2.287  0.1592E+03  0.9338E+03
      2.310  0.1543E+03  0.9373E+03
      2.332  0.1443E+03  0.9405E+03
      2.354  0.1382E+03  0.9436E+03
      2.377  0.1389E+03  0.9468E+03
      2.399  0.1464E+03  0.9500E+03
      2.422  0.1615E+03  0.9537E+03
      2.444  0.1654E+03  0.9574E+03
      2.467  0.1551E+03  0.9609E+03
      2.489  0.1408E+03  0.9640E+03
      2.512  0.1318E+03  0.9670E+03
      2.534  0.1361E+03  0.9700E+03
      2.556  0.1361E+03  0.9731E+03
      2.579  0.1297E+03  0.9760E+03
      2.601  0.1345E+03  0.9790E+03
      2.624  0.1350E+03  0.9820E+03
      2.646  0.1286E+03  0.9849E+03
      2.669  0.1195E+03  0.9876E+03
      2.691  0.1077E+03  0.9900E+03
      2.714  0.1058E+03  0.9924E+03
      2.736  0.1107E+03  0.9949E+03
      2.758  0.1073E+03  0.9973E+03
      2.781  0.1068E+03  0.9997E+03
      2.803  0.9704E+02  0.1002E+04
      2.826  0.8057E+02  0.1004E+04
      2.848  0.6393E+02  0.1005E+04
      2.871  0.4669E+02  0.1006E+04
      2.893  0.4265E+02  0.1007E+04
      2.915  0.4594E+02  0.1008E+04
      2.938  0.4427E+02  0.1009E+04
      2.960  0.2793E+02  0.1010E+04
      2.983  0.8757E+01  0.1010E+04
      3.005  0.1206E+01  0.1010E+04
      3.028  0.6739E-01  0.1010E+04
      3.050  0.1422E-02  0.1010E+04
      3.073  0.1074E-04  0.1010E+04
      3.095  0.2801E-07  0.1010E+04
      3.117  0.2475E-10  0.1010E+04
      3.140  0.7421E-14  0.1010E+04
      3.162  0.0000E+00  0.1010E+04
      3.185  0.0000E+00  0.1010E+04
      3.207  0.0000E+00  0.1010E+04
      3.230  0.0000E+00  0.1010E+04
      3.252  0.0000E+00  0.1010E+04
