       N       E                     dE             d eps       ncg     rms          rms(c)
DAV:   1    -0.295134867236E+03   -0.29513E+03   -0.12111E+05  4040   0.652E+02
DAV:   2    -0.889076518323E+03   -0.59394E+03   -0.54367E+03  4636   0.663E+01
DAV:   3    -0.931925510806E+03   -0.42849E+02   -0.39115E+02  5216   0.141E+01
DAV:   4    -0.933410759072E+03   -0.14852E+01   -0.14615E+01  4720   0.285E+00
DAV:   5    -0.933445250728E+03   -0.34492E-01   -0.34423E-01  4888   0.462E-01    0.938E+00
DAV:   6    -0.936016335429E+03   -0.25711E+01   -0.11580E+01  4792   0.537E+00    0.937E+00
DAV:   7    -0.922665434663E+03    0.13351E+02   -0.11680E+01  4800   0.518E+00    0.491E+00
DAV:   8    -0.920715359633E+03    0.19501E+01   -0.64004E+00  4656   0.262E+00    0.323E+00
DAV:   9    -0.920268610099E+03    0.44675E+00   -0.29646E+00  4632   0.191E+00    0.244E+00
DAV:  10    -0.919543656995E+03    0.72495E+00   -0.14710E+00  4592   0.125E+00    0.113E+00
DAV:  11    -0.919513406096E+03    0.30251E-01   -0.54915E-01  4304   0.541E-01    0.641E-01
DAV:  12    -0.919523592528E+03   -0.10186E-01   -0.88550E-02  4928   0.333E-01    0.554E-01
DAV:  13    -0.919499297202E+03    0.24295E-01   -0.39037E-02  4688   0.252E-01    0.334E-01
DAV:  14    -0.919494764553E+03    0.45326E-02   -0.14483E-02  4664   0.149E-01    0.210E-01
DAV:  15    -0.919492592495E+03    0.21721E-02   -0.81302E-03  4704   0.114E-01    0.142E-01
DAV:  16    -0.919490754255E+03    0.18382E-02   -0.38372E-03  4584   0.665E-02    0.585E-02
DAV:  17    -0.919490824105E+03   -0.69850E-04   -0.11687E-03  4592   0.353E-02    0.467E-02
DAV:  18    -0.919490639182E+03    0.18492E-03   -0.53792E-04  4584   0.254E-02    0.283E-02
DAV:  19    -0.919490558845E+03    0.80337E-04   -0.15923E-04  4544   0.133E-02    0.146E-02
DAV:  20    -0.919490537611E+03    0.21235E-04   -0.66731E-05  4336   0.718E-03    0.678E-03
DAV:  21    -0.919490537910E+03   -0.29926E-06   -0.12157E-05  2840   0.451E-03
   1 F= -.91949054E+03 E0= -.91942965E+03  d E =-.121781E+00
