Li                                      
           1
   -10.853500   18.798813    0.000000
   -18.606000  -10.742179    0.000000
     0.000000    0.000000   22.765000
   Li
   504
Direct configuration=     1
   0.98745534  0.00143673  0.00311561
   0.94283891  0.05597826  0.66251380
   0.86325078  0.10005819  0.33533391
   0.78359948  0.13010683  0.00066837
   0.72161291  0.17762943  0.66684406
   0.65029383  0.22177384  0.34743944
   0.56702357  0.25269173  0.99334899
   0.52669757  0.30136324  0.65791501
   0.42158868  0.32257354  0.33169777
   0.36260073  0.35999699  0.99543875
   0.28351810  0.40902463  0.65716729
   0.22477376  0.45085859  0.35049849
   0.08696380  0.03400173  0.66608836
   0.00810135  0.07903403  0.34584091
   0.93395715  0.13516337  0.00857876
   0.86261047  0.17093104  0.68805093
   0.77595207  0.21037933  0.33822386
   0.72288782  0.26453300  0.00438194
   0.63962589  0.30912169  0.67640775
   0.55605021  0.33285453  0.33700304
   0.48585640  0.37365741  0.99869001
   0.43986463  0.41316119  0.66585373
   0.36512530  0.44161813  0.34027223
   0.28050426  0.49512463  0.00585556
   0.12924785  0.07967152  0.35513630
   0.08250699  0.13055143  0.01418881
   0.99083202  0.15770115  0.69093885
   0.92011659  0.22628416  0.33752197
   0.86474976  0.25849146  0.01534280
   0.79505607  0.31086104  0.68501742
   0.70099351  0.31955744  0.32568290
   0.64025217  0.37576850  0.99523062
   0.57896261  0.41852473  0.65682641
   0.50623176  0.46278449  0.33446041
   0.42378804  0.49981788  0.98889251
   0.35227783  0.54783388  0.67336108
   0.22094513  0.12713035  0.00620264
   0.13290309  0.16472396  0.64451122
   0.07189779  0.20099067  0.35719140
   0.99001105  0.24747520  0.01739763
   0.94978146  0.29519770  0.68641639
   0.83462717  0.32074598  0.34840891
   0.77545643  0.39003665  0.01717152
   0.71693323  0.42235390  0.67491515
   0.64393932  0.45370169  0.34600564
   0.56569654  0.49348243  0.01230800
   0.50189965  0.54945306  0.67096488
   0.42429232  0.57809218  0.33593508
   0.29406258  0.17088628  0.66528547
   0.21774462  0.19087953  0.35186614
   0.14751348  0.26822918  0.99364132
   0.05709211  0.30322644  0.66383602
   0.99435180  0.33510439  0.34126884
   0.93579802  0.37029462  0.99574498
   0.85119939  0.41123313  0.67277844
   0.77395801  0.43554496  0.32366177
   0.72184955  0.51422914  0.00911589
   0.64474016  0.54921772  0.66555798
   0.58495932  0.58799270  0.33004202
   0.50358275  0.63807320  0.99278839
   0.34594304  0.22116607  0.34453691
   0.30109638  0.24739669  0.00282360
   0.20226618  0.29778431  0.66380039
   0.13426282  0.32563487  0.34018096
   0.07124602  0.37122893  0.99519195
   0.99897549  0.43019882  0.66544094
   0.90894923  0.43960779  0.32835638
   0.85890225  0.50107627  0.99073151
   0.76795675  0.54463149  0.65675759
   0.71159482  0.58055983  0.34164156
   0.64521222  0.61671885  0.99926796
   0.58578320  0.66281120  0.65980663
   0.44255717  0.24692286  0.99513226
   0.36307074  0.30574824  0.67806272
   0.29304265  0.32339722  0.35356872
   0.21971636  0.38983321  0.00854335
   0.15113905  0.41453865  0.64230191
   0.07280252  0.45237363  0.31437716
   0.99892572  0.49344498  0.99591080
   0.92588820  0.57120739  0.66528333
   0.85783226  0.55575652  0.32376279
   0.76115399  0.62771717  0.00328561
   0.70357989  0.67132928  0.65191672
   0.63610235  0.70788670  0.32611023
   0.13364910  0.50026622  0.00266971
   0.05956694  0.54555358  0.64420166
   0.99479886  0.59449741  0.32968917
   0.89190136  0.62060173  0.00358905
   0.85431892  0.69456873  0.63509712
   0.78267674  0.70426601  0.33939776
   0.69905830  0.75386797  0.97230807
   0.20676217  0.53778936  0.67690380
   0.14309264  0.57907500  0.31210560
   0.06248351  0.62343778  0.99513674
   0.98829192  0.67422525  0.66819187
   0.91753157  0.70520372  0.33348948
   0.83777970  0.75076624  0.99580655
   0.75979138  0.80602881  0.66104119
   0.28459871  0.56412659  0.34760759
   0.23728401  0.61470465  0.00304616
   0.12708117  0.67332199  0.66970588
   0.06460755  0.72932415  0.32361062
   0.98571368  0.74057632  0.99469643
   0.91002890  0.79023276  0.67346659
   0.86245003  0.82490771  0.33520166
   0.36576169  0.64259253  0.01074504
   0.28226161  0.65402410  0.66650329
   0.22173842  0.71150857  0.35093216
   0.13115036  0.72978470  0.02212905
   0.06608461  0.78092022  0.66022280
   0.97400209  0.83872839  0.32024679
   0.91548961  0.87022222  0.99479582
   0.44041734  0.68492529  0.66878826
   0.37607475  0.69404943  0.35171875
   0.28336425  0.75103710  0.99933244
   0.20431982  0.78134158  0.69451980
   0.14412068  0.81448925  0.34345327
   0.06360022  0.84747360  0.01701211
   0.99876033  0.90986840  0.65624159
   0.92711566  0.96504586  0.34182947
   0.85084166  0.00236483  0.99659444
   0.78874871  0.07251694  0.66423405
   0.72383656  0.09047637  0.32629862
   0.65095241  0.13013115  0.00673582
   0.58226735  0.17843100  0.65992792
   0.49893153  0.19940869  0.32333659
   0.07342513  0.94692670  0.34970367
   0.12336054  0.99201076  0.99474737
   0.21093426  0.05563415  0.65677014
   0.30039326  0.08235074  0.34693704
   0.37294979  0.11076749  0.98571871
   0.44823797  0.18794416  0.65619202
   0.87013944  0.93132564  0.65571842
   0.79735225  0.96083804  0.31916118
   0.69384521  0.00412702  0.00164845
   0.64803811  0.03531245  0.67176297
   0.57882753  0.09312483  0.32478788
   0.50515599  0.12420459  0.00620488
   0.16497291  0.92956374  0.67335470
   0.22202442  0.93908980  0.33674320
   0.29892265  0.01553486  0.99564863
   0.36303153  0.04423851  0.66867772
   0.42191358  0.07355808  0.31729649
   0.78758442  0.88482002  0.01305204
   0.72721821  0.92038303  0.66988024
   0.65684760  0.96223672  0.33851992
   0.58132152  0.99968139  0.98959101
   0.48933365  0.06272145  0.66887811
   0.20689391  0.89327123  0.00111992
   0.27917232  0.91616599  0.66915371
   0.37038786  0.92751141  0.35175211
   0.42013746  0.97939271  0.97946358
   0.73427906  0.83880615  0.31974630
   0.63714330  0.88867196  0.99364849
   0.57505427  0.93358563  0.65804905
   0.52482768  0.96121545  0.33386785
   0.30625741  0.82508794  0.33552736
   0.34615595  0.85188317  0.99156836
   0.43748941  0.91485155  0.66418422
   0.63347973  0.79748780  0.65094510
   0.60614911  0.84735450  0.30673960
   0.50248680  0.86472286  0.99165799
   0.35558710  0.78273364  0.64626221
   0.47707522  0.81917347  0.32658816
   0.55777435  0.74717308  0.98691434
   0.48802248  0.79517719  0.66442436
   0.42799678  0.76136192  0.99051225
   0.50065632  0.70773488  0.33781498
   0.01778995  0.99512129  0.77418544
   0.93461042  0.03513679  0.44540280
   0.86437508  0.08570799  0.10619512
   0.78304192  0.13495725  0.79090112
   0.70350675  0.16736281  0.44074246
   0.65783013  0.22223545  0.11693073
   0.56116734  0.24941059  0.78009138
   0.50725639  0.29524147  0.44996855
   0.43255459  0.34100486  0.11660966
   0.36786014  0.40322743  0.77734803
   0.29208662  0.40286768  0.45252107
   0.20581568  0.45148743  0.12955971
   0.08258710  0.02523178  0.43923721
   0.00557695  0.07124664  0.12469608
   0.93261319  0.10645685  0.79245394
   0.84094600  0.18541707  0.44788113
   0.79405805  0.22156867  0.12478683
   0.72149177  0.25356247  0.79901635
   0.62231134  0.31862030  0.42918477
   0.56201231  0.34009766  0.10639657
   0.50768899  0.37929739  0.77866456
   0.41952053  0.41277018  0.45362225
   0.36901934  0.44947634  0.10670902
   0.27594895  0.49675121  0.77122600
   0.15384264  0.09017016  0.13376566
   0.08573625  0.12031300  0.78905007
   0.00734312  0.16139865  0.46948395
   0.92864964  0.21311869  0.12637414
   0.85822030  0.22536356  0.79197190
   0.78125521  0.28735449  0.45837287
   0.71326909  0.33496435  0.11078324
   0.64618344  0.36750984  0.76904605
   0.55292710  0.42742525  0.46607168
   0.49398060  0.46292413  0.10484724
   0.42245823  0.50283988  0.77871546
   0.35785988  0.54410815  0.45453256
   0.22270847  0.10371958  0.76521603
   0.13144518  0.18433879  0.46982173
   0.07142531  0.20870593  0.10331406
   0.01118050  0.24513451  0.78645715
   0.93564358  0.29373083  0.44961038
   0.87171583  0.34634843  0.12832666
   0.79692995  0.38121481  0.77389830
   0.72211830  0.40723074  0.44752283
   0.65203340  0.45544666  0.11005013
   0.56164608  0.50776121  0.77672934
   0.50193876  0.56110562  0.45073913
   0.42149523  0.57897719  0.10261400
   0.28977310  0.16288756  0.46311277
   0.21030987  0.19909491  0.13450491
   0.15140163  0.24958476  0.73957114
   0.06519024  0.28801424  0.44312302
   0.00751946  0.33466863  0.12637869
   0.94003994  0.36684305  0.79261147
   0.85659152  0.40863859  0.45802940
   0.77654426  0.47812383  0.11515884
   0.70149211  0.49745161  0.78371471
   0.64308271  0.54580489  0.44422405
   0.56585241  0.60222594  0.13209725
   0.49587917  0.63186083  0.78446767
   0.34509977  0.21725857  0.11419268
   0.27402779  0.25990966  0.76974247
   0.22220189  0.27888977  0.42611253
   0.13635401  0.34306547  0.10136150
   0.06489142  0.38242857  0.76213825
   0.02641038  0.42078562  0.43564755
   0.91301114  0.44472234  0.11481746
   0.84697840  0.50913172  0.77453302
   0.78867478  0.52704437  0.42902133
   0.70227314  0.58843729  0.09772762
   0.62334927  0.61944400  0.76373281
   0.58270542  0.65495604  0.44850710
   0.42356353  0.26432680  0.77328742
   0.36596533  0.27888940  0.44037177
   0.28346412  0.32718978  0.11659544
   0.20633051  0.38222386  0.76390687
   0.13946153  0.40378258  0.42991884
   0.08169051  0.47055753  0.11248975
   0.98187532  0.51825246  0.78142760
   0.91678341  0.53271058  0.46589866
   0.82312957  0.57236446  0.11612964
   0.76915259  0.63480440  0.75045725
   0.72210983  0.66402186  0.43701576
   0.62208361  0.70935502  0.10117959
   0.10115804  0.50640952  0.76339116
   0.07899540  0.53871606  0.43457606
   0.97369680  0.56852190  0.09668610
   0.88352072  0.66351297  0.77658235
   0.86807223  0.66600199  0.44109226
   0.76302963  0.70101240  0.10728357
   0.68579877  0.75801490  0.77080741
   0.21618022  0.55287690  0.43647899
   0.14093869  0.57716189  0.13072679
   0.04289709  0.62288994  0.76346361
   0.00671794  0.65216085  0.45490004
   0.92585157  0.70142338  0.10998464
   0.82395357  0.75953155  0.78615861
   0.80534130  0.77848598  0.44060078
   0.28930086  0.57140099  0.11630215
   0.20004382  0.62357783  0.78936902
   0.13667628  0.67061847  0.43073938
   0.06462501  0.70359681  0.12840021
   0.98117010  0.76387388  0.77587315
   0.93832248  0.78937416  0.44106035
   0.86077152  0.82837261  0.10887557
   0.36171193  0.61740995  0.78048953
   0.28750276  0.66507131  0.45249727
   0.24313079  0.71208440  0.12448235
   0.12436551  0.76006488  0.79007203
   0.07370771  0.79140949  0.44136891
   0.99286746  0.82701544  0.12311736
   0.92781999  0.87990860  0.76179232
   0.43799950  0.66179769  0.43850360
   0.36608662  0.72058162  0.11053585
   0.28338388  0.75445337  0.77832777
   0.20620645  0.79711649  0.46535131
   0.14950584  0.81668699  0.11635112
   0.08932036  0.86846559  0.76737592
   0.99308101  0.91236097  0.43975989
   0.91782970  0.95816603  0.09540414
   0.86028635  0.02403853  0.78356766
   0.79661750  0.04804338  0.44784614
   0.73272475  0.08989532  0.11536815
   0.64278561  0.14612119  0.75855004
   0.57238708  0.18550086  0.46343530
   0.50371570  0.20725137  0.10335812
   0.06668826  0.95527863  0.12092970
   0.17206198  0.97251716  0.76871430
   0.20200357  0.04904977  0.44565479
   0.28730271  0.10258658  0.12265343
   0.37380568  0.15210466  0.78027584
   0.43939066  0.16693015  0.43572200
   0.85797208  0.91164436  0.43234125
   0.77820446  0.94320164  0.10554624
   0.70801801  0.00231724  0.76511649
   0.64715242  0.05512640  0.44376645
   0.58917102  0.08670602  0.13432860
   0.49619564  0.12560905  0.76451240
   0.14834649  0.90741588  0.43826845
   0.21153496  0.96315117  0.08652519
   0.29595263  0.98742250  0.77825383
   0.37465922  0.02893967  0.46190655
   0.41181488  0.07202235  0.12073930
   0.79367646  0.88299877  0.76412371
   0.73371653  0.90877648  0.43771065
   0.66482561  0.96359769  0.10936078
   0.58066567  0.01620518  0.77479171
   0.49638738  0.04747859  0.43626557
   0.23085176  0.87147187  0.79042057
   0.30011005  0.91989929  0.46317275
   0.34072073  0.95436650  0.10769818
   0.45180259  0.00184994  0.77511679
   0.70407700  0.83534374  0.10076569
   0.63225605  0.86427645  0.77185517
   0.57696717  0.91221902  0.43952649
   0.52306837  0.94145939  0.10321425
   0.26992426  0.82141375  0.13359669
   0.36392977  0.86892749  0.77521282
   0.45394230  0.89826313  0.44201238
   0.66386682  0.78459125  0.44515666
   0.57272206  0.81884649  0.10772226
   0.50623335  0.88122416  0.77051710
   0.36308780  0.79711971  0.44055874
   0.44128536  0.82748208  0.12326175
   0.56006801  0.74311403  0.75978473
   0.51349309  0.78128117  0.43429663
   0.41921895  0.75304839  0.78046201
   0.49498242  0.68414445  0.11425912
   0.01049073  0.01047753  0.23459490
   0.93301521  0.03885994  0.89350461
   0.87325196  0.08232077  0.56163196
   0.81740589  0.14356719  0.21977691
   0.69007478  0.17573699  0.88820480
   0.64769328  0.21328575  0.54398836
   0.57189308  0.22714734  0.22185555
   0.49327732  0.30011689  0.90465883
   0.43064309  0.33450795  0.55950357
   0.35509640  0.37438476  0.22721984
   0.31778318  0.41008631  0.88660504
   0.20021564  0.46797031  0.53547051
   0.06744805  0.04481679  0.89641449
   0.01544400  0.07413687  0.54404523
   0.97828470  0.12129296  0.22922640
   0.86003169  0.16513942  0.91640956
   0.78644295  0.20775885  0.57343031
   0.72306771  0.24710239  0.22138953
   0.62819108  0.28820385  0.87730795
   0.58840284  0.34043993  0.56536415
   0.50734693  0.36358913  0.23057973
   0.43672850  0.41704193  0.87728295
   0.34961342  0.45209417  0.55196595
   0.30222112  0.47792734  0.21860558
   0.15195537  0.09680672  0.54277744
   0.09574027  0.10997161  0.23378664
   0.01289353  0.16523835  0.89593402
   0.92443961  0.22519305  0.55151025
   0.86594639  0.24216712  0.24978113
   0.78333703  0.29836683  0.89731606
   0.71379510  0.33818417  0.57284348
   0.65271746  0.36675205  0.22784378
   0.57505487  0.42372207  0.88377002
   0.50231736  0.46543099  0.56743013
   0.44530054  0.48201710  0.21133068
   0.35938448  0.55617004  0.88092288
   0.23360926  0.11990491  0.25702484
   0.14310055  0.18379067  0.88289409
   0.05670292  0.22322657  0.57244753
   0.02167548  0.25866563  0.23248299
   0.91898578  0.29260498  0.89193078
   0.85796480  0.34031908  0.55900723
   0.78757997  0.37058318  0.22310572
   0.71538904  0.41221464  0.87419126
   0.62356418  0.45809502  0.56930887
   0.56546132  0.49669751  0.21563539
   0.49530346  0.55506528  0.88430752
   0.43017520  0.57869980  0.55588306
   0.31100735  0.17786528  0.87783832
   0.19910316  0.20252329  0.55759169
   0.14192311  0.24815391  0.21147749
   0.07210522  0.29655252  0.87124312
   0.99105320  0.33666996  0.53904561
   0.91269714  0.36567014  0.24253310
   0.84706187  0.42357162  0.87709529
   0.78661265  0.47377229  0.56016116
   0.71170557  0.49173364  0.23043089
   0.64471359  0.54866798  0.89025108
   0.56108252  0.59253537  0.55682312
   0.49249501  0.61603014  0.23286646
   0.35713052  0.21295784  0.55834486
   0.29117920  0.25822197  0.23426542
   0.22345546  0.28845532  0.88140253
   0.12492299  0.32473942  0.53453953
   0.07384500  0.36294369  0.22698552
   0.99146007  0.41469499  0.86751312
   0.93953957  0.45377937  0.57234430
   0.87126218  0.48683861  0.21917539
   0.78492623  0.54325394  0.88274204
   0.73189573  0.59948558  0.53280329
   0.64059568  0.63683079  0.21996088
   0.56480479  0.68789712  0.87483397
   0.42609652  0.24514539  0.21185141
   0.36682552  0.30514858  0.87789840
   0.27301836  0.31968093  0.55685690
   0.21494834  0.35601128  0.23239223
   0.13393205  0.39735541  0.88489591
   0.08342050  0.44116817  0.54051049
   0.99968687  0.48604715  0.22136778
   0.92314365  0.54323506  0.87973613
   0.86162434  0.59541750  0.55932541
   0.77805053  0.62510653  0.22094704
   0.68987594  0.67267422  0.84909251
   0.63963902  0.70812766  0.56227359
   0.14358509  0.48157851  0.22492586
   0.09136448  0.53438510  0.88195114
   0.01493388  0.58681197  0.54074258
   0.90974428  0.62200869  0.20144861
   0.82325239  0.66943659  0.90960828
   0.78348120  0.72316773  0.55061586
   0.70864773  0.75330054  0.23152266
   0.20529566  0.52724324  0.90092081
   0.14299647  0.58196010  0.55518704
   0.03985037  0.61632515  0.22231073
   0.98009900  0.66074580  0.88274389
   0.92536556  0.71511847  0.54850241
   0.85000191  0.75409868  0.23266089
   0.76371619  0.81127561  0.88149104
   0.28046379  0.59060660  0.56653789
   0.21773104  0.62472099  0.22437512
   0.13748187  0.66315013  0.89368256
   0.06804617  0.69378505  0.55194681
   0.99733228  0.73268054  0.22588697
   0.89457743  0.78063775  0.89168880
   0.85028692  0.83459263  0.55050153
   0.34226326  0.61873630  0.21283261
   0.27843899  0.66957059  0.88058619
   0.20717247  0.70981033  0.56617015
   0.14766713  0.72803177  0.23953809
   0.06501485  0.79235601  0.89602089
   0.00347236  0.83516792  0.55684777
   0.92849687  0.87741822  0.22285997
   0.41461564  0.68385232  0.89273086
   0.36446453  0.70356627  0.55620463
   0.28524863  0.74487681  0.24685346
   0.19894872  0.78668321  0.88692823
   0.14803432  0.82250801  0.56669130
   0.07021641  0.83846875  0.23087148
   0.99773881  0.89580353  0.89819167
   0.93961247  0.94470225  0.54369996
   0.85869259  0.00186251  0.19591403
   0.76942698  0.05130411  0.89421304
   0.70825167  0.09756846  0.56469110
   0.67113959  0.12024378  0.21956343
   0.56137079  0.16020578  0.89296360
   0.51488855  0.20502017  0.54795432
   0.08297178  0.94094336  0.55058286
   0.14820781  0.00453808  0.21760653
   0.20288041  0.03964855  0.88950431
   0.29046039  0.05685118  0.55185005
   0.36222600  0.11565866  0.23143628
   0.46165188  0.17902290  0.87879646
   0.85781129  0.92037453  0.88058452
   0.78990983  0.97574162  0.55270145
   0.73190173  0.00850734  0.21247238
   0.63807875  0.03558188  0.88084738
   0.58749105  0.06483365  0.56062307
   0.49277614  0.11895036  0.23047814
   0.12076281  0.91465054  0.89209666
   0.20116624  0.96885070  0.54659163
   0.29818807  0.99281335  0.22175925
   0.36853466  0.06816122  0.85871236
   0.42804982  0.09040124  0.54996884
   0.79569464  0.87535357  0.21911335
   0.70892754  0.92287004  0.89343959
   0.66704006  0.94622654  0.54532826
   0.58399578  0.01334912  0.21758148
   0.49669928  0.02372776  0.88150123
   0.21841338  0.85816131  0.23225941
   0.27972683  0.91799972  0.88095187
   0.35640753  0.92978897  0.54660475
   0.44760294  0.98474991  0.21470271
   0.70762335  0.82795087  0.54561912
   0.66231387  0.87881282  0.19794624
   0.56111915  0.91728283  0.87223054
   0.52092769  0.95849269  0.55905673
   0.26008855  0.82816684  0.55964150
   0.37369584  0.87355406  0.22351709
   0.42200364  0.92718738  0.88327798
   0.61577949  0.81135960  0.87182413
   0.56491270  0.83939910  0.55028841
   0.50686980  0.87415501  0.22228714
   0.34960245  0.79840110  0.89208726
   0.42838819  0.83960451  0.53153163
   0.55942420  0.74232261  0.21180985
   0.47536457  0.78741313  0.87116384
   0.41241060  0.73518721  0.23069434
   0.48681511  0.70847333  0.56042360
