Li                                      
           1
   -11.070570   19.174790    0.000000
   -18.978120  -10.957023    0.000000
     0.000000    0.000000   23.220300
   Li
   504
Direct configuration=     1
   0.98282438  0.01507541  0.98759171
   0.92622363  0.03950208  0.66459641
   0.85089360  0.08570120  0.33863316
   0.78714973  0.12703896  0.99283758
   0.70479229  0.15569318  0.67831007
   0.64573842  0.20455046  0.33233320
   0.56026269  0.24650143  0.99773894
   0.49625302  0.28895180  0.67794051
   0.42079030  0.33940408  0.34111656
   0.33693082  0.38320141  0.99378438
   0.27725953  0.40646609  0.66867359
   0.19794273  0.46694657  0.31660544
   0.07905495  0.03946558  0.66034615
   0.99005657  0.08731969  0.32959612
   0.93355943  0.13320169  0.98224626
   0.85038617  0.16799388  0.67283927
   0.77932100  0.19877477  0.33359737
   0.69758856  0.24154841  0.01448111
   0.64242380  0.27660202  0.67328597
   0.58050765  0.33394105  0.34761307
   0.49194132  0.39529899  0.00762957
   0.41905845  0.40022534  0.67633319
   0.35709876  0.44924509  0.32060708
   0.28378975  0.51206825  0.00692117
   0.13407379  0.08095324  0.33450554
   0.06566838  0.13123200  0.99595593
   0.00649815  0.17451285  0.66235408
   0.92024358  0.19449633  0.32519718
   0.83593801  0.24272033  0.00445867
   0.77788955  0.28854020  0.67305219
   0.71175395  0.33678937  0.34014250
   0.63566862  0.38201532  0.99248922
   0.58080873  0.40948903  0.68222482
   0.49921805  0.45689711  0.34926748
   0.41264344  0.51261176  0.99869137
   0.35274237  0.53942477  0.68021393
   0.21668110  0.12448848  0.99186190
   0.15421884  0.16056899  0.66710062
   0.07835184  0.20875296  0.33306418
   0.98266425  0.26051864  0.99737052
   0.92425301  0.28015376  0.66815532
   0.85629096  0.32330691  0.33139149
   0.77150569  0.37979989  0.99147645
   0.71799137  0.42239715  0.67106049
   0.64071746  0.45149112  0.33481485
   0.56169051  0.51214003  0.99884190
   0.48941500  0.52954175  0.66280756
   0.43363557  0.57166122  0.33202608
   0.28089004  0.16886618  0.68319617
   0.21201812  0.19290076  0.32543235
   0.13846022  0.26452071  0.99837097
   0.05581122  0.29131962  0.66438141
   0.00413653  0.31776367  0.32749543
   0.91034669  0.39196060  0.99712374
   0.85447174  0.41168751  0.67758986
   0.78468883  0.44951711  0.32898449
   0.71521936  0.49699123  0.00742272
   0.64753799  0.53820594  0.65472178
   0.56678692  0.56296996  0.33834738
   0.49944675  0.63659531  0.00432294
   0.36738965  0.19753177  0.33131645
   0.28438105  0.26206857  0.99649863
   0.19967286  0.28644348  0.66163436
   0.12946846  0.33924529  0.33194532
   0.07252215  0.38883935  0.01181536
   0.99103554  0.39958897  0.66934270
   0.92817511  0.45690466  0.33382647
   0.85689910  0.50508734  0.00280887
   0.78466493  0.53216672  0.67290474
   0.70566787  0.57606912  0.33896443
   0.63143707  0.62731003  0.01356559
   0.58122292  0.65802700  0.66935247
   0.40949757  0.25910918  0.99332462
   0.34998240  0.27736353  0.66637732
   0.26896795  0.33251960  0.31961784
   0.21677843  0.40519443  0.00761022
   0.14004175  0.42107560  0.65816998
   0.07262440  0.46938340  0.33055065
   0.01085324  0.52337726  0.99444616
   0.93606643  0.53884980  0.66757514
   0.85986510  0.57293625  0.33481939
   0.78153468  0.61551915  0.00504032
   0.71162090  0.66494916  0.66608421
   0.62580618  0.70253407  0.35762305
   0.13317684  0.51256045  0.99852665
   0.06750407  0.53908281  0.66323446
   0.01664708  0.58640739  0.33087952
   0.91623134  0.61665275  0.99941353
   0.87009859  0.65359649  0.65747116
   0.77566770  0.69363215  0.33339503
   0.72538045  0.75176641  0.01022276
   0.20442039  0.54527353  0.65947923
   0.14753409  0.60715082  0.31685281
   0.07783321  0.62466078  0.00513150
   0.01390282  0.65980337  0.66581662
   0.92446658  0.70007966  0.33448267
   0.84690408  0.74430564  0.00100108
   0.79211352  0.77514288  0.66905792
   0.27820182  0.59107280  0.33260538
   0.22242555  0.63870845  0.98710992
   0.13626185  0.66321177  0.67007350
   0.06880560  0.71153999  0.32527385
   0.00083909  0.76440493  0.00296045
   0.92265394  0.77139003  0.66967241
   0.85817480  0.81509663  0.32647412
   0.36510370  0.64174534  0.00547450
   0.28603264  0.66379217  0.66186651
   0.22651872  0.71719398  0.32513825
   0.15300402  0.74397067  0.01405689
   0.07190938  0.81200187  0.66488813
   0.99064388  0.82949593  0.34645658
   0.92720901  0.86930246  0.02566588
   0.44457410  0.67471385  0.66226337
   0.36528852  0.70940840  0.32270022
   0.29565886  0.75258654  0.99646884
   0.21259202  0.80066361  0.65618109
   0.13959948  0.82506575  0.33022869
   0.07803394  0.87824454  0.99712567
   0.00636379  0.91734026  0.65010701
   0.91059678  0.95252557  0.33265099
   0.85232353  0.00051863  0.98416467
   0.78269074  0.03178281  0.67136276
   0.71991724  0.06316042  0.32480104
   0.64251952  0.11351600  0.00228562
   0.57195534  0.14785867  0.67633468
   0.50851767  0.21154927  0.33707293
   0.06022822  0.95641226  0.32753308
   0.12563888  0.01191652  0.99090518
   0.22661819  0.04506376  0.66447436
   0.28293539  0.07570994  0.32858585
   0.34950164  0.11395185  0.98487305
   0.43254042  0.16230531  0.68167534
   0.88347622  0.89490026  0.66543658
   0.78257483  0.95523406  0.33516196
   0.70513472  0.99435048  0.99728410
   0.64897416  0.03706191  0.68043573
   0.57498916  0.07400674  0.33592148
   0.50342841  0.13337126  0.00269165
   0.14503820  0.93010787  0.66506235
   0.20465989  0.95421591  0.32501528
   0.27986501  0.99429660  0.99462749
   0.37317601  0.04033515  0.66303953
   0.43160240  0.09204114  0.32439944
   0.78439910  0.87160973  0.01576053
   0.73160135  0.90414299  0.65950522
   0.63357119  0.94956435  0.32093407
   0.57835199  0.01102155  0.00379619
   0.51756021  0.03432039  0.66223649
   0.20906117  0.87205142  0.99552753
   0.28091583  0.92225105  0.67707733
   0.35958979  0.95529771  0.35259114
   0.43130289  0.00195044  0.00224167
   0.71954694  0.81945244  0.33693177
   0.63281229  0.88253792  0.01432126
   0.58711872  0.91321034  0.67648757
   0.49749952  0.95018353  0.32806366
   0.29613790  0.83961811  0.33387122
   0.36326226  0.88896093  0.99465515
   0.44011016  0.91562451  0.65232399
   0.64423415  0.79013089  0.67619389
   0.57115606  0.82563683  0.34054015
   0.50483497  0.89642680  0.98381286
   0.35779543  0.79340662  0.65901132
   0.43218102  0.83242981  0.32700446
   0.57121293  0.75666004  0.00098241
   0.51048610  0.79104202  0.66903513
   0.43105595  0.75881433  0.01059275
   0.49291100  0.69814234  0.34461007
   0.99658675  0.00898393  0.76557149
   0.93582982  0.04345891  0.43949020
   0.85077474  0.07683496  0.10235394
   0.78321316  0.10718500  0.77893864
   0.70578807  0.16505369  0.43651900
   0.64446720  0.19933219  0.11276176
   0.56555209  0.26003308  0.77964934
   0.51025807  0.28416999  0.44883617
   0.41396735  0.34130988  0.10669954
   0.33674675  0.39041190  0.77443045
   0.28062942  0.40993688  0.43157965
   0.20943662  0.46005173  0.12001719
   0.05949710  0.04317559  0.44026578
   0.98942741  0.08914226  0.10640073
   0.91459174  0.14156937  0.77496909
   0.86652803  0.17319797  0.43767901
   0.78884073  0.19866394  0.10805802
   0.71571230  0.24119478  0.77695313
   0.65310865  0.27918418  0.44356047
   0.56707016  0.32758975  0.10763442
   0.49544242  0.38310847  0.79166003
   0.42667137  0.40155893  0.46307272
   0.34228101  0.46912305  0.11481527
   0.28309270  0.51560301  0.76747107
   0.12218312  0.07651136  0.10801872
   0.04328270  0.14322093  0.78919351
   0.99385758  0.18694584  0.44174829
   0.92105256  0.20392565  0.10989429
   0.85070575  0.24296356  0.78601340
   0.79208116  0.29699084  0.42545865
   0.71959139  0.33122905  0.10563256
   0.64739030  0.37295139  0.79401506
   0.58062876  0.40675277  0.45094269
   0.50019515  0.46543280  0.11379761
   0.43566246  0.50247552  0.78202871
   0.36979492  0.52666354  0.43777498
   0.19496844  0.13734768  0.78225941
   0.12395365  0.17677932  0.44280523
   0.06302603  0.21405924  0.10091164
   0.98616374  0.24390551  0.76486117
   0.91747383  0.29584541  0.43971416
   0.85686633  0.32900431  0.09874334
   0.78329527  0.37285652  0.77820483
   0.71986355  0.42370240  0.44364780
   0.63436612  0.45102227  0.10504015
   0.58499228  0.51045370  0.77225816
   0.50929991  0.53386579  0.45290761
   0.43254374  0.58708908  0.12014366
   0.27483604  0.14982317  0.44720025
   0.20653565  0.18941551  0.11239183
   0.13169021  0.25632190  0.77159149
   0.06766139  0.29557267  0.44309584
   0.99953239  0.32868048  0.11695955
   0.93489455  0.36099638  0.76708063
   0.86867562  0.42450840  0.44531389
   0.77277645  0.45484729  0.10070520
   0.71407694  0.47989971  0.77889665
   0.63398887  0.54842421  0.42400393
   0.56620117  0.56365338  0.12159007
   0.50317657  0.63251615  0.77909339
   0.34773815  0.19911003  0.09992055
   0.27225350  0.26931178  0.78417953
   0.20306710  0.28641334  0.44011761
   0.14444185  0.33598933  0.09749665
   0.06904156  0.38253491  0.76865921
   0.00839489  0.41466098  0.43269371
   0.94116138  0.45894715  0.11135582
   0.85788244  0.49534571  0.77522077
   0.78253535  0.53883382  0.45367166
   0.71812879  0.57658924  0.12033255
   0.65694611  0.62465141  0.77200094
   0.57008406  0.65695378  0.46442719
   0.42000684  0.26380861  0.78557932
   0.35111414  0.27346531  0.43456322
   0.27496442  0.34391641  0.10421231
   0.20229106  0.39180904  0.78224469
   0.15205593  0.43383530  0.45073248
   0.08014956  0.45531231  0.10633536
   0.99758531  0.49535495  0.77779908
   0.92615386  0.54871108  0.44450879
   0.85918788  0.58297453  0.11432594
   0.79235217  0.62648290  0.77196669
   0.72961758  0.66852707  0.44932639
   0.64191258  0.69901053  0.10479423
   0.15791254  0.50403853  0.77159204
   0.08655379  0.54958287  0.43869896
   0.01156189  0.59690591  0.11655656
   0.93897854  0.62235525  0.78224734
   0.85334724  0.66595226  0.44560733
   0.78150712  0.69902537  0.10884687
   0.71482829  0.74507043  0.78020943
   0.22480412  0.55775067  0.43326148
   0.15171056  0.59053119  0.10716983
   0.07523293  0.62132237  0.78510588
   0.01743759  0.66115508  0.44118417
   0.93553230  0.69457809  0.11576846
   0.85989773  0.74561589  0.77877091
   0.79253272  0.78797503  0.45406245
   0.28702139  0.59282704  0.11685681
   0.21447065  0.63413787  0.77225600
   0.13994136  0.67752384  0.44130363
   0.07304416  0.70080210  0.12496124
   0.02019344  0.73882959  0.77559659
   0.93407139  0.78060300  0.43709054
   0.85861960  0.81280882  0.11368034
   0.35911985  0.63258299  0.78323097
   0.28450779  0.66556668  0.42807505
   0.23054277  0.72053599  0.10311244
   0.14588433  0.74724173  0.78172123
   0.06413320  0.79357049  0.45015098
   0.00992174  0.82724927  0.11521822
   0.94300828  0.87452180  0.76891417
   0.43376244  0.63817639  0.45199215
   0.38159357  0.71730636  0.10911785
   0.29660466  0.75100113  0.78088885
   0.20978942  0.79421221  0.44139329
   0.14584868  0.83567794  0.11634004
   0.07601276  0.88824875  0.78320915
   0.00179370  0.91667271  0.44343146
   0.91478891  0.94302591  0.11677675
   0.86015272  0.98893885  0.76740469
   0.79039585  0.03522785  0.45111735
   0.70307652  0.08751181  0.10182742
   0.64234410  0.11866213  0.78272180
   0.56533438  0.17087776  0.43419023
   0.49415079  0.21003272  0.10093079
   0.06074732  0.96600009  0.10308942
   0.14986824  0.01769170  0.76875742
   0.20777539  0.03305558  0.43093142
   0.27097492  0.06044301  0.09536707
   0.34418221  0.13498367  0.79291668
   0.43141793  0.16433334  0.45935357
   0.85989861  0.91701301  0.43419778
   0.76929852  0.95828183  0.11291809
   0.70980145  0.98743177  0.76623142
   0.65961793  0.04560618  0.44345703
   0.56983688  0.07618417  0.11716221
   0.49680802  0.12782302  0.79178896
   0.14078970  0.92318596  0.44142148
   0.21462095  0.94834283  0.10524596
   0.28295222  0.01177243  0.79271264
   0.36877217  0.04423986  0.44652243
   0.42344486  0.06906861  0.09996118
   0.79200733  0.86684527  0.78801224
   0.71583488  0.90110036  0.45928937
   0.63191430  0.95278879  0.11947463
   0.56586596  0.01187093  0.78937362
   0.49987913  0.03729305  0.45445844
   0.21682371  0.87255642  0.76628808
   0.28298570  0.92064909  0.44617761
   0.35720254  0.96283698  0.11662644
   0.43366361  0.00815688  0.77217943
   0.71948885  0.81771450  0.12659508
   0.65019314  0.88257415  0.78055391
   0.58305524  0.90844009  0.44672876
   0.49223055  0.96119806  0.11274035
   0.30712624  0.82904430  0.11106252
   0.36405748  0.88014193  0.77657743
   0.43684063  0.92004727  0.44582591
   0.64514528  0.78346087  0.44139557
   0.56951329  0.82890997  0.11008304
   0.50395442  0.88389021  0.76818091
   0.35697645  0.78752697  0.43823956
   0.43548415  0.84537993  0.09909043
   0.56818673  0.75000316  0.78508688
   0.48993889  0.78388891  0.44671302
   0.43114615  0.76158234  0.77750368
   0.50824448  0.70669157  0.11166370
   0.99058410  0.99996912  0.21023561
   0.91492334  0.03928541  0.86568167
   0.87603601  0.10003571  0.55562598
   0.77520033  0.12616493  0.22473202
   0.71437620  0.15806365  0.90156137
   0.63973233  0.19979143  0.55969891
   0.56861745  0.25861810  0.22596191
   0.51032394  0.30258512  0.89548315
   0.42754361  0.32283267  0.56629482
   0.35608819  0.36560421  0.22557606
   0.28085698  0.42436394  0.89038122
   0.21767649  0.46289988  0.55201501
   0.06157772  0.04664543  0.88277702
   0.99900433  0.09175760  0.54136640
   0.91257874  0.12602831  0.22215783
   0.84733902  0.17427243  0.87822853
   0.78786687  0.22369015  0.55686219
   0.71235657  0.23911373  0.22570690
   0.64132208  0.28366286  0.90130584
   0.57427762  0.33584415  0.56114073
   0.49654938  0.36538625  0.21850899
   0.41766887  0.41914153  0.89907322
   0.34979707  0.46144057  0.55405568
   0.28079436  0.50051800  0.22552095
   0.15760124  0.07041909  0.55980553
   0.08020870  0.12654256  0.22538036
   0.99410462  0.15860597  0.88572612
   0.94641265  0.21789907  0.56430268
   0.85421337  0.25100756  0.22264567
   0.76677128  0.28673302  0.90213415
   0.71953597  0.33395986  0.56617370
   0.63255009  0.37596113  0.22707455
   0.55805457  0.42671126  0.88234094
   0.51194875  0.43847509  0.56989839
   0.41713191  0.49055109  0.21620624
   0.35381539  0.53943639  0.89004761
   0.20381463  0.11135628  0.21769432
   0.13890079  0.17724293  0.88231824
   0.08198684  0.21167348  0.55123635
   0.98698421  0.25802181  0.22967581
   0.92990466  0.28613942  0.88219549
   0.84888759  0.33485799  0.54468607
   0.76968026  0.37348878  0.21299096
   0.70663105  0.42231100  0.88742553
   0.63607934  0.47589088  0.55783498
   0.56999537  0.47988228  0.24014040
   0.50751441  0.54994866  0.89130945
   0.42728952  0.57637936  0.56329632
   0.28314684  0.17500548  0.89545752
   0.22502447  0.20639463  0.55774111
   0.12927707  0.24334722  0.22384649
   0.05911187  0.28415707  0.88300886
   0.99236835  0.33599770  0.54697120
   0.91443987  0.38180010  0.21657352
   0.85660872  0.41332388  0.87891354
   0.78788785  0.45366313  0.55957571
   0.71352872  0.50322619  0.21210348
   0.63454592  0.55176134  0.88969530
   0.56919553  0.59501612  0.56828364
   0.50548918  0.62262949  0.23286682
   0.35302879  0.18756191  0.55870020
   0.27989477  0.24976824  0.21162209
   0.20067708  0.30598054  0.89174542
   0.13532578  0.33445818  0.56013161
   0.06413309  0.37152513  0.21774172
   0.00697877  0.41539497  0.88882657
   0.93503969  0.45438507  0.55375957
   0.85000185  0.49682006  0.21509981
   0.78696060  0.53349782  0.88729967
   0.69902344  0.58699389  0.55206259
   0.63823379  0.63258558  0.23295305
   0.58187902  0.66981542  0.88561882
   0.41806661  0.24977567  0.22457342
   0.35131614  0.30814409  0.89620736
   0.28277033  0.32748912  0.55066483
   0.21917846  0.38984622  0.22162137
   0.12277507  0.42811122  0.88962861
   0.07308310  0.46148303  0.55274200
   0.99677111  0.49586978  0.21946750
   0.94777238  0.55571014  0.88631104
   0.84373757  0.57743714  0.54620836
   0.78684845  0.62080744  0.22793179
   0.72587969  0.66813263  0.91029548
   0.64506345  0.71277444  0.55829707
   0.14650082  0.50354589  0.22013513
   0.08902086  0.55899868  0.88623785
   0.99936343  0.58125445  0.55843250
   0.93713938  0.61656455  0.23802061
   0.87673727  0.67256936  0.88388673
   0.78560402  0.71890065  0.55676507
   0.71765882  0.74148007  0.23052302
   0.22333944  0.55363278  0.89137347
   0.13726725  0.58945929  0.55093839
   0.08083856  0.62643757  0.21634158
   0.01728568  0.68078979  0.89215256
   0.93562361  0.70284465  0.54625942
   0.84653754  0.74776348  0.21626579
   0.80217205  0.78390263  0.88339859
   0.28593730  0.57892371  0.53914045
   0.23767149  0.63774789  0.22099971
   0.15147142  0.68048167  0.89125028
   0.06781775  0.71528879  0.56484745
   0.99536311  0.74035047  0.23081461
   0.93683709  0.81527882  0.89385298
   0.86735832  0.82739766  0.55586095
   0.37337599  0.60266279  0.21746501
   0.29366133  0.67890809  0.88662788
   0.23137107  0.70455009  0.55298320
   0.14669084  0.74993226  0.23842076
   0.07051824  0.80822548  0.89259588
   0.00713408  0.83976356  0.55064522
   0.94215668  0.86135124  0.22041880
   0.43726567  0.68410385  0.88855355
   0.36566198  0.71090882  0.54883157
   0.30341136  0.75825418  0.21106047
   0.20238959  0.80259614  0.87001760
   0.14641782  0.82661369  0.54762323
   0.08321605  0.85628345  0.21323132
   0.01044999  0.93307909  0.89433705
   0.93645034  0.96718332  0.54709196
   0.84162426  0.99393286  0.22496854
   0.79332568  0.03358252  0.88528093
   0.72583307  0.09334696  0.55515308
   0.63007566  0.12070761  0.22484598
   0.58264189  0.15279780  0.88680095
   0.50843382  0.20044761  0.56653418
   0.07817449  0.95121847  0.55877299
   0.13946553  0.00353095  0.21609198
   0.20163602  0.04498672  0.89228825
   0.29855934  0.08606437  0.55498047
   0.34259305  0.12203423  0.21774514
   0.42748160  0.17018142  0.90546507
   0.86065231  0.90946933  0.88596898
   0.80436501  0.98508888  0.55703088
   0.70361570  0.99398907  0.21410680
   0.64046686  0.03133355  0.88439931
   0.59203825  0.08407417  0.56014582
   0.50399711  0.12640587  0.21458468
   0.13456186  0.92551464  0.87086491
   0.22117101  0.96022096  0.55187626
   0.28184046  0.99450585  0.22449638
   0.35018069  0.05103340  0.88982045
   0.44804651  0.07951694  0.56046728
   0.79697684  0.86559269  0.24113608
   0.72225229  0.91196198  0.89587845
   0.65631723  0.97728065  0.55904584
   0.56216771  0.00706309  0.23611260
   0.48080037  0.04362455  0.89787524
   0.23387996  0.87536686  0.22059591
   0.28236626  0.90928844  0.87889465
   0.36550079  0.96618964  0.55829778
   0.43284821  0.99390204  0.22213358
   0.72159976  0.85052658  0.55686902
   0.65197210  0.87618262  0.23821571
   0.57962590  0.91871358  0.89354758
   0.51092439  0.95954481  0.56633604
   0.30298503  0.83982454  0.55410140
   0.37654428  0.85972635  0.21010971
   0.42858300  0.93096086  0.88298214
   0.65001169  0.79728572  0.89147755
   0.57648685  0.84794512  0.56048584
   0.51315232  0.87470595  0.23489957
   0.35003322  0.79952619  0.89423317
   0.43385210  0.82724418  0.54744297
   0.59150037  0.73445683  0.22979682
   0.49208795  0.80697771  0.88130566
   0.44633612  0.74293871  0.21465902
   0.50434273  0.70754096  0.56365663
