 500 500   0   0
  0.1910214E+02  0.2121700E-08  0.2121700E-08  0.2121700E-08  0.5000000E-15
  1.000000000000000E-004
  CAR 
 Li                                      
      3.83673849     -3.37107215  301      0.55749135      1.00000000
     -3.371  0.0000E+00  0.0000E+00
     -3.347  0.0000E+00  0.0000E+00
     -3.323  0.0000E+00  0.0000E+00
     -3.299  0.0000E+00  0.0000E+00
     -3.275  0.0000E+00  0.0000E+00
     -3.251  0.0000E+00  0.0000E+00
     -3.227  0.0000E+00  0.0000E+00
     -3.203  0.2275E-11  0.5465E-13
     -3.179  0.7009E-08  0.1685E-09
     -3.155  0.6152E-05  0.1480E-06
     -3.131  0.1554E-02  0.3748E-04
     -3.107  0.1146E+00  0.2791E-02
     -3.083  0.2517E+01  0.6327E-01
     -3.059  0.1687E+02  0.4687E+00
     -3.035  0.3530E+02  0.1317E+01
     -3.011  0.2331E+02  0.1877E+01
     -2.987  0.5329E+01  0.2005E+01
     -2.963  0.8759E+01  0.2215E+01
     -2.939  0.4820E+02  0.3373E+01
     -2.915  0.9802E+02  0.5728E+01
     -2.891  0.7293E+02  0.7480E+01
     -2.867  0.2012E+02  0.7964E+01
     -2.842  0.9120E+01  0.8183E+01
     -2.818  0.4389E+02  0.9237E+01
     -2.794  0.9561E+02  0.1153E+02
     -2.770  0.7729E+02  0.1339E+02
     -2.746  0.2341E+02  0.1395E+02
     -2.722  0.1115E+02  0.1422E+02
     -2.698  0.5212E+02  0.1547E+02
     -2.674  0.1189E+03  0.1833E+02
     -2.650  0.1083E+03  0.2093E+02
     -2.626  0.3972E+02  0.2189E+02
     -2.602  0.1724E+02  0.2230E+02
     -2.578  0.7075E+02  0.2400E+02
     -2.554  0.1670E+03  0.2801E+02
     -2.530  0.1640E+03  0.3195E+02
     -2.506  0.7053E+02  0.3365E+02
     -2.482  0.1708E+02  0.3406E+02
     -2.458  0.3070E+02  0.3480E+02
     -2.434  0.8832E+02  0.3692E+02
     -2.410  0.9159E+02  0.3912E+02
     -2.386  0.3299E+02  0.3991E+02
     -2.362  0.1045E+02  0.4016E+02
     -2.338  0.5011E+02  0.4137E+02
     -2.314  0.1478E+03  0.4492E+02
     -2.290  0.1808E+03  0.4926E+02
     -2.266  0.9391E+02  0.5152E+02
     -2.242  0.3162E+02  0.5228E+02
     -2.218  0.7838E+02  0.5416E+02
     -2.194  0.2027E+03  0.5903E+02
     -2.170  0.2483E+03  0.6500E+02
     -2.146  0.1522E+03  0.6865E+02
     -2.122  0.5002E+02  0.6985E+02
     -2.098  0.2460E+02  0.7044E+02
     -2.074  0.6510E+02  0.7201E+02
     -2.050  0.9530E+02  0.7430E+02
     -2.026  0.5680E+02  0.7566E+02
     -2.002  0.1779E+02  0.7609E+02
     -1.978  0.4298E+02  0.7712E+02
     -1.954  0.1438E+03  0.8058E+02
     -1.930  0.2104E+03  0.8563E+02
     -1.905  0.1387E+03  0.8897E+02
     -1.881  0.4524E+02  0.9005E+02
     -1.857  0.5523E+02  0.9138E+02
     -1.833  0.1645E+03  0.9533E+02
     -1.809  0.2461E+03  0.1012E+03
     -1.785  0.1934E+03  0.1059E+03
     -1.761  0.7580E+02  0.1077E+03
     -1.737  0.2548E+02  0.1083E+03
     -1.713  0.7573E+02  0.1101E+03
     -1.689  0.1660E+03  0.1141E+03
     -1.665  0.1603E+03  0.1180E+03
     -1.641  0.7458E+02  0.1198E+03
     -1.617  0.5469E+02  0.1211E+03
     -1.593  0.1507E+03  0.1247E+03
     -1.569  0.2452E+03  0.1306E+03
     -1.545  0.2058E+03  0.1355E+03
     -1.521  0.8788E+02  0.1377E+03
     -1.497  0.4141E+02  0.1387E+03
     -1.473  0.1207E+03  0.1416E+03
     -1.449  0.2393E+03  0.1473E+03
     -1.425  0.2237E+03  0.1527E+03
     -1.401  0.1072E+03  0.1553E+03
     -1.377  0.4330E+02  0.1563E+03
     -1.353  0.7986E+02  0.1582E+03
     -1.329  0.1609E+03  0.1621E+03
     -1.305  0.1583E+03  0.1659E+03
     -1.281  0.7694E+02  0.1677E+03
     -1.257  0.4640E+02  0.1688E+03
     -1.233  0.9684E+02  0.1712E+03
     -1.209  0.1305E+03  0.1743E+03
     -1.185  0.1285E+03  0.1774E+03
     -1.161  0.8761E+02  0.1795E+03
     -1.137  0.6300E+02  0.1810E+03
     -1.113  0.1595E+03  0.1848E+03
     -1.089  0.3075E+03  0.1922E+03
     -1.065  0.3509E+03  0.2007E+03
     -1.041  0.2569E+03  0.2068E+03
     -1.017  0.1263E+03  0.2099E+03
     -0.992  0.1162E+03  0.2127E+03
     -0.968  0.2166E+03  0.2179E+03
     -0.944  0.2350E+03  0.2235E+03
     -0.920  0.1429E+03  0.2269E+03
     -0.896  0.6439E+02  0.2285E+03
     -0.872  0.5512E+02  0.2298E+03
     -0.848  0.9827E+02  0.2322E+03
     -0.824  0.1797E+03  0.2365E+03
     -0.800  0.1779E+03  0.2408E+03
     -0.776  0.1471E+03  0.2443E+03
     -0.752  0.2050E+03  0.2492E+03
     -0.728  0.2499E+03  0.2552E+03
     -0.704  0.2409E+03  0.2610E+03
     -0.680  0.1542E+03  0.2647E+03
     -0.656  0.4818E+02  0.2659E+03
     -0.632  0.1879E+02  0.2663E+03
     -0.608  0.5855E+02  0.2677E+03
     -0.584  0.9872E+02  0.2701E+03
     -0.560  0.6859E+02  0.2718E+03
     -0.536  0.6280E+02  0.2733E+03
     -0.512  0.1662E+03  0.2773E+03
     -0.488  0.2777E+03  0.2839E+03
     -0.464  0.3195E+03  0.2916E+03
     -0.440  0.3236E+03  0.2994E+03
     -0.416  0.2580E+03  0.3056E+03
     -0.392  0.1699E+03  0.3097E+03
     -0.368  0.1918E+03  0.3143E+03
     -0.344  0.2670E+03  0.3207E+03
     -0.320  0.2847E+03  0.3275E+03
     -0.296  0.2273E+03  0.3330E+03
     -0.272  0.1401E+03  0.3364E+03
     -0.248  0.7740E+02  0.3382E+03
     -0.224  0.9308E+02  0.3405E+03
     -0.200  0.1431E+03  0.3439E+03
     -0.176  0.1755E+03  0.3481E+03
     -0.152  0.1911E+03  0.3527E+03
     -0.128  0.1561E+03  0.3564E+03
     -0.104  0.1542E+03  0.3602E+03
     -0.080  0.1743E+03  0.3643E+03
     -0.055  0.1569E+03  0.3681E+03
     -0.031  0.1727E+03  0.3723E+03
     -0.007  0.2383E+03  0.3780E+03
      0.017  0.2985E+03  0.3852E+03
      0.041  0.2938E+03  0.3922E+03
      0.065  0.2207E+03  0.3975E+03
      0.089  0.2063E+03  0.4025E+03
      0.113  0.2478E+03  0.4084E+03
      0.137  0.2036E+03  0.4133E+03
      0.161  0.9468E+02  0.4156E+03
      0.185  0.5175E+02  0.4168E+03
      0.209  0.1268E+03  0.4199E+03
      0.233  0.2435E+03  0.4257E+03
      0.257  0.2964E+03  0.4329E+03
      0.281  0.2775E+03  0.4395E+03
      0.305  0.2269E+03  0.4450E+03
      0.329  0.1798E+03  0.4493E+03
      0.353  0.1874E+03  0.4538E+03
      0.377  0.2045E+03  0.4587E+03
      0.401  0.2018E+03  0.4636E+03
      0.425  0.2175E+03  0.4688E+03
      0.449  0.2202E+03  0.4741E+03
      0.473  0.2025E+03  0.4789E+03
      0.497  0.2267E+03  0.4844E+03
      0.521  0.2712E+03  0.4909E+03
      0.545  0.2625E+03  0.4972E+03
      0.569  0.2183E+03  0.5025E+03
      0.593  0.2112E+03  0.5075E+03
      0.617  0.2287E+03  0.5130E+03
      0.641  0.2269E+03  0.5185E+03
      0.665  0.2131E+03  0.5236E+03
      0.689  0.2220E+03  0.5289E+03
      0.713  0.2844E+03  0.5358E+03
      0.737  0.3465E+03  0.5441E+03
      0.761  0.3687E+03  0.5529E+03
      0.785  0.3589E+03  0.5616E+03
      0.809  0.3273E+03  0.5694E+03
      0.833  0.3008E+03  0.5767E+03
      0.858  0.2889E+03  0.5836E+03
      0.882  0.2976E+03  0.5907E+03
      0.906  0.3064E+03  0.5981E+03
      0.930  0.2900E+03  0.6051E+03
      0.954  0.2369E+03  0.6108E+03
      0.978  0.1461E+03  0.6143E+03
      1.002  0.6207E+02  0.6158E+03
      1.026  0.4358E+02  0.6168E+03
      1.050  0.9087E+02  0.6190E+03
      1.074  0.1147E+03  0.6218E+03
      1.098  0.1248E+03  0.6248E+03
      1.122  0.1695E+03  0.6288E+03
      1.146  0.1959E+03  0.6335E+03
      1.170  0.2155E+03  0.6387E+03
      1.194  0.2483E+03  0.6447E+03
      1.218  0.2536E+03  0.6508E+03
      1.242  0.2318E+03  0.6563E+03
      1.266  0.2253E+03  0.6617E+03
      1.290  0.2403E+03  0.6675E+03
      1.314  0.2578E+03  0.6737E+03
      1.338  0.2830E+03  0.6805E+03
      1.362  0.2961E+03  0.6876E+03
      1.386  0.2859E+03  0.6945E+03
      1.410  0.2639E+03  0.7008E+03
      1.434  0.2375E+03  0.7065E+03
      1.458  0.2069E+03  0.7115E+03
      1.482  0.1807E+03  0.7159E+03
      1.506  0.1672E+03  0.7199E+03
      1.530  0.1836E+03  0.7243E+03
      1.554  0.2113E+03  0.7294E+03
      1.578  0.2113E+03  0.7344E+03
      1.602  0.2061E+03  0.7394E+03
      1.626  0.2168E+03  0.7446E+03
      1.650  0.2253E+03  0.7500E+03
      1.674  0.2139E+03  0.7552E+03
      1.698  0.1911E+03  0.7597E+03
      1.722  0.1720E+03  0.7639E+03
      1.746  0.1574E+03  0.7677E+03
      1.770  0.1376E+03  0.7710E+03
      1.795  0.1352E+03  0.7742E+03
      1.819  0.1652E+03  0.7782E+03
      1.843  0.1735E+03  0.7824E+03
      1.867  0.1514E+03  0.7860E+03
      1.891  0.1171E+03  0.7888E+03
      1.915  0.8448E+02  0.7908E+03
      1.939  0.9709E+02  0.7932E+03
      1.963  0.1358E+03  0.7964E+03
      1.987  0.1651E+03  0.8004E+03
      2.011  0.1900E+03  0.8050E+03
      2.035  0.2161E+03  0.8101E+03
      2.059  0.2354E+03  0.8158E+03
      2.083  0.2525E+03  0.8219E+03
      2.107  0.2628E+03  0.8282E+03
      2.131  0.2581E+03  0.8344E+03
      2.155  0.2487E+03  0.8404E+03
      2.179  0.2291E+03  0.8459E+03
      2.203  0.2109E+03  0.8509E+03
      2.227  0.2079E+03  0.8559E+03
      2.251  0.1960E+03  0.8606E+03
      2.275  0.1654E+03  0.8646E+03
      2.299  0.1208E+03  0.8675E+03
      2.323  0.1012E+03  0.8699E+03
      2.347  0.1236E+03  0.8729E+03
      2.371  0.1319E+03  0.8761E+03
      2.395  0.1112E+03  0.8788E+03
      2.419  0.1178E+03  0.8816E+03
      2.443  0.1546E+03  0.8853E+03
      2.467  0.1733E+03  0.8895E+03
      2.491  0.1732E+03  0.8936E+03
      2.515  0.1630E+03  0.8975E+03
      2.539  0.1472E+03  0.9011E+03
      2.563  0.1357E+03  0.9043E+03
      2.587  0.1314E+03  0.9075E+03
      2.611  0.1207E+03  0.9104E+03
      2.635  0.1104E+03  0.9130E+03
      2.659  0.1141E+03  0.9158E+03
      2.683  0.1296E+03  0.9189E+03
      2.708  0.1459E+03  0.9224E+03
      2.732  0.1612E+03  0.9263E+03
      2.756  0.1617E+03  0.9302E+03
      2.780  0.1582E+03  0.9340E+03
      2.804  0.1579E+03  0.9378E+03
      2.828  0.1393E+03  0.9411E+03
      2.852  0.1103E+03  0.9438E+03
      2.876  0.7417E+02  0.9455E+03
      2.900  0.5874E+02  0.9469E+03
      2.924  0.9438E+02  0.9492E+03
      2.948  0.1197E+03  0.9521E+03
      2.972  0.1305E+03  0.9552E+03
      2.996  0.1528E+03  0.9589E+03
      3.020  0.1656E+03  0.9629E+03
      3.044  0.1682E+03  0.9669E+03
      3.068  0.1655E+03  0.9709E+03
      3.092  0.1619E+03  0.9748E+03
      3.116  0.1662E+03  0.9788E+03
      3.140  0.1540E+03  0.9825E+03
      3.164  0.1226E+03  0.9854E+03
      3.188  0.7491E+02  0.9872E+03
      3.212  0.2720E+02  0.9879E+03
      3.236  0.4792E+01  0.9880E+03
      3.260  0.3494E+00  0.9880E+03
      3.284  0.1267E-01  0.9880E+03
      3.308  0.1672E+00  0.9880E+03
      3.332  0.2731E+01  0.9881E+03
      3.356  0.1754E+02  0.9885E+03
      3.380  0.5232E+02  0.9897E+03
      3.404  0.8815E+02  0.9919E+03
      3.428  0.1062E+03  0.9944E+03
      3.452  0.1077E+03  0.9970E+03
      3.476  0.8713E+02  0.9991E+03
      3.500  0.6411E+02  0.1001E+04
      3.524  0.4155E+02  0.1002E+04
      3.548  0.1346E+02  0.1002E+04
      3.572  0.1566E+01  0.1002E+04
      3.596  0.5882E-01  0.1002E+04
      3.621  0.6822E-03  0.1002E+04
      3.645  0.2381E-05  0.1002E+04
      3.669  0.2457E-08  0.1002E+04
      3.693  0.7393E-12  0.1002E+04
      3.717  0.0000E+00  0.1002E+04
      3.741  0.0000E+00  0.1002E+04
      3.765  0.0000E+00  0.1002E+04
      3.789  0.0000E+00  0.1002E+04
      3.813  0.0000E+00  0.1002E+04
      3.837  0.0000E+00  0.1002E+04
