Li                                      
           1
    21.217000    0.000000    0.000000
     0.000000   21.217000    0.000000
    -0.000000   -0.000000   21.217000
   Li
   500
Direct configuration=     1
   0.00399865  0.00011634  0.97963070
   0.00044527  0.10479739  0.09228251
   0.99596773  0.19552240  0.20652532
   0.00116597  0.28300786  0.31052214
   0.99560261  0.40261358  0.40749106
   0.00712692  0.49855434  0.49531420
   0.01003090  0.60234301  0.59619801
   0.01080283  0.68138570  0.68459661
   0.99593498  0.79662522  0.78745000
   0.96993561  0.89518530  0.89285812
   0.08423969  0.00012625  0.08936658
   0.10354936  0.08516868  0.21322330
   0.10287016  0.19083891  0.30704185
   0.10877677  0.31157809  0.40349195
   0.10001536  0.41345314  0.48742135
   0.09955735  0.48292098  0.58756687
   0.11298508  0.58164765  0.68286289
   0.09899590  0.70502076  0.80650788
   0.10313913  0.79998614  0.90751503
   0.08806041  0.89352821  0.99040178
   0.17634361  0.99176850  0.21238792
   0.21226772  0.09131545  0.31757171
   0.18774411  0.21183040  0.40612371
   0.20234520  0.32192703  0.50686096
   0.20289953  0.41645322  0.59771068
   0.21112008  0.49448785  0.71180701
   0.20257545  0.60572963  0.81044284
   0.19261305  0.71018201  0.91449249
   0.20444766  0.80815488  0.00807915
   0.18848469  0.91937833  0.09629006
   0.29564200  0.99407258  0.30638937
   0.28776934  0.10041073  0.41244105
   0.29746191  0.21334830  0.50562080
   0.29956962  0.30555197  0.61763303
   0.31296161  0.39003502  0.70428329
   0.30611383  0.50682320  0.81295487
   0.29770815  0.61532182  0.91248317
   0.29776374  0.71709165  0.01486948
   0.30674738  0.83349733  0.09802612
   0.30150892  0.91563077  0.20285691
   0.38846844  0.97997386  0.41234071
   0.39976498  0.09565270  0.49870830
   0.39282532  0.20890336  0.60056967
   0.41050625  0.32227505  0.71290823
   0.39685489  0.39871195  0.81213513
   0.40864207  0.49252260  0.90653074
   0.40009420  0.58368968  0.01270720
   0.40001884  0.72217518  0.09637938
   0.40935652  0.81506698  0.18001331
   0.40597471  0.89884345  0.29567147
   0.50226506  0.00066576  0.50047062
   0.48859325  0.09816114  0.58326130
   0.49256813  0.21400446  0.69453281
   0.50457792  0.28698717  0.80775430
   0.51085038  0.38036110  0.89442565
   0.49888863  0.49249349  0.99020889
   0.48403803  0.61649340  0.09889537
   0.50874469  0.70301923  0.20132600
   0.49259442  0.80604507  0.29739710
   0.50239877  0.91120431  0.40170638
   0.60275560  0.98829838  0.59790827
   0.58523068  0.10298524  0.70288901
   0.61018637  0.21008466  0.78772131
   0.61805309  0.30354161  0.89397404
   0.59321631  0.39818363  0.00670882
   0.58206628  0.50416079  0.11279476
   0.60558863  0.60239780  0.20205165
   0.59408666  0.69982674  0.30291125
   0.59769610  0.79645999  0.38769341
   0.60050404  0.89948185  0.50339090
   0.70764911  0.01101658  0.68301748
   0.70216631  0.09078593  0.79038108
   0.70824397  0.20922859  0.89802328
   0.70716008  0.30109000  0.99528336
   0.69492013  0.39382219  0.11113693
   0.71742753  0.50512866  0.20558645
   0.70100323  0.60345622  0.30700419
   0.70415710  0.69926308  0.40188405
   0.70177961  0.79083584  0.51039946
   0.70101762  0.89637596  0.61138209
   0.80300984  0.99150530  0.79183897
   0.80190668  0.10056252  0.89065922
   0.79400599  0.20927281  0.98595040
   0.79926921  0.31193749  0.09697757
   0.80380068  0.40171764  0.19732714
   0.79645480  0.49752831  0.29187812
   0.81469931  0.59880785  0.39984148
   0.80609951  0.68345356  0.50298735
   0.78109793  0.77841529  0.60639894
   0.79993807  0.89930871  0.70201865
   0.89019790  0.00193054  0.90643337
   0.91189694  0.12337193  0.97533642
   0.89659206  0.20664177  0.09013299
   0.89277275  0.29908854  0.19999216
   0.92171927  0.38402104  0.30649808
   0.90943866  0.51538829  0.37915443
   0.90546571  0.60114609  0.48888509
   0.90754224  0.69105651  0.60689109
   0.90815723  0.79054268  0.70572472
   0.89796695  0.90238733  0.78914534
   0.10188454  0.10091542  0.97667669
   0.10580957  0.18255064  0.10091498
   0.09392829  0.29008433  0.18771585
   0.09992962  0.38365849  0.30409134
   0.11190437  0.50083372  0.39537939
   0.10698472  0.59429197  0.49151718
   0.09270920  0.69595757  0.59112969
   0.08233631  0.80154763  0.69368466
   0.10046257  0.89491580  0.79601169
   0.08373188  0.99323935  0.89005838
   0.19369455  0.09283159  0.10368613
   0.21314180  0.18575481  0.20910394
   0.19988239  0.29049739  0.28398451
   0.21408444  0.40011132  0.39048466
   0.20852258  0.49689234  0.48380708
   0.19850276  0.58324320  0.59037865
   0.20233986  0.69797421  0.70254507
   0.18357169  0.80390789  0.80811913
   0.19707084  0.89830508  0.90881214
   0.19094469  0.99710868  0.99486627
   0.29183366  0.08383481  0.19538088
   0.30279057  0.19270774  0.30066176
   0.29929277  0.29722551  0.39497158
   0.29909526  0.40335644  0.48944807
   0.28787898  0.50592479  0.60405780
   0.29113508  0.60869718  0.69991451
   0.29214251  0.70334523  0.81375005
   0.30268077  0.80352326  0.91021815
   0.30005099  0.90691633  0.99790775
   0.29470807  0.99564476  0.10338390
   0.38312770  0.08700104  0.29906473
   0.40520487  0.20335468  0.39978577
   0.39740378  0.31865656  0.50971623
   0.38230830  0.42328967  0.59341984
   0.38260615  0.50587736  0.70753856
   0.39367630  0.61592048  0.82531278
   0.40470379  0.71180668  0.91871829
   0.40099153  0.81853939  0.00152274
   0.40262307  0.92349281  0.10112453
   0.40782724  0.00199173  0.19755571
   0.49096692  0.09854895  0.40652849
   0.48968799  0.20665239  0.50921951
   0.48168762  0.32099111  0.61665354
   0.50267685  0.41096935  0.71079416
   0.49811771  0.50488321  0.81171465
   0.51315856  0.60997857  0.90115023
   0.50983575  0.70523062  0.99937330
   0.51775074  0.80786820  0.09445190
   0.51222957  0.90545440  0.20438075
   0.50014457  0.00617634  0.29951008
   0.60437908  0.11371773  0.48523158
   0.59149832  0.21118670  0.60832508
   0.60595427  0.30948358  0.69807343
   0.60735151  0.40193279  0.79724661
   0.59548838  0.49561220  0.89962284
   0.59154984  0.59449677  0.99972054
   0.60163308  0.70320216  0.09851740
   0.60674536  0.79709181  0.19260755
   0.60160170  0.90047544  0.30851719
   0.60634303  0.99734596  0.39223414
   0.68906794  0.11528576  0.59208075
   0.70410918  0.20719885  0.69739598
   0.70708376  0.30835417  0.79769730
   0.70106187  0.40610017  0.89470841
   0.69605756  0.50253330  0.00677994
   0.70359629  0.60373852  0.09652166
   0.69647453  0.70467044  0.19513722
   0.71050822  0.80165874  0.28898128
   0.70226478  0.88962198  0.40341692
   0.68695114  0.99075305  0.50925980
   0.78968268  0.09835669  0.68608349
   0.79618351  0.19965713  0.79047735
   0.81264523  0.30306620  0.88491333
   0.79731340  0.40067244  0.00166271
   0.80297290  0.49772055  0.09262854
   0.81858006  0.61761085  0.19308792
   0.81759738  0.70493106  0.29849067
   0.80105665  0.79261913  0.40553423
   0.78598225  0.89356221  0.51424769
   0.79497942  0.00646687  0.60354537
   0.89488928  0.09532994  0.79086821
   0.90134439  0.19584045  0.88610031
   0.90294163  0.30063514  0.99246055
   0.90397682  0.40031168  0.09281447
   0.90495019  0.50598311  0.21337395
   0.90524979  0.61526854  0.29602197
   0.91110922  0.70266652  0.40314382
   0.88748165  0.79968270  0.49762544
   0.89099584  0.89921249  0.60957445
   0.90067618  0.00823553  0.69486924
   0.99958031  0.10588380  0.87940975
   0.99940076  0.20808386  0.98523613
   0.98965957  0.29747224  0.10088663
   0.98912292  0.40579646  0.19361632
   0.02371572  0.50198720  0.29449366
   0.00543133  0.59854768  0.39072489
   0.00509895  0.70540362  0.49806255
   0.99260916  0.80741719  0.59398161
   0.99701463  0.90115300  0.69655041
   0.99311369  0.98753488  0.79900370
   0.19725302  0.18406513  0.98919631
   0.19611747  0.29122817  0.10799001
   0.19546294  0.40236887  0.20710828
   0.20390414  0.48717152  0.29560952
   0.19610975  0.60326677  0.39465671
   0.18964116  0.70301274  0.48967515
   0.19659599  0.77936303  0.60611540
   0.20215245  0.88862358  0.68935107
   0.19893784  0.98202536  0.79173197
   0.19702493  0.08303606  0.89575477
   0.29342334  0.18328110  0.09981003
   0.29748585  0.29803402  0.19161963
   0.30070457  0.38504045  0.29913197
   0.29823035  0.50095891  0.37592221
   0.28578675  0.60819657  0.50049333
   0.29489687  0.69926995  0.60120473
   0.30757983  0.79426727  0.69957705
   0.31707425  0.89512081  0.78639861
   0.30175058  0.99214840  0.89744872
   0.29004642  0.07590890  0.00284375
   0.39031034  0.18772863  0.19698001
   0.40041827  0.29178705  0.29316040
   0.40092656  0.40031368  0.39357263
   0.39035185  0.51751210  0.47520974
   0.40036199  0.57781802  0.59909818
   0.40508605  0.69347304  0.70145208
   0.40313180  0.78216173  0.79852558
   0.40078842  0.90572415  0.89274317
   0.42269398  0.00792706  0.00068603
   0.40253149  0.08071823  0.10124856
   0.50543758  0.18989005  0.30450083
   0.50729088  0.29864686  0.39808835
   0.48581735  0.40971039  0.49247718
   0.49254140  0.48156822  0.60247122
   0.50063715  0.59533315  0.72004516
   0.51389099  0.69437603  0.81263411
   0.50344060  0.79547030  0.90302326
   0.50834220  0.89834573  0.99517126
   0.52801142  0.99421024  0.11446239
   0.49701919  0.09871361  0.19686725
   0.58344720  0.19899538  0.40259982
   0.59323691  0.30608668  0.49852700
   0.59632833  0.39127990  0.58914625
   0.58749743  0.48794004  0.70422613
   0.59379830  0.59244054  0.81238479
   0.62247298  0.68742331  0.90140422
   0.60648726  0.80051063  0.99485155
   0.62203850  0.89239018  0.09527299
   0.61460151  0.00596348  0.22456295
   0.61369137  0.10059718  0.30913271
   0.69500566  0.21675952  0.49689045
   0.70085775  0.29373848  0.59496686
   0.70603743  0.40435806  0.69688033
   0.70912610  0.50711099  0.80565966
   0.70112421  0.58693768  0.91131681
   0.69850868  0.69888070  0.00347772
   0.70274142  0.80376812  0.10412827
   0.71147825  0.91000899  0.19446690
   0.70492611  0.00074599  0.30523132
   0.69757470  0.10976059  0.40509154
   0.79292622  0.21892761  0.60169415
   0.80160914  0.30819711  0.69276824
   0.80593110  0.39627429  0.79622215
   0.79704526  0.50140846  0.91544412
   0.81072557  0.60941050  0.00193985
   0.80443938  0.70945461  0.11926137
   0.80545066  0.79610467  0.20164798
   0.79177520  0.89436096  0.29932582
   0.77499642  0.99624505  0.40751940
   0.79195262  0.10357263  0.50961325
   0.89982997  0.20512255  0.69500974
   0.89288931  0.30727594  0.78858959
   0.90423438  0.40036836  0.90907133
   0.89992711  0.49165595  0.01337110
   0.90469030  0.60068965  0.10865960
   0.93584255  0.70383563  0.21064276
   0.89469713  0.80590041  0.30412626
   0.88018880  0.90441946  0.41187658
   0.88869689  0.99578158  0.51557411
   0.89989654  0.10313817  0.59570774
   0.99503883  0.19770448  0.78922789
   0.00621493  0.30218909  0.88462244
   0.99594777  0.40834715  0.99402841
   0.00410465  0.50032225  0.11680122
   0.01901832  0.60703181  0.20515525
   0.00797496  0.71573083  0.31028363
   0.98629609  0.80765838  0.40449044
   0.98198646  0.90169017  0.50373576
   0.99133105  0.99122282  0.60383317
   0.01868223  0.09470031  0.70822977
   0.10105552  0.20210588  0.88283223
   0.10125941  0.29587472  0.00212045
   0.09333169  0.39548806  0.09759364
   0.09998106  0.49345645  0.19560615
   0.11088446  0.61155327  0.30817798
   0.09498516  0.71167978  0.39263598
   0.09738019  0.80047108  0.49408885
   0.09544203  0.90493078  0.59567017
   0.09848138  0.98844050  0.70523133
   0.11543484  0.10375270  0.80045740
   0.28862733  0.27874330  0.00367116
   0.30928973  0.39668702  0.10638140
   0.31268076  0.50276397  0.19750242
   0.29689171  0.61627620  0.29799910
   0.29610054  0.70353847  0.40493939
   0.28804574  0.79282202  0.50967378
   0.31535559  0.88616803  0.60110978
   0.31366416  0.01525617  0.67774579
   0.30943707  0.09200074  0.81119205
   0.29797388  0.17810766  0.91113172
   0.39556500  0.29015987  0.10777720
   0.40065420  0.40845645  0.21056388
   0.39159864  0.50208574  0.29580712
   0.38151871  0.61078038  0.38043593
   0.40636081  0.70098609  0.50323868
   0.40375160  0.80277274  0.61221614
   0.41092848  0.90442593  0.69361930
   0.39862316  0.01384968  0.79621451
   0.40204296  0.10221674  0.89040371
   0.40533089  0.17987430  0.99999346
   0.49416559  0.27699018  0.20768606
   0.49930103  0.40635010  0.29585575
   0.46941019  0.50694442  0.38533624
   0.49732655  0.59134438  0.48583278
   0.50119198  0.68690247  0.59289826
   0.50300186  0.78698307  0.70786061
   0.50865946  0.91362924  0.79202983
   0.50909826  0.00201798  0.89499589
   0.50798589  0.10326947  0.98978724
   0.49865858  0.19799549  0.08963690
   0.58323471  0.30631907  0.29647065
   0.58858971  0.39810498  0.39086309
   0.58258560  0.48725129  0.49104091
   0.57536657  0.58930858  0.59679070
   0.59903556  0.69561275  0.71721321
   0.61019526  0.79890066  0.81111994
   0.61378514  0.88576325  0.90478916
   0.60988967  0.99018022  0.99591728
   0.59262060  0.09863916  0.09474235
   0.60826464  0.19259207  0.20560388
   0.68147945  0.31151882  0.39764014
   0.69512320  0.39673558  0.49850081
   0.68830829  0.49726822  0.58502281
   0.67880115  0.60024064  0.70215994
   0.69806386  0.68068867  0.79334631
   0.72666172  0.80327058  0.89344616
   0.71138149  0.89963708  0.99671283
   0.69379440  0.01126008  0.09728463
   0.70440491  0.11756454  0.18747034
   0.69979689  0.20397951  0.30450901
   0.79338818  0.30134292  0.50262510
   0.79649632  0.39575578  0.59948009
   0.78752366  0.51841150  0.69193107
   0.79374961  0.59553837  0.79459019
   0.80658990  0.69328502  0.89121530
   0.80665348  0.79338213  0.99715823
   0.79448996  0.91496649  0.08694519
   0.80224424  0.01095748  0.19677728
   0.77946881  0.10896229  0.30327045
   0.80046831  0.21420832  0.39607661
   0.91303058  0.30075773  0.59702979
   0.89101447  0.41505333  0.69742992
   0.90250719  0.49260349  0.79608779
   0.90140177  0.59776082  0.90834487
   0.90265735  0.69295499  0.01576004
   0.90005175  0.80028395  0.10977543
   0.89290813  0.91684264  0.19958655
   0.89109614  0.00620548  0.30193617
   0.87761020  0.09533578  0.40630504
   0.90822471  0.19834462  0.50271910
   0.00070727  0.30719552  0.70634797
   0.99318050  0.41207048  0.81283074
   0.99776110  0.51332058  0.90599379
   0.00596401  0.59204715  0.02510689
   0.00899972  0.69459358  0.09559981
   0.99496906  0.83405599  0.20190416
   0.97738851  0.90484369  0.31241294
   0.98422920  0.00804604  0.40220283
   0.98422612  0.08973982  0.51124743
   0.99913198  0.20534132  0.60966613
   0.10155868  0.29881205  0.79504643
   0.09778570  0.40712594  0.89247203
   0.09674941  0.50892949  0.01078658
   0.11905688  0.59873090  0.10430317
   0.08831474  0.72870907  0.20375574
   0.09026203  0.82184024  0.31217138
   0.08883185  0.89448272  0.42030998
   0.08403094  0.99165708  0.51048018
   0.10500066  0.10275374  0.60339307
   0.10630969  0.20341078  0.70400854
   0.19155430  0.28399010  0.90677218
   0.20186632  0.38836359  0.01736057
   0.19937609  0.48085285  0.10182791
   0.20000467  0.59783916  0.20879012
   0.18813045  0.73162385  0.29619508
   0.19804774  0.81884227  0.40523283
   0.20938300  0.89262177  0.50942143
   0.20753792  0.00403911  0.60391773
   0.19849247  0.08652008  0.69472739
   0.20863256  0.19472362  0.79016884
   0.40742638  0.38536243  0.99971283
   0.41365408  0.48344965  0.09001189
   0.42146367  0.60764327  0.20212672
   0.40262757  0.71655473  0.28903684
   0.39609750  0.80771448  0.40006735
   0.39091223  0.87896913  0.51160023
   0.39832502  0.98379176  0.60119433
   0.38946671  0.10044474  0.69403750
   0.39617035  0.19281247  0.80156524
   0.39400137  0.29500669  0.91455821
   0.49398001  0.37771385  0.09849377
   0.49463321  0.49091824  0.20102364
   0.49124121  0.58935646  0.29999760
   0.48388314  0.69934443  0.37824991
   0.49994896  0.78129864  0.48784915
   0.50908761  0.88110100  0.59460417
   0.50277266  0.01342422  0.69502234
   0.50540537  0.10437670  0.79347494
   0.51194641  0.19455672  0.89965825
   0.51024910  0.29061333  0.99225468
   0.61262008  0.38530173  0.19616996
   0.59282710  0.49180978  0.28802327
   0.60225055  0.58550737  0.38630469
   0.60237209  0.68939446  0.48238423
   0.58808749  0.79977742  0.60145911
   0.59995281  0.90234797  0.70815145
   0.61400051  0.00484935  0.80616855
   0.61062587  0.10507672  0.90296817
   0.61421569  0.20236558  0.00280513
   0.59807952  0.28518501  0.09494490
   0.68858106  0.38832188  0.30197746
   0.69685974  0.49889635  0.39695494
   0.69045567  0.59264070  0.49827966
   0.67942296  0.67390221  0.60336536
   0.68787983  0.79217361  0.70144782
   0.71229865  0.89674074  0.80077172
   0.71362698  0.99521529  0.88875044
   0.70398385  0.10365412  0.98737420
   0.70504459  0.20353196  0.09180357
   0.68383430  0.30292317  0.19873676
   0.80953198  0.40704809  0.38955746
   0.80094790  0.48955350  0.50063364
   0.80646787  0.60627103  0.59363545
   0.79694901  0.67984521  0.69006116
   0.81132378  0.79309155  0.79869725
   0.80951462  0.89099537  0.88627014
   0.80448185  0.00086594  0.98098350
   0.80837332  0.10015956  0.09574954
   0.79621662  0.20927594  0.19353735
   0.79817076  0.30012153  0.29262190
   0.90025914  0.40424579  0.50790505
   0.90800894  0.49701379  0.60912544
   0.91845003  0.59338725  0.69144847
   0.90822097  0.68831985  0.78040824
   0.89214259  0.79159683  0.88920795
   0.89601343  0.89845297  0.99828642
   0.89513889  0.01118162  0.07666508
   0.88924351  0.10214653  0.18364975
   0.90033904  0.19372131  0.29167032
   0.90863214  0.28552754  0.40992535
   0.00567173  0.38230466  0.59324986
   0.00559495  0.49352507  0.69503283
   0.00546509  0.59210469  0.79119296
   0.99535747  0.69632259  0.89542454
   0.99199541  0.80541481  0.00184480
   0.99430108  0.91031994  0.10023027
   0.99033327  0.00672938  0.20354536
   0.99083412  0.08737313  0.31041403
   0.00175266  0.19574797  0.40639833
   0.00168007  0.29965824  0.49638669
   0.10643981  0.41684918  0.71391536
   0.10131191  0.51675108  0.81166997
   0.09931085  0.62647877  0.91038263
   0.10319528  0.70056384  0.01854556
   0.09288180  0.82866398  0.09448997
   0.09737545  0.91178979  0.20451125
   0.09467475  0.00239084  0.31443615
   0.11259118  0.09537194  0.42071241
   0.10765731  0.20369741  0.51941576
   0.09748452  0.30608796  0.60533860
   0.22367485  0.39364704  0.80890928
   0.21060700  0.50360602  0.90632989
   0.20856251  0.59500446  0.00663957
   0.19865769  0.70902276  0.12472873
   0.19776067  0.82832302  0.19932290
   0.19085581  0.90793835  0.31146514
   0.19616287  0.98922586  0.42046082
   0.20277038  0.09616555  0.50671118
   0.20590775  0.20990756  0.61238548
   0.19160642  0.31296486  0.70155947
   0.28911575  0.38242397  0.91164380
   0.30536820  0.49313627  0.01373977
   0.30615203  0.59206783  0.10325662
   0.29825191  0.70642271  0.19559356
   0.29157424  0.79799450  0.29362042
   0.31275060  0.90056808  0.39205367
   0.30698384  0.98657829  0.49705470
   0.29936986  0.10570735  0.59080531
   0.29859535  0.21508477  0.70721494
   0.30707642  0.29062095  0.82159525
