 500 500   0   0
  0.1852332E+02  0.2100050E-08  0.2100050E-08  0.2100050E-08  0.5000000E-15
  1.000000000000000E-004
  CAR 
 Li                                      
      3.92784500     -3.31963701  301      0.63676571      1.00000000
     -3.320  0.0000E+00  0.0000E+00
     -3.295  0.0000E+00  0.0000E+00
     -3.271  0.0000E+00  0.0000E+00
     -3.247  0.0000E+00  0.0000E+00
     -3.223  0.0000E+00  0.0000E+00
     -3.199  0.0000E+00  0.0000E+00
     -3.175  0.0000E+00  0.0000E+00
     -3.151  0.1667E-11  0.4027E-13
     -3.126  0.5590E-08  0.1351E-09
     -3.102  0.5270E-05  0.1274E-06
     -3.078  0.1410E-02  0.3418E-04
     -3.054  0.1086E+00  0.2657E-02
     -3.030  0.2458E+01  0.6204E-01
     -3.006  0.1677E+02  0.4671E+00
     -2.981  0.3528E+02  0.1319E+01
     -2.957  0.2317E+02  0.1879E+01
     -2.933  0.5211E+01  0.2005E+01
     -2.909  0.8826E+01  0.2218E+01
     -2.885  0.4777E+02  0.3372E+01
     -2.861  0.9439E+02  0.5653E+01
     -2.836  0.7212E+02  0.7395E+01
     -2.812  0.2270E+02  0.7943E+01
     -2.788  0.9912E+01  0.8183E+01
     -2.764  0.4326E+02  0.9228E+01
     -2.740  0.9120E+02  0.1143E+02
     -2.716  0.7610E+02  0.1327E+02
     -2.692  0.2691E+02  0.1392E+02
     -2.667  0.1157E+02  0.1420E+02
     -2.643  0.4993E+02  0.1541E+02
     -2.619  0.1147E+03  0.1818E+02
     -2.595  0.1075E+03  0.2077E+02
     -2.571  0.4404E+02  0.2184E+02
     -2.547  0.1963E+02  0.2231E+02
     -2.522  0.6893E+02  0.2398E+02
     -2.498  0.1543E+03  0.2770E+02
     -2.474  0.1612E+03  0.3160E+02
     -2.450  0.8032E+02  0.3354E+02
     -2.426  0.1967E+02  0.3401E+02
     -2.402  0.2390E+02  0.3459E+02
     -2.377  0.8169E+02  0.3656E+02
     -2.353  0.9823E+02  0.3894E+02
     -2.329  0.3923E+02  0.3988E+02
     -2.305  0.1167E+02  0.4016E+02
     -2.281  0.4865E+02  0.4134E+02
     -2.257  0.1387E+03  0.4469E+02
     -2.233  0.1744E+03  0.4890E+02
     -2.208  0.1010E+03  0.5134E+02
     -2.184  0.3598E+02  0.5221E+02
     -2.160  0.7111E+02  0.5393E+02
     -2.136  0.1812E+03  0.5831E+02
     -2.112  0.2354E+03  0.6399E+02
     -2.088  0.1699E+03  0.6810E+02
     -2.063  0.6725E+02  0.6972E+02
     -2.039  0.2608E+02  0.7035E+02
     -2.015  0.5956E+02  0.7179E+02
     -1.991  0.9126E+02  0.7400E+02
     -1.967  0.6174E+02  0.7549E+02
     -1.943  0.2286E+02  0.7604E+02
     -1.918  0.3742E+02  0.7695E+02
     -1.894  0.1253E+03  0.7997E+02
     -1.870  0.2037E+03  0.8489E+02
     -1.846  0.1551E+03  0.8864E+02
     -1.822  0.5393E+02  0.8994E+02
     -1.798  0.4410E+02  0.9101E+02
     -1.774  0.1436E+03  0.9448E+02
     -1.749  0.2395E+03  0.1003E+03
     -1.725  0.2074E+03  0.1053E+03
     -1.701  0.9388E+02  0.1075E+03
     -1.677  0.2988E+02  0.1083E+03
     -1.653  0.6379E+02  0.1098E+03
     -1.629  0.1454E+03  0.1133E+03
     -1.604  0.1658E+03  0.1173E+03
     -1.580  0.9300E+02  0.1196E+03
     -1.556  0.5370E+02  0.1209E+03
     -1.532  0.1326E+03  0.1241E+03
     -1.508  0.2276E+03  0.1296E+03
     -1.484  0.2126E+03  0.1347E+03
     -1.459  0.1107E+03  0.1374E+03
     -1.435  0.4732E+02  0.1385E+03
     -1.411  0.1015E+03  0.1410E+03
     -1.387  0.1998E+03  0.1458E+03
     -1.363  0.2195E+03  0.1511E+03
     -1.339  0.1439E+03  0.1546E+03
     -1.315  0.6139E+02  0.1561E+03
     -1.290  0.6632E+02  0.1577E+03
     -1.266  0.1382E+03  0.1610E+03
     -1.242  0.1650E+03  0.1650E+03
     -1.218  0.1001E+03  0.1674E+03
     -1.194  0.4845E+02  0.1686E+03
     -1.170  0.8737E+02  0.1707E+03
     -1.145  0.1311E+03  0.1739E+03
     -1.121  0.1302E+03  0.1770E+03
     -1.097  0.9410E+02  0.1793E+03
     -1.073  0.6523E+02  0.1809E+03
     -1.049  0.1420E+03  0.1843E+03
     -1.025  0.2733E+03  0.1909E+03
     -1.000  0.3367E+03  0.1990E+03
     -0.976  0.2786E+03  0.2058E+03
     -0.952  0.1504E+03  0.2094E+03
     -0.928  0.1000E+03  0.2118E+03
     -0.904  0.1691E+03  0.2159E+03
     -0.880  0.2333E+03  0.2215E+03
     -0.855  0.1870E+03  0.2260E+03
     -0.831  0.8796E+02  0.2282E+03
     -0.807  0.5718E+02  0.2295E+03
     -0.783  0.8833E+02  0.2317E+03
     -0.759  0.1581E+03  0.2355E+03
     -0.735  0.1801E+03  0.2399E+03
     -0.711  0.1533E+03  0.2436E+03
     -0.686  0.1832E+03  0.2480E+03
     -0.662  0.2228E+03  0.2534E+03
     -0.638  0.2360E+03  0.2591E+03
     -0.614  0.1922E+03  0.2637E+03
     -0.590  0.8116E+02  0.2657E+03
     -0.566  0.2564E+02  0.2663E+03
     -0.541  0.5604E+02  0.2676E+03
     -0.517  0.9777E+02  0.2700E+03
     -0.493  0.7272E+02  0.2718E+03
     -0.469  0.6849E+02  0.2734E+03
     -0.445  0.1591E+03  0.2773E+03
     -0.421  0.2529E+03  0.2834E+03
     -0.396  0.2920E+03  0.2904E+03
     -0.372  0.2921E+03  0.2975E+03
     -0.348  0.2607E+03  0.3038E+03
     -0.324  0.2093E+03  0.3088E+03
     -0.300  0.1926E+03  0.3135E+03
     -0.276  0.2307E+03  0.3191E+03
     -0.252  0.2573E+03  0.3253E+03
     -0.227  0.2315E+03  0.3309E+03
     -0.203  0.1651E+03  0.3349E+03
     -0.179  0.1065E+03  0.3374E+03
     -0.155  0.1112E+03  0.3401E+03
     -0.131  0.1489E+03  0.3437E+03
     -0.107  0.1699E+03  0.3478E+03
     -0.082  0.1761E+03  0.3521E+03
     -0.058  0.1558E+03  0.3558E+03
     -0.034  0.1514E+03  0.3595E+03
     -0.010  0.1713E+03  0.3636E+03
      0.014  0.1705E+03  0.3678E+03
      0.038  0.1825E+03  0.3722E+03
      0.063  0.2257E+03  0.3776E+03
      0.087  0.2691E+03  0.3841E+03
      0.111  0.2726E+03  0.3907E+03
      0.135  0.2264E+03  0.3962E+03
      0.159  0.2031E+03  0.4011E+03
      0.183  0.2228E+03  0.4065E+03
      0.207  0.2051E+03  0.4114E+03
      0.232  0.1394E+03  0.4148E+03
      0.256  0.9791E+02  0.4171E+03
      0.280  0.1405E+03  0.4205E+03
      0.304  0.2099E+03  0.4256E+03
      0.328  0.2458E+03  0.4316E+03
      0.352  0.2475E+03  0.4375E+03
      0.377  0.2288E+03  0.4431E+03
      0.401  0.2023E+03  0.4479E+03
      0.425  0.1940E+03  0.4526E+03
      0.449  0.1995E+03  0.4575E+03
      0.473  0.2039E+03  0.4624E+03
      0.497  0.2030E+03  0.4673E+03
      0.522  0.2054E+03  0.4722E+03
      0.546  0.2234E+03  0.4776E+03
      0.570  0.2425E+03  0.4835E+03
      0.594  0.2504E+03  0.4895E+03
      0.618  0.2513E+03  0.4956E+03
      0.642  0.2326E+03  0.5012E+03
      0.666  0.2141E+03  0.5064E+03
      0.691  0.2169E+03  0.5117E+03
      0.715  0.2330E+03  0.5173E+03
      0.739  0.2326E+03  0.5229E+03
      0.763  0.2243E+03  0.5283E+03
      0.787  0.2368E+03  0.5340E+03
      0.811  0.2672E+03  0.5405E+03
      0.836  0.2974E+03  0.5477E+03
      0.860  0.3021E+03  0.5550E+03
      0.884  0.2936E+03  0.5621E+03
      0.908  0.2796E+03  0.5688E+03
      0.932  0.2703E+03  0.5754E+03
      0.956  0.2725E+03  0.5819E+03
      0.981  0.2650E+03  0.5883E+03
      1.005  0.2481E+03  0.5943E+03
      1.029  0.2415E+03  0.6002E+03
      1.053  0.2391E+03  0.6059E+03
      1.077  0.2063E+03  0.6109E+03
      1.101  0.1499E+03  0.6146E+03
      1.125  0.1055E+03  0.6171E+03
      1.150  0.1144E+03  0.6199E+03
      1.174  0.1333E+03  0.6231E+03
      1.198  0.1543E+03  0.6268E+03
      1.222  0.1741E+03  0.6310E+03
      1.246  0.1811E+03  0.6354E+03
      1.270  0.1982E+03  0.6402E+03
      1.295  0.2256E+03  0.6456E+03
      1.319  0.2388E+03  0.6514E+03
      1.343  0.2256E+03  0.6569E+03
      1.367  0.2165E+03  0.6621E+03
      1.391  0.2299E+03  0.6676E+03
      1.415  0.2487E+03  0.6736E+03
      1.440  0.2593E+03  0.6799E+03
      1.464  0.2613E+03  0.6862E+03
      1.488  0.2531E+03  0.6923E+03
      1.512  0.2358E+03  0.6980E+03
      1.536  0.2194E+03  0.7033E+03
      1.560  0.2093E+03  0.7084E+03
      1.584  0.2043E+03  0.7133E+03
      1.609  0.1901E+03  0.7179E+03
      1.633  0.1781E+03  0.7222E+03
      1.657  0.1931E+03  0.7269E+03
      1.681  0.2074E+03  0.7319E+03
      1.705  0.2120E+03  0.7370E+03
      1.729  0.2093E+03  0.7421E+03
      1.754  0.2107E+03  0.7472E+03
      1.778  0.2074E+03  0.7522E+03
      1.802  0.1927E+03  0.7568E+03
      1.826  0.1757E+03  0.7611E+03
      1.850  0.1673E+03  0.7651E+03
      1.874  0.1612E+03  0.7690E+03
      1.899  0.1459E+03  0.7725E+03
      1.923  0.1448E+03  0.7760E+03
      1.947  0.1597E+03  0.7799E+03
      1.971  0.1591E+03  0.7837E+03
      1.995  0.1388E+03  0.7871E+03
      2.019  0.1170E+03  0.7899E+03
      2.043  0.1175E+03  0.7928E+03
      2.068  0.1382E+03  0.7961E+03
      2.092  0.1576E+03  0.7999E+03
      2.116  0.1765E+03  0.8042E+03
      2.140  0.1996E+03  0.8090E+03
      2.164  0.2213E+03  0.8143E+03
      2.188  0.2261E+03  0.8198E+03
      2.213  0.2091E+03  0.8248E+03
      2.237  0.2029E+03  0.8297E+03
      2.261  0.2139E+03  0.8349E+03
      2.285  0.2145E+03  0.8401E+03
      2.309  0.1967E+03  0.8448E+03
      2.333  0.1805E+03  0.8492E+03
      2.358  0.1653E+03  0.8532E+03
      2.382  0.1580E+03  0.8570E+03
      2.406  0.1588E+03  0.8609E+03
      2.430  0.1486E+03  0.8644E+03
      2.454  0.1371E+03  0.8678E+03
      2.478  0.1342E+03  0.8710E+03
      2.503  0.1278E+03  0.8741E+03
      2.527  0.1295E+03  0.8772E+03
      2.551  0.1488E+03  0.8808E+03
      2.575  0.1566E+03  0.8846E+03
      2.599  0.1521E+03  0.8883E+03
      2.623  0.1505E+03  0.8919E+03
      2.647  0.1436E+03  0.8954E+03
      2.672  0.1388E+03  0.8987E+03
      2.696  0.1457E+03  0.9022E+03
      2.720  0.1403E+03  0.9056E+03
      2.744  0.1248E+03  0.9087E+03
      2.768  0.1146E+03  0.9114E+03
      2.792  0.1153E+03  0.9142E+03
      2.817  0.1222E+03  0.9172E+03
      2.841  0.1311E+03  0.9203E+03
      2.865  0.1378E+03  0.9237E+03
      2.889  0.1484E+03  0.9272E+03
      2.913  0.1494E+03  0.9308E+03
      2.937  0.1482E+03  0.9344E+03
      2.962  0.1483E+03  0.9380E+03
      2.986  0.1406E+03  0.9414E+03
      3.010  0.1223E+03  0.9444E+03
      3.034  0.8806E+02  0.9465E+03
      3.058  0.9113E+02  0.9487E+03
      3.082  0.1227E+03  0.9517E+03
      3.106  0.1420E+03  0.9551E+03
      3.131  0.1396E+03  0.9585E+03
      3.155  0.1408E+03  0.9619E+03
      3.179  0.1404E+03  0.9653E+03
      3.203  0.1403E+03  0.9686E+03
      3.227  0.1485E+03  0.9722E+03
      3.251  0.1484E+03  0.9758E+03
      3.276  0.1422E+03  0.9793E+03
      3.300  0.1343E+03  0.9825E+03
      3.324  0.1122E+03  0.9852E+03
      3.348  0.7610E+02  0.9870E+03
      3.372  0.3225E+02  0.9878E+03
      3.396  0.7051E+01  0.9880E+03
      3.421  0.4118E+01  0.9881E+03
      3.445  0.1339E+02  0.9884E+03
      3.469  0.3281E+02  0.9892E+03
      3.493  0.6713E+02  0.9908E+03
      3.517  0.9599E+02  0.9932E+03
      3.541  0.1053E+03  0.9957E+03
      3.565  0.1029E+03  0.9982E+03
      3.590  0.8884E+02  0.1000E+04
      3.614  0.5296E+02  0.1002E+04
      3.638  0.1473E+02  0.1002E+04
      3.662  0.1531E+01  0.1002E+04
      3.686  0.5340E-01  0.1002E+04
      3.710  0.5855E-03  0.1002E+04
      3.735  0.1936E-05  0.1002E+04
      3.759  0.1877E-08  0.1002E+04
      3.783  0.5216E-12  0.1002E+04
      3.807  0.0000E+00  0.1002E+04
      3.831  0.0000E+00  0.1002E+04
      3.855  0.0000E+00  0.1002E+04
      3.880  0.0000E+00  0.1002E+04
      3.904  0.0000E+00  0.1002E+04
      3.928  0.0000E+00  0.1002E+04
