 running on   64 total cores
 distrk:  each k-point on   32 cores,    2 groups
 distr:  one band on   32 cores,    1 groups
 vasp.6.2.1 16May21 (build Nov 23 2021 15:40:41) complex                        
  
 POSCAR found type information on POSCAR Li
 POSCAR found :  1 types and     500 ions
 scaLAPACK will be used
 -----------------------------------------------------------------------------
|                                                                             |
|           W    W    AA    RRRRR   N    N  II  N    N   GGGG   !!!           |
|           W    W   A  A   R    R  NN   N  II  NN   N  G    G  !!!           |
|           W    W  A    A  R    R  N N  N  II  N N  N  G       !!!           |
|           W WW W  AAAAAA  RRRRR   N  N N  II  N  N N  G  GGG   !            |
|           WW  WW  A    A  R   R   N   NN  II  N   NN  G    G                |
|           W    W  A    A  R    R  N    N  II  N    N   GGGG   !!!           |
|                                                                             |
|     For optimal performance we recommend to set                             |
|       NCORE = 2 up to number-of-cores-per-socket                            |
|     NCORE specifies how many cores store one orbital (NPAR=cpu/NCORE).      |
|     This setting can greatly improve the performance of VASP for DFT.       |
|     The default, NCORE=1 might be grossly inefficient on modern             |
|     multi-core architectures or massively parallel machines. Do your        |
|     own testing! More info at https://www.vasp.at/wiki/index.php/NCORE      |
|     Unfortunately you need to use the default for GW and RPA                |
|     calculations (for HF NCORE is supported but not extensively tested      |
|     yet).                                                                   |
|                                                                             |
 -----------------------------------------------------------------------------

 -----------------------------------------------------------------------------
|                                                                             |
|               ----> ADVICE to this user running VASP <----                  |
|                                                                             |
|     You have a (more or less) 'large supercell' and for larger cells it     |
|     might be more efficient to use real-space projection operators.         |
|     Therefore, try LREAL= Auto in the INCAR file.                           |
|     Mind: If you want to do very accurate calculations, keep the            |
|     reciprocal projection scheme (i.e. LREAL=.FALSE.).                      |
|                                                                             |
 -----------------------------------------------------------------------------

 LDA part: xc-table for Pade appr. of Perdew
 POSCAR found type information on POSCAR Li
 POSCAR found :  1 types and     500 ions
 POSCAR, INCAR and KPOINTS ok, starting setup
 FFT: planning ...
 WAVECAR not read
 entering main loop
       N       E                     dE             d eps       ncg     rms          rms(c)
DAV:   1    -0.247009009642E+03   -0.24701E+03   -0.12459E+05  4008   0.665E+02
DAV:   2    -0.874824261840E+03   -0.62782E+03   -0.57469E+03  4604   0.700E+01
DAV:   3    -0.918964472377E+03   -0.44140E+02   -0.40150E+02  5192   0.146E+01
DAV:   4    -0.920420136893E+03   -0.14557E+01   -0.14334E+01  4664   0.290E+00
DAV:   5    -0.920453567954E+03   -0.33431E-01   -0.33374E-01  4792   0.465E-01    0.967E+00
DAV:   6    -0.915182979465E+03    0.52706E+01   -0.12186E+01  4576   0.463E+00    0.748E+00
DAV:   7    -0.910546867254E+03    0.46361E+01   -0.91854E+00  4656   0.442E+00    0.534E+00
DAV:   8    -0.907239406847E+03    0.33075E+01   -0.44499E+00  4584   0.253E+00    0.281E+00
DAV:   9    -0.906569088430E+03    0.67032E+00   -0.25387E+00  4416   0.131E+00    0.138E+00
DAV:  10    -0.906694899382E+03   -0.12581E+00   -0.61860E-01  4784   0.815E-01    0.136E+00
DAV:  11    -0.906488552504E+03    0.20635E+00   -0.30829E-01  4632   0.609E-01    0.614E-01
DAV:  12    -0.906480797096E+03    0.77554E-02   -0.71125E-02  4536   0.250E-01    0.374E-01
DAV:  13    -0.906478516815E+03    0.22803E-02   -0.30979E-02  4520   0.196E-01    0.278E-01
DAV:  14    -0.906471365323E+03    0.71515E-02   -0.10744E-02  4496   0.124E-01    0.136E-01
DAV:  15    -0.906470465659E+03    0.89966E-03   -0.32692E-03  4344   0.546E-02    0.551E-02
DAV:  16    -0.906470604376E+03   -0.13872E-03   -0.89234E-04  4728   0.322E-02    0.468E-02
DAV:  17    -0.906470341930E+03    0.26245E-03   -0.47090E-04  4600   0.243E-02    0.207E-02
DAV:  18    -0.906470302359E+03    0.39571E-04   -0.11255E-04  4496   0.104E-02    0.116E-02
DAV:  19    -0.906470283102E+03    0.19257E-04   -0.39190E-05  3664   0.595E-03    0.566E-03
DAV:  20    -0.906470279666E+03    0.34359E-05   -0.92819E-06  2416   0.373E-03
   1 F= -.90647028E+03 E0= -.90641948E+03  d E =-.101601E+00
