Li                                      
           1
    21.000500    0.000000    0.000000
     0.000000   21.000500    0.000000
     0.000000    0.000000   21.000500
   Li
   500
Direct configuration=     1
   0.99834541  0.98481841  0.99872820
   0.00881658  0.10235705  0.07463055
   0.00224880  0.19795637  0.17441269
   0.00013850  0.29489038  0.29080328
   0.99367403  0.39411522  0.40419315
   0.98705339  0.48368852  0.51743919
   0.99979411  0.62232227  0.57314229
   0.99878622  0.69531759  0.70717192
   0.00381805  0.80544990  0.79510230
   0.99860112  0.92195896  0.90365847
   0.11816210  0.99628315  0.08046389
   0.11158671  0.10444136  0.17118615
   0.08932750  0.19948560  0.29377402
   0.08816318  0.28382873  0.41735777
   0.09323597  0.39117635  0.50426377
   0.08310846  0.50196934  0.59417389
   0.09339447  0.57626188  0.69106495
   0.09714367  0.68677661  0.79695762
   0.08486239  0.78259374  0.90953513
   0.10804069  0.88596351  0.00262258
   0.21839296  0.02020755  0.19675697
   0.20183205  0.11205407  0.30596570
   0.19321720  0.18273773  0.41684518
   0.18431425  0.30459262  0.49037073
   0.17835551  0.40581617  0.58376978
   0.21467068  0.49585873  0.69278784
   0.21177466  0.60083629  0.79316389
   0.18964345  0.70299686  0.90524315
   0.21663399  0.80257517  0.99758868
   0.20789607  0.89628543  0.10319682
   0.29556405  0.00010017  0.29728898
   0.29144659  0.09342417  0.41268289
   0.29803542  0.18430077  0.49559729
   0.28970640  0.30209191  0.59125729
   0.30176129  0.38647007  0.69831356
   0.30321931  0.51788621  0.79723510
   0.29087165  0.61531530  0.90645628
   0.31413564  0.69809345  0.01163035
   0.30022899  0.80020937  0.10290469
   0.31720627  0.90409319  0.20770325
   0.38339971  0.00651135  0.40694307
   0.38423306  0.09525334  0.50662431
   0.39461829  0.20215947  0.60184517
   0.39508668  0.29957010  0.71085434
   0.40095487  0.39371366  0.80943626
   0.39332920  0.51120600  0.89837394
   0.39391511  0.57592019  0.03090051
   0.40155932  0.70525696  0.12040875
   0.41125260  0.80610667  0.20409508
   0.39379686  0.90415134  0.31028146
   0.49709858  0.00301913  0.49427320
   0.49154283  0.10547281  0.60346453
   0.50110221  0.20345672  0.68721186
   0.49063705  0.29159439  0.78982820
   0.50678397  0.41454677  0.91044754
   0.50940666  0.48612859  0.01447476
   0.51306783  0.59406200  0.08687480
   0.50665332  0.70775637  0.21401818
   0.51640951  0.80426706  0.31415220
   0.49899239  0.92453812  0.40216818
   0.60060160  0.99155995  0.59493117
   0.59161883  0.08126656  0.67599346
   0.57943482  0.17757238  0.79729061
   0.58551975  0.29285361  0.88493163
   0.59903420  0.37873660  0.00863905
   0.61685987  0.47944348  0.08945347
   0.60668340  0.60686952  0.18950104
   0.61127174  0.69999787  0.31346680
   0.59712571  0.79854218  0.42141883
   0.60182830  0.91089397  0.48177098
   0.70395139  0.00454394  0.70433125
   0.69798359  0.09762031  0.79409006
   0.68549987  0.18131572  0.86832038
   0.69612098  0.29320975  0.98118579
   0.71289642  0.38216560  0.08283215
   0.68882126  0.48135356  0.18744616
   0.71192419  0.59719961  0.29288185
   0.70444073  0.69424924  0.40742853
   0.70713188  0.79624570  0.51082917
   0.72101324  0.89597195  0.58509453
   0.79177854  0.99475060  0.79370593
   0.78783707  0.08825043  0.88000133
   0.78508510  0.19067788  0.97589614
   0.80994368  0.29178437  0.08808221
   0.82137986  0.42210476  0.17146348
   0.81635385  0.49485196  0.28301221
   0.78595220  0.57435916  0.38269653
   0.80899697  0.68615841  0.49074486
   0.81240831  0.80069510  0.61138063
   0.80916628  0.92233452  0.70151746
   0.87919606  0.99282743  0.90485802
   0.88788008  0.07927061  0.98662878
   0.90650226  0.21369027  0.07366216
   0.91451414  0.29346462  0.18765386
   0.90650706  0.40007165  0.30867245
   0.89354255  0.51071373  0.40190187
   0.87158819  0.58650970  0.49056677
   0.90011240  0.70474101  0.59479047
   0.91380324  0.79715765  0.69727958
   0.89813089  0.89610289  0.79219521
   0.10846619  0.10832797  0.99557173
   0.09352991  0.22779674  0.09638470
   0.09236420  0.29594943  0.20916089
   0.09228119  0.39389147  0.30858220
   0.10232805  0.49863634  0.40134289
   0.10166754  0.59353790  0.49192035
   0.08823793  0.71751016  0.57707336
   0.10320719  0.79185940  0.71255855
   0.10964873  0.89969358  0.80195097
   0.11767908  0.00405792  0.90264632
   0.20915377  0.11142363  0.08594078
   0.19414460  0.20096765  0.20063918
   0.17800965  0.30260628  0.32346471
   0.18987991  0.39537752  0.40883848
   0.19512929  0.49882262  0.48049264
   0.18047115  0.59425676  0.59476241
   0.20182514  0.69667894  0.67563444
   0.19734134  0.79240289  0.80321955
   0.18802000  0.87714786  0.90278158
   0.18533659  0.99505817  0.00120301
   0.28671556  0.10624748  0.21074684
   0.29897065  0.21556692  0.33834946
   0.29872402  0.29598276  0.40699447
   0.29522510  0.40137922  0.49904625
   0.28343384  0.51173328  0.58678310
   0.29761951  0.59319275  0.68502759
   0.32207601  0.69801103  0.80014389
   0.32069526  0.80014073  0.90926421
   0.30410195  0.91809401  0.01215424
   0.30755603  0.01990446  0.09260811
   0.39749441  0.10400701  0.32657037
   0.41073693  0.19550606  0.42099470
   0.39708454  0.29843035  0.49717724
   0.39188184  0.39814193  0.59267512
   0.39111232  0.49629054  0.68173813
   0.40865721  0.60138851  0.79805628
   0.41848601  0.68755073  0.92523629
   0.40460363  0.81218057  0.01825036
   0.39496940  0.90563102  0.11547866
   0.40644618  0.02205244  0.23072587
   0.49114940  0.08587027  0.40196923
   0.50673623  0.20465747  0.49683494
   0.50739562  0.29070971  0.58445340
   0.50148313  0.37282752  0.68387234
   0.49774292  0.49262266  0.78464282
   0.52155682  0.59425054  0.92905012
   0.49397977  0.71197705  0.99829411
   0.50757502  0.80833619  0.10384822
   0.51237126  0.91641958  0.21789457
   0.48285581  0.00736108  0.30108251
   0.61561536  0.11445015  0.49136978
   0.59163361  0.20515059  0.59026926
   0.58888784  0.31510223  0.69478094
   0.59959692  0.40547690  0.78748039
   0.60440704  0.50462073  0.91204897
   0.59083283  0.58693640  0.01215530
   0.58441905  0.70394491  0.09637921
   0.61111858  0.81605403  0.20024288
   0.61155079  0.91853296  0.31968755
   0.60068690  0.03068538  0.39491181
   0.70725264  0.10485080  0.61065014
   0.68814655  0.20313162  0.70596206
   0.68483890  0.28857150  0.80807611
   0.70196652  0.39938509  0.89273727
   0.70818011  0.50537342  0.99094425
   0.68909516  0.60528604  0.09090739
   0.69679282  0.70538830  0.20323780
   0.68541983  0.81093159  0.31076054
   0.70976659  0.91678509  0.41460959
   0.71534026  0.01481252  0.49851332
   0.81748559  0.10562114  0.70924640
   0.81010850  0.19273011  0.79866300
   0.79100762  0.28469362  0.87844130
   0.81048756  0.40039280  0.00015192
   0.80553369  0.51191455  0.08492926
   0.79164278  0.58740280  0.19831467
   0.80171382  0.68065794  0.30807900
   0.80389986  0.79440703  0.40418153
   0.80946968  0.89595668  0.51224761
   0.81722726  0.01859559  0.61086488
   0.90778484  0.10012312  0.79614258
   0.88892117  0.19019563  0.88605702
   0.88901542  0.29670780  0.97894833
   0.91428238  0.40278692  0.08218386
   0.91267452  0.51005100  0.19307282
   0.90812594  0.59427166  0.29598422
   0.89957328  0.68575657  0.40112670
   0.88569690  0.80570733  0.50537220
   0.89893910  0.90231725  0.61415848
   0.90395001  0.01459536  0.72038602
   0.99742750  0.08719847  0.89661027
   0.98152469  0.19134795  0.96877816
   0.00703848  0.30200233  0.07761394
   0.00076186  0.39878664  0.19289432
   0.00757346  0.49935131  0.30386071
   0.99773471  0.58840276  0.42355656
   0.98530911  0.70249778  0.48977251
   0.01304913  0.80500648  0.58287140
   0.99758509  0.90003193  0.71301010
   0.00586369  0.99221075  0.81532695
   0.21038053  0.19030566  0.00357190
   0.20570488  0.29954577  0.11794173
   0.20265351  0.40921244  0.20941328
   0.19950924  0.48188457  0.31274243
   0.18915759  0.60260259  0.38152584
   0.18585490  0.70076389  0.48698192
   0.19304355  0.81152694  0.59004203
   0.21486093  0.87510118  0.70041060
   0.22150439  0.00251840  0.80598363
   0.20044081  0.12373015  0.89575913
   0.31013310  0.19452182  0.10624053
   0.29598108  0.29424854  0.22865139
   0.30383349  0.39023765  0.31262638
   0.30800695  0.49092014  0.40985595
   0.28405499  0.61050339  0.47619852
   0.28701720  0.71091008  0.58456173
   0.29263852  0.79638340  0.70577114
   0.29551419  0.90271976  0.79634970
   0.27818408  0.00908095  0.91462646
   0.30524516  0.07820978  0.99073656
   0.39193313  0.18459247  0.21960305
   0.40532859  0.30056306  0.31238206
   0.40860831  0.38875678  0.41328949
   0.38588885  0.48224566  0.49994549
   0.38995729  0.59821110  0.59083958
   0.39335097  0.69585766  0.67478664
   0.39563760  0.81079024  0.78315905
   0.37280228  0.91209558  0.89250773
   0.41596600  0.98538250  0.99005609
   0.39768980  0.08169163  0.10837964
   0.50947899  0.20406382  0.31766949
   0.51540135  0.30490907  0.40520283
   0.51190942  0.40448555  0.49627969
   0.50994345  0.49872496  0.59427909
   0.49967641  0.58655983  0.66414896
   0.51090563  0.70709250  0.79655561
   0.48294872  0.80726837  0.88317190
   0.49108890  0.89999622  0.99257183
   0.49937561  0.98997948  0.11562297
   0.51257035  0.09906380  0.20840339
   0.61293144  0.18650483  0.39587685
   0.62670305  0.30904481  0.48284808
   0.59200691  0.39637853  0.60199653
   0.61424155  0.49078622  0.70592215
   0.57420306  0.58533189  0.79962628
   0.59657137  0.69789056  0.90282579
   0.58377867  0.81275484  0.00453769
   0.59209814  0.90387241  0.08901695
   0.60213851  0.99513346  0.19726115
   0.61164615  0.10705832  0.29905825
   0.71825682  0.20120325  0.52322826
   0.70363636  0.31393799  0.60991986
   0.68909040  0.41633915  0.70086874
   0.66548668  0.51120042  0.79551658
   0.69277244  0.59854131  0.87801015
   0.68880908  0.70564022  0.00657994
   0.69971235  0.80176446  0.09481187
   0.70130266  0.89919407  0.21271757
   0.70984198  0.00653119  0.29827214
   0.71266550  0.12212014  0.39999328
   0.81239465  0.20727469  0.64493541
   0.79739531  0.30958252  0.72701444
   0.78808100  0.42016321  0.78675972
   0.79403319  0.48744335  0.88517273
   0.77723666  0.61340163  0.97953316
   0.79461725  0.69905028  0.10325190
   0.79536003  0.80240959  0.22140897
   0.79107834  0.90158615  0.30825056
   0.81454865  0.00790844  0.39442044
   0.79905448  0.10659819  0.51047167
   0.92113062  0.21016566  0.71832332
   0.89798863  0.31835703  0.81080886
   0.89808882  0.40530886  0.88004848
   0.88653713  0.51945598  0.99940484
   0.89991701  0.61624787  0.09772791
   0.88940340  0.71051101  0.20745900
   0.90003646  0.81410863  0.32022355
   0.88113359  0.90809955  0.41128963
   0.89158165  0.00055979  0.51229802
   0.91253755  0.11043026  0.62374159
   0.99202135  0.21357897  0.81787822
   0.00141951  0.31950957  0.90511800
   0.00347007  0.42868037  0.99090881
   0.99954588  0.50837259  0.10219609
   0.00053397  0.61117837  0.20137197
   0.99101739  0.70047632  0.30879606
   0.99777575  0.79554559  0.40379288
   0.98288662  0.90332672  0.51665827
   0.00044412  0.99642033  0.62072605
   0.01550822  0.10997249  0.72224273
   0.09991639  0.19677115  0.89256038
   0.09761801  0.29851714  0.99571434
   0.11739194  0.40799835  0.09950289
   0.08670866  0.50160166  0.20772866
   0.10193505  0.58674555  0.29540782
   0.08410623  0.69196233  0.40032639
   0.11185456  0.80885156  0.49482882
   0.08326052  0.89790023  0.60645507
   0.11510964  0.98345066  0.71810777
   0.10530434  0.09285099  0.78651135
   0.29724821  0.30603145  0.99076356
   0.29654123  0.39621390  0.11293469
   0.33193593  0.49811862  0.24014039
   0.32054496  0.59076126  0.29429745
   0.28364866  0.69600486  0.38376658
   0.29521813  0.78564364  0.46929537
   0.32424169  0.86379956  0.60056422
   0.29856781  0.98481231  0.68822728
   0.28487886  0.10600606  0.79600519
   0.31465764  0.20195090  0.88743409
   0.39843384  0.29729885  0.11302848
   0.39492838  0.40427944  0.21745674
   0.42993339  0.48657581  0.32847760
   0.39930165  0.59109903  0.42474942
   0.39399590  0.69493012  0.49810780
   0.39575473  0.81214342  0.59579846
   0.39453564  0.90075315  0.69874527
   0.37505174  0.01207933  0.80212916
   0.39427273  0.10308727  0.91491577
   0.38275726  0.18662032  0.00985757
   0.50862453  0.28954370  0.20201109
   0.50690287  0.40585415  0.30677096
   0.51039468  0.49229674  0.41124797
   0.49135167  0.59606984  0.51131483
   0.50692674  0.70098757  0.59005217
   0.49519539  0.81076744  0.68707290
   0.48009158  0.89729411  0.78970440
   0.49923930  0.00636036  0.88247506
   0.48636894  0.09077030  0.99016365
   0.47587939  0.19312617  0.10554869
   0.62032660  0.27955081  0.30800064
   0.60096632  0.41249947  0.36894465
   0.60914329  0.49611554  0.50297533
   0.59977901  0.60586396  0.59860167
   0.58645765  0.69569398  0.70394883
   0.58922472  0.81735443  0.80581616
   0.58225691  0.92493934  0.89089817
   0.58549014  0.98721956  0.98234412
   0.58513524  0.10883152  0.07852977
   0.61445151  0.18777085  0.19082113
   0.70523034  0.31109948  0.38026842
   0.70904441  0.41839273  0.49714053
   0.70929915  0.50095534  0.58930602
   0.69162177  0.59414102  0.69505202
   0.68863022  0.69532185  0.79501462
   0.67736782  0.80127189  0.88690412
   0.68740035  0.89836095  0.99320091
   0.69444121  0.99296086  0.09930987
   0.70352729  0.10750869  0.19310436
   0.71119982  0.19951525  0.29080409
   0.79648032  0.29866950  0.50322043
   0.81244227  0.39685858  0.60478175
   0.79607714  0.50511146  0.70805869
   0.81539566  0.60311184  0.80275451
   0.78491036  0.70836890  0.89129419
   0.77091298  0.80392062  0.00569548
   0.80479603  0.88768724  0.10559421
   0.79881033  0.00558457  0.20347041
   0.81528093  0.11905871  0.31436380
   0.80094155  0.21014652  0.41534322
   0.91777960  0.30751139  0.59773757
   0.91625667  0.39227212  0.70446587
   0.92960384  0.50437848  0.80155377
   0.88673759  0.59495504  0.90513010
   0.87866490  0.70924070  0.99470169
   0.89150433  0.78397579  0.11400126
   0.89562946  0.88913743  0.20291030
   0.93052158  0.01236452  0.30038957
   0.92125660  0.09783200  0.40183925
   0.90805770  0.18254622  0.51320292
   0.01976568  0.30486329  0.71958656
   0.00544028  0.42576169  0.80984232
   0.01390098  0.51825714  0.89095003
   0.01342144  0.62225289  0.00076132
   0.98461974  0.70091084  0.09649876
   0.01186631  0.79642170  0.20061177
   0.98425101  0.89404631  0.30318642
   0.99074902  0.99390328  0.38968965
   0.00464765  0.08453398  0.51447975
   0.00531150  0.19593081  0.62872047
   0.10444640  0.32605083  0.80305289
   0.13026303  0.41277782  0.91272980
   0.10815114  0.51850208  0.02233518
   0.09871728  0.61276507  0.10128443
   0.10091524  0.69960388  0.21376391
   0.10021822  0.79898496  0.31137056
   0.09747727  0.91944761  0.40015354
   0.10496741  0.98147720  0.52271753
   0.11482174  0.09831084  0.63670432
   0.11217985  0.19145592  0.71856929
   0.19752280  0.27983051  0.91345284
   0.18992801  0.41531661  0.00861592
   0.21056683  0.50601933  0.11331504
   0.19562175  0.58793630  0.21070607
   0.20757879  0.69875786  0.31648082
   0.19086616  0.81322498  0.38360199
   0.20468227  0.89740425  0.50253571
   0.20994072  0.97068237  0.61411267
   0.20801965  0.10730988  0.69700746
   0.20162852  0.21073011  0.79938078
   0.39269090  0.41284481  0.99129951
   0.38658028  0.49788858  0.11463620
   0.43370075  0.59316594  0.20697912
   0.40472766  0.69992124  0.30222449
   0.39156251  0.79538311  0.38700113
   0.37965159  0.89241712  0.50399451
   0.38475275  0.99013905  0.58471521
   0.37728050  0.10093924  0.68605647
   0.41508402  0.20212168  0.79321157
   0.40764522  0.29214733  0.91112440
   0.50414694  0.39862427  0.10946192
   0.52053546  0.51612499  0.19742227
   0.51190383  0.58556618  0.32492534
   0.49375122  0.69865860  0.41998829
   0.48710931  0.79291742  0.48437179
   0.49372980  0.92412081  0.59321467
   0.48987124  0.99170524  0.69935269
   0.49568662  0.10370974  0.79285031
   0.49720947  0.18049352  0.90495493
   0.50188141  0.30579034  0.01073071
   0.60703145  0.35903703  0.19991192
   0.61133266  0.49994595  0.29032132
   0.59770567  0.60461790  0.40035436
   0.61592088  0.69044493  0.51010676
   0.58114376  0.80813235  0.58148604
   0.59565247  0.91187647  0.69009272
   0.58945085  0.98356199  0.78109790
   0.58647613  0.06258040  0.88148152
   0.59907363  0.20894003  0.96171615
   0.60955249  0.28865335  0.11170640
   0.73640775  0.39303630  0.27497832
   0.70827180  0.50369925  0.39130099
   0.71373092  0.58413031  0.50668544
   0.71672015  0.71293188  0.61825833
   0.70569485  0.80499476  0.70687811
   0.69846061  0.88125668  0.79377715
   0.68681002  0.97984921  0.89254679
   0.70058769  0.09143886  0.97211161
   0.72270005  0.19952670  0.07556842
   0.72202539  0.27936270  0.19096912
   0.81813074  0.40827580  0.38608122
   0.78322394  0.49590941  0.48138087
   0.79555918  0.58925993  0.61389698
   0.79415452  0.69380402  0.70416962
   0.81421324  0.80380236  0.78578947
   0.79348443  0.88905762  0.89970523
   0.79047951  0.99583350  0.01198920
   0.79824648  0.10714216  0.07829059
   0.81067722  0.20329611  0.17165553
   0.79679144  0.30185042  0.28291568
   0.88771008  0.39958089  0.50042308
   0.87101717  0.50569789  0.58984563
   0.89512851  0.59134814  0.69438024
   0.89311383  0.69989350  0.80086592
   0.90057246  0.80441083  0.90465282
   0.88710175  0.88824800  0.00123264
   0.91116450  0.98843450  0.09347751
   0.89911161  0.10410339  0.18539909
   0.90385790  0.20212983  0.29444426
   0.88799770  0.30666859  0.41219563
   0.00953164  0.40482919  0.60723312
   0.98965460  0.50899455  0.70027809
   0.00433777  0.60268395  0.81300302
   0.00117298  0.69787193  0.89733030
   0.98826946  0.79868866  0.00292260
   0.99637695  0.90226929  0.08907882
   0.00313001  0.99639726  0.17831685
   0.00478647  0.10845088  0.27789852
   0.01299016  0.19615387  0.40696934
   0.99894372  0.29282687  0.50345871
   0.10535333  0.40822036  0.69441779
   0.11759127  0.49848722  0.78784297
   0.10907353  0.60720645  0.90752874
   0.10087078  0.69742920  0.99185708
   0.09308383  0.79784794  0.09160877
   0.10487616  0.90020969  0.20686886
   0.08739278  0.01743662  0.27082878
   0.07695498  0.09139712  0.40206732
   0.09586071  0.18161480  0.51538314
   0.09449418  0.28724512  0.60272257
   0.20095088  0.40064414  0.80321056
   0.20851462  0.49819605  0.91607777
   0.21027117  0.61577599  0.00729759
   0.20395732  0.70874248  0.09609105
   0.19835253  0.79594128  0.20865935
   0.19334182  0.90115731  0.28546876
   0.19166381  0.99183841  0.40050048
   0.18973168  0.08125552  0.50522714
   0.18875890  0.22367936  0.59714732
   0.19894425  0.31465756  0.69540184
   0.29285013  0.40401649  0.91102101
   0.30989810  0.51286565  0.01656840
   0.29840453  0.62229973  0.12184368
   0.30208679  0.69750603  0.19826896
   0.30923506  0.79837483  0.29594458
   0.29614195  0.89361671  0.39982155
   0.28779042  0.98607683  0.48680990
   0.29604957  0.09664749  0.59548629
   0.29751525  0.21671283  0.68931483
   0.29318671  0.29450473  0.81632123
