 432 432   0   0
  0.2159961E+02  0.2105280E-08  0.2105280E-08  0.2105280E-08  0.5000000E-15
  1.000000000000000E-004
  CAR 
 Li                                      
      3.36817556     -3.51346809  301      0.25162782      1.00000000
     -3.513  0.0000E+00  0.0000E+00
     -3.491  0.0000E+00  0.0000E+00
     -3.468  0.0000E+00  0.0000E+00
     -3.445  0.0000E+00  0.0000E+00
     -3.422  0.0000E+00  0.0000E+00
     -3.399  0.0000E+00  0.0000E+00
     -3.376  0.4840E-14  0.1110E-15
     -3.353  0.3056E-10  0.7012E-12
     -3.330  0.4683E-07  0.1075E-08
     -3.307  0.2289E-04  0.5262E-06
     -3.284  0.3601E-02  0.8314E-04
     -3.261  0.1847E+00  0.4320E-02
     -3.238  0.3139E+01  0.7631E-01
     -3.215  0.1801E+02  0.4895E+00
     -3.192  0.3549E+02  0.1304E+01
     -3.169  0.2421E+02  0.1859E+01
     -3.146  0.5781E+01  0.1991E+01
     -3.124  0.2886E+01  0.2058E+01
     -3.101  0.2272E+02  0.2579E+01
     -3.078  0.7815E+02  0.4371E+01
     -3.055  0.1005E+03  0.6677E+01
     -3.032  0.4844E+02  0.7789E+01
     -3.009  0.9052E+01  0.7996E+01
     -2.986  0.7315E+01  0.8164E+01
     -2.963  0.4147E+02  0.9115E+01
     -2.940  0.9593E+02  0.1132E+02
     -2.917  0.8473E+02  0.1326E+02
     -2.894  0.2860E+02  0.1392E+02
     -2.871  0.5847E+01  0.1405E+02
     -2.848  0.2222E+02  0.1456E+02
     -2.825  0.8532E+02  0.1652E+02
     -2.802  0.1326E+03  0.1956E+02
     -2.779  0.8330E+02  0.2147E+02
     -2.756  0.2178E+02  0.2197E+02
     -2.734  0.1344E+02  0.2228E+02
     -2.711  0.6488E+02  0.2377E+02
     -2.688  0.1580E+03  0.2739E+02
     -2.665  0.1754E+03  0.3141E+02
     -2.642  0.9030E+02  0.3348E+02
     -2.619  0.2134E+02  0.3397E+02
     -2.596  0.1203E+02  0.3425E+02
     -2.573  0.4875E+02  0.3537E+02
     -2.550  0.9478E+02  0.3754E+02
     -2.527  0.7741E+02  0.3932E+02
     -2.504  0.2660E+02  0.3993E+02
     -2.481  0.1116E+02  0.4018E+02
     -2.458  0.5048E+02  0.4134E+02
     -2.435  0.1402E+03  0.4456E+02
     -2.412  0.1787E+03  0.4866E+02
     -2.389  0.1094E+03  0.5117E+02
     -2.367  0.3506E+02  0.5197E+02
     -2.344  0.3295E+02  0.5273E+02
     -2.321  0.1157E+03  0.5538E+02
     -2.298  0.2235E+03  0.6051E+02
     -2.275  0.2343E+03  0.6588E+02
     -2.252  0.1353E+03  0.6899E+02
     -2.229  0.3972E+02  0.6990E+02
     -2.206  0.1504E+02  0.7024E+02
     -2.183  0.5148E+02  0.7142E+02
     -2.160  0.9917E+02  0.7370E+02
     -2.137  0.7523E+02  0.7542E+02
     -2.114  0.2382E+02  0.7597E+02
     -2.091  0.1873E+02  0.7640E+02
     -2.068  0.7925E+02  0.7822E+02
     -2.045  0.1780E+03  0.8230E+02
     -2.022  0.1961E+03  0.8680E+02
     -2.000  0.1081E+03  0.8928E+02
     -1.977  0.3182E+02  0.9001E+02
     -1.954  0.3614E+02  0.9084E+02
     -1.931  0.1296E+03  0.9381E+02
     -1.908  0.2381E+03  0.9928E+02
     -1.885  0.2252E+03  0.1044E+03
     -1.862  0.1176E+03  0.1071E+03
     -1.839  0.3594E+02  0.1080E+03
     -1.816  0.3193E+02  0.1087E+03
     -1.793  0.1060E+03  0.1111E+03
     -1.770  0.1791E+03  0.1152E+03
     -1.747  0.1437E+03  0.1185E+03
     -1.724  0.5809E+02  0.1199E+03
     -1.701  0.4208E+02  0.1208E+03
     -1.678  0.1251E+03  0.1237E+03
     -1.655  0.2262E+03  0.1289E+03
     -1.632  0.2276E+03  0.1341E+03
     -1.610  0.1290E+03  0.1371E+03
     -1.587  0.4306E+02  0.1381E+03
     -1.564  0.5458E+02  0.1393E+03
     -1.541  0.1626E+03  0.1430E+03
     -1.518  0.2571E+03  0.1489E+03
     -1.495  0.2090E+03  0.1537E+03
     -1.472  0.8387E+02  0.1557E+03
     -1.449  0.2341E+02  0.1562E+03
     -1.426  0.5259E+02  0.1574E+03
     -1.403  0.1369E+03  0.1605E+03
     -1.380  0.1769E+03  0.1646E+03
     -1.357  0.1119E+03  0.1672E+03
     -1.334  0.3405E+02  0.1679E+03
     -1.311  0.2133E+02  0.1684E+03
     -1.288  0.7642E+02  0.1702E+03
     -1.265  0.1522E+03  0.1737E+03
     -1.243  0.1600E+03  0.1773E+03
     -1.220  0.9847E+02  0.1796E+03
     -1.197  0.7934E+02  0.1814E+03
     -1.174  0.1665E+03  0.1852E+03
     -1.151  0.2822E+03  0.1917E+03
     -1.128  0.3382E+03  0.1995E+03
     -1.105  0.2796E+03  0.2059E+03
     -1.082  0.1435E+03  0.2092E+03
     -1.059  0.7111E+02  0.2108E+03
     -1.036  0.1374E+03  0.2140E+03
     -1.013  0.2299E+03  0.2192E+03
     -0.990  0.2112E+03  0.2241E+03
     -0.967  0.1222E+03  0.2269E+03
     -0.944  0.4691E+02  0.2280E+03
     -0.921  0.4509E+02  0.2290E+03
     -0.898  0.1304E+03  0.2320E+03
     -0.876  0.2092E+03  0.2368E+03
     -0.853  0.1621E+03  0.2405E+03
     -0.830  0.6397E+02  0.2420E+03
     -0.807  0.5989E+02  0.2433E+03
     -0.784  0.1700E+03  0.2472E+03
     -0.761  0.2866E+03  0.2538E+03
     -0.738  0.2838E+03  0.2603E+03
     -0.715  0.1855E+03  0.2646E+03
     -0.692  0.1087E+03  0.2671E+03
     -0.669  0.9899E+02  0.2693E+03
     -0.646  0.7878E+02  0.2712E+03
     -0.623  0.3216E+02  0.2719E+03
     -0.600  0.1734E+02  0.2723E+03
     -0.577  0.7415E+02  0.2740E+03
     -0.554  0.1989E+03  0.2786E+03
     -0.531  0.2799E+03  0.2850E+03
     -0.508  0.2580E+03  0.2909E+03
     -0.486  0.1957E+03  0.2954E+03
     -0.463  0.1560E+03  0.2990E+03
     -0.440  0.1508E+03  0.3024E+03
     -0.417  0.1781E+03  0.3065E+03
     -0.394  0.2235E+03  0.3116E+03
     -0.371  0.2581E+03  0.3175E+03
     -0.348  0.2754E+03  0.3239E+03
     -0.325  0.2263E+03  0.3291E+03
     -0.302  0.1292E+03  0.3320E+03
     -0.279  0.9980E+02  0.3343E+03
     -0.256  0.1228E+03  0.3371E+03
     -0.233  0.1361E+03  0.3403E+03
     -0.210  0.1231E+03  0.3431E+03
     -0.187  0.1176E+03  0.3458E+03
     -0.164  0.1914E+03  0.3502E+03
     -0.141  0.2826E+03  0.3566E+03
     -0.119  0.3309E+03  0.3642E+03
     -0.096  0.3219E+03  0.3716E+03
     -0.073  0.2362E+03  0.3770E+03
     -0.050  0.1242E+03  0.3799E+03
     -0.027  0.1006E+03  0.3822E+03
     -0.004  0.1707E+03  0.3861E+03
      0.019  0.2379E+03  0.3916E+03
      0.042  0.2507E+03  0.3973E+03
      0.065  0.1918E+03  0.4017E+03
      0.088  0.1046E+03  0.4041E+03
      0.111  0.9126E+02  0.4062E+03
      0.134  0.1245E+03  0.4091E+03
      0.157  0.1565E+03  0.4127E+03
      0.180  0.2108E+03  0.4175E+03
      0.203  0.2262E+03  0.4227E+03
      0.226  0.1957E+03  0.4272E+03
      0.248  0.1840E+03  0.4314E+03
      0.271  0.2089E+03  0.4362E+03
      0.294  0.2346E+03  0.4416E+03
      0.317  0.2546E+03  0.4474E+03
      0.340  0.2638E+03  0.4535E+03
      0.363  0.2287E+03  0.4587E+03
      0.386  0.1634E+03  0.4624E+03
      0.409  0.1264E+03  0.4653E+03
      0.432  0.1515E+03  0.4688E+03
      0.455  0.1972E+03  0.4733E+03
      0.478  0.2114E+03  0.4782E+03
      0.501  0.2074E+03  0.4830E+03
      0.524  0.2279E+03  0.4882E+03
      0.547  0.2721E+03  0.4944E+03
      0.570  0.2970E+03  0.5012E+03
      0.593  0.2919E+03  0.5079E+03
      0.616  0.2842E+03  0.5145E+03
      0.638  0.2817E+03  0.5209E+03
      0.661  0.2669E+03  0.5270E+03
      0.684  0.2440E+03  0.5326E+03
      0.707  0.2384E+03  0.5381E+03
      0.730  0.2521E+03  0.5439E+03
      0.753  0.2599E+03  0.5498E+03
      0.776  0.2524E+03  0.5556E+03
      0.799  0.2393E+03  0.5611E+03
      0.822  0.2291E+03  0.5664E+03
      0.845  0.2244E+03  0.5715E+03
      0.868  0.2350E+03  0.5769E+03
      0.891  0.2525E+03  0.5827E+03
      0.914  0.2540E+03  0.5885E+03
      0.937  0.2526E+03  0.5943E+03
      0.960  0.2524E+03  0.6001E+03
      0.983  0.2379E+03  0.6056E+03
      1.005  0.2244E+03  0.6107E+03
      1.028  0.2149E+03  0.6157E+03
      1.051  0.1842E+03  0.6199E+03
      1.074  0.1595E+03  0.6235E+03
      1.097  0.1805E+03  0.6277E+03
      1.120  0.2131E+03  0.6326E+03
      1.143  0.2383E+03  0.6380E+03
      1.166  0.2414E+03  0.6436E+03
      1.189  0.1953E+03  0.6481E+03
      1.212  0.1181E+03  0.6508E+03
      1.235  0.5958E+02  0.6521E+03
      1.258  0.7585E+02  0.6539E+03
      1.281  0.1474E+03  0.6572E+03
      1.304  0.1707E+03  0.6612E+03
      1.327  0.1271E+03  0.6641E+03
      1.350  0.1150E+03  0.6667E+03
      1.372  0.1546E+03  0.6703E+03
      1.395  0.1873E+03  0.6746E+03
      1.418  0.1986E+03  0.6791E+03
      1.441  0.2021E+03  0.6837E+03
      1.464  0.1947E+03  0.6882E+03
      1.487  0.1650E+03  0.6920E+03
      1.510  0.1315E+03  0.6950E+03
      1.533  0.1266E+03  0.6979E+03
      1.556  0.1493E+03  0.7013E+03
      1.579  0.1933E+03  0.7058E+03
      1.602  0.2322E+03  0.7111E+03
      1.625  0.2223E+03  0.7162E+03
      1.648  0.1856E+03  0.7205E+03
      1.671  0.1627E+03  0.7242E+03
      1.694  0.1767E+03  0.7282E+03
      1.717  0.2082E+03  0.7330E+03
      1.740  0.2262E+03  0.7382E+03
      1.762  0.2198E+03  0.7433E+03
      1.785  0.1885E+03  0.7476E+03
      1.808  0.1522E+03  0.7511E+03
      1.831  0.1405E+03  0.7543E+03
      1.854  0.1587E+03  0.7579E+03
      1.877  0.1789E+03  0.7620E+03
      1.900  0.1736E+03  0.7660E+03
      1.923  0.1599E+03  0.7697E+03
      1.946  0.1496E+03  0.7731E+03
      1.969  0.1478E+03  0.7765E+03
      1.992  0.1378E+03  0.7797E+03
      2.015  0.1092E+03  0.7822E+03
      2.038  0.7433E+02  0.7839E+03
      2.061  0.7122E+02  0.7855E+03
      2.084  0.1089E+03  0.7880E+03
      2.107  0.1255E+03  0.7909E+03
      2.129  0.1101E+03  0.7934E+03
      2.152  0.7707E+02  0.7952E+03
      2.175  0.3020E+02  0.7959E+03
      2.198  0.5245E+01  0.7960E+03
      2.221  0.4715E+01  0.7961E+03
      2.244  0.2979E+02  0.7968E+03
      2.267  0.7971E+02  0.7986E+03
      2.290  0.9083E+02  0.8007E+03
      2.313  0.4578E+02  0.8018E+03
      2.336  0.9919E+01  0.8020E+03
      2.359  0.8744E+00  0.8020E+03
      2.382  0.4785E+00  0.8020E+03
      2.405  0.5139E+01  0.8021E+03
      2.428  0.2444E+02  0.8027E+03
      2.451  0.5814E+02  0.8040E+03
      2.474  0.8825E+02  0.8060E+03
      2.497  0.1057E+03  0.8085E+03
      2.519  0.1120E+03  0.8110E+03
      2.542  0.1143E+03  0.8137E+03
      2.565  0.1065E+03  0.8161E+03
      2.588  0.9158E+02  0.8182E+03
      2.611  0.1037E+03  0.8206E+03
      2.634  0.1327E+03  0.8236E+03
      2.657  0.1515E+03  0.8271E+03
      2.680  0.1604E+03  0.8308E+03
      2.703  0.1581E+03  0.8344E+03
      2.726  0.1418E+03  0.8377E+03
      2.749  0.1212E+03  0.8404E+03
      2.772  0.1075E+03  0.8429E+03
      2.795  0.9514E+02  0.8451E+03
      2.818  0.7408E+02  0.8468E+03
      2.841  0.4330E+02  0.8478E+03
      2.864  0.3114E+02  0.8485E+03
      2.886  0.5314E+02  0.8497E+03
      2.909  0.6127E+02  0.8511E+03
      2.932  0.5999E+02  0.8525E+03
      2.955  0.8118E+02  0.8544E+03
      2.978  0.9847E+02  0.8566E+03
      3.001  0.1068E+03  0.8591E+03
      3.024  0.1206E+03  0.8618E+03
      3.047  0.1080E+03  0.8643E+03
      3.070  0.5701E+02  0.8656E+03
      3.093  0.1485E+02  0.8660E+03
      3.116  0.1680E+01  0.8660E+03
      3.139  0.7510E-01  0.8660E+03
      3.162  0.1232E-02  0.8660E+03
      3.185  0.7033E-05  0.8660E+03
      3.208  0.1347E-07  0.8660E+03
      3.231  0.8441E-11  0.8660E+03
      3.253  0.0000E+00  0.8660E+03
      3.276  0.0000E+00  0.8660E+03
      3.299  0.0000E+00  0.8660E+03
      3.322  0.0000E+00  0.8660E+03
      3.345  0.0000E+00  0.8660E+03
      3.368  0.0000E+00  0.8660E+03
