       N       E                     dE             d eps       ncg     rms          rms(c)
DAV:   1    -0.281015948277E+03   -0.28102E+03   -0.10279E+05  3464   0.649E+02
DAV:   2    -0.772241243757E+03   -0.49123E+03   -0.44953E+03  4004   0.650E+01
DAV:   3    -0.806731885175E+03   -0.34491E+02   -0.31503E+02  4344   0.136E+01
DAV:   4    -0.807885218297E+03   -0.11533E+01   -0.11379E+01  3920   0.275E+00
DAV:   5    -0.807910749396E+03   -0.25531E-01   -0.25505E-01  4088   0.439E-01    0.669E+00
DAV:   6    -0.806433351017E+03    0.14774E+01   -0.51431E+00  3984   0.347E+00    0.549E+00
DAV:   7    -0.802299612510E+03    0.41337E+01   -0.50263E+00  3992   0.324E+00    0.308E+00
DAV:   8    -0.801383555400E+03    0.91606E+00   -0.25039E+00  3872   0.147E+00    0.158E+00
DAV:   9    -0.801275651773E+03    0.10790E+00   -0.10836E+00  3760   0.864E-01    0.936E-01
DAV:  10    -0.801290260941E+03   -0.14609E-01   -0.19859E-01  4024   0.512E-01    0.740E-01
DAV:  11    -0.801236041959E+03    0.54219E-01   -0.76658E-02  3912   0.357E-01    0.400E-01
DAV:  12    -0.801230657087E+03    0.53849E-02   -0.27243E-02  3712   0.145E-01    0.165E-01
DAV:  13    -0.801230889060E+03   -0.23197E-03   -0.63393E-03  3848   0.828E-02    0.982E-02
DAV:  14    -0.801230337848E+03    0.55121E-03   -0.17623E-03  3832   0.558E-02    0.642E-02
DAV:  15    -0.801229974304E+03    0.36354E-03   -0.53226E-04  3824   0.309E-02    0.343E-02
DAV:  16    -0.801229877245E+03    0.97058E-04   -0.37846E-04  3688   0.168E-02    0.107E-02
DAV:  17    -0.801229882837E+03   -0.55917E-05   -0.55509E-05  4040   0.874E-03
   1 F= -.80122988E+03 E0= -.80118549E+03  d E =-.887797E-01
