Li                                      
           1
    21.052800    0.000000    0.000000
     0.000000   21.052800    0.000000
     0.000000    0.000000   21.052800
   Li
   432
Direct configuration=     1
   0.00368111  0.99515484  0.00383728
   0.92393785  0.07799831  0.09279976
   0.84204766  0.15507293  0.16629968
   0.74747943  0.24138184  0.25306141
   0.67204201  0.33288434  0.32018915
   0.57902432  0.38595223  0.42007185
   0.50578026  0.48233493  0.49037574
   0.43366517  0.57798043  0.59241832
   0.33611582  0.66079767  0.68325456
   0.24747283  0.76561484  0.74344898
   0.16378400  0.83734509  0.82469559
   0.07681339  0.91792314  0.91676574
   0.09340625  0.90407347  0.06933932
   0.02135738  0.99373598  0.15696664
   0.93721155  0.08161088  0.23267713
   0.84313057  0.16372305  0.33882280
   0.74091072  0.23726721  0.39093130
   0.66042727  0.33358465  0.48601764
   0.58273837  0.41000806  0.57148400
   0.49584760  0.48526769  0.68333183
   0.42905348  0.59506535  0.76559859
   0.34039238  0.67744028  0.82432208
   0.25107863  0.75005458  0.90981477
   0.18132287  0.82983814  0.99236764
   0.18108304  0.82957111  0.14829289
   0.08940316  0.92350786  0.25677556
   0.01636773  0.02256852  0.32448648
   0.93440775  0.09352100  0.43787877
   0.83819485  0.16104624  0.48572703
   0.75953577  0.25349623  0.57725937
   0.65254161  0.30829897  0.66552712
   0.57402783  0.38418670  0.75852160
   0.49282335  0.49643480  0.83301086
   0.42098767  0.58727409  0.91220448
   0.33745372  0.67007912  0.99329552
   0.25236781  0.73960853  0.07083615
   0.25794274  0.73773543  0.24406505
   0.16947912  0.83865899  0.34228749
   0.07000803  0.92963231  0.42956069
   0.99307732  0.02386987  0.50768725
   0.91058528  0.09006629  0.57489920
   0.83461665  0.17260128  0.65418015
   0.73797134  0.24359493  0.74535215
   0.66908651  0.31259251  0.83815509
   0.57068572  0.42575088  0.92060621
   0.49414340  0.49681364  0.99379745
   0.40488533  0.58142500  0.07986297
   0.34444728  0.67037662  0.16375909
   0.32806027  0.66783492  0.33983439
   0.24311100  0.73328997  0.41788957
   0.16821280  0.83776671  0.51134425
   0.08019165  0.92024953  0.57436753
   0.99185066  0.00945377  0.67525295
   0.91432886  0.07936558  0.75568391
   0.84349583  0.17423243  0.82327935
   0.75358724  0.25489264  0.92289348
   0.67602609  0.34917264  0.99966056
   0.56964648  0.41657190  0.08834770
   0.48753556  0.50671794  0.16339301
   0.39852832  0.56813295  0.26110425
   0.42369239  0.58896721  0.43450595
   0.33857844  0.67906590  0.51287082
   0.26088371  0.73996893  0.59321304
   0.17582565  0.84640726  0.65723313
   0.08183797  0.90219740  0.75884832
   0.00394366  0.99499483  0.85455007
   0.92405740  0.08066214  0.90992051
   0.84641969  0.17265247  0.00067770
   0.74380736  0.23913926  0.08819441
   0.66336638  0.33718623  0.16447789
   0.57852600  0.42764368  0.25324857
   0.48851192  0.50453768  0.34789578
   0.08377642  0.08459268  0.92143129
   0.99465569  0.17058337  0.01048354
   0.90241761  0.26113358  0.08078593
   0.83124518  0.33273559  0.16928282
   0.75889787  0.41458443  0.24013914
   0.66369038  0.51019772  0.33808044
   0.58850285  0.58785530  0.41417731
   0.49351654  0.67545951  0.50361502
   0.41905451  0.74982915  0.59716783
   0.33135559  0.82923884  0.65721760
   0.25758436  0.91765079  0.75339632
   0.17312795  0.98407876  0.83456469
   0.16880007  0.99012778  0.99912917
   0.07328347  0.08385672  0.07639466
   0.00791135  0.18768311  0.15955853
   0.90824865  0.26305114  0.24624945
   0.84049559  0.33253745  0.33136934
   0.75009037  0.41466083  0.42336518
   0.66267330  0.50023892  0.48391260
   0.57285970  0.55849147  0.57525803
   0.50692861  0.66720573  0.67359777
   0.43020037  0.77774868  0.74689570
   0.33511755  0.83731810  0.83215594
   0.25512079  0.90954083  0.91271482
   0.26961941  0.90756704  0.06977677
   0.15825227  0.98948310  0.15796161
   0.09624061  0.09710196  0.24592857
   0.98308232  0.16223978  0.31944760
   0.92814068  0.24229086  0.41995460
   0.83014222  0.32697423  0.49742600
   0.74767424  0.41390679  0.57074774
   0.65423952  0.49245569  0.65876064
   0.58104315  0.59170649  0.72889514
   0.51784093  0.68156686  0.84393040
   0.41945057  0.75858962  0.90255642
   0.34252708  0.83103297  0.99530585
   0.33680786  0.83209240  0.16953607
   0.25575940  0.92137248  0.24499180
   0.16158688  0.00845456  0.33930050
   0.06607393  0.09146875  0.42116284
   0.01462473  0.16563450  0.53006261
   0.91325730  0.25467327  0.58637608
   0.83318701  0.32959944  0.65165167
   0.74879476  0.39981492  0.74051679
   0.66240561  0.49334679  0.81598350
   0.59515826  0.59094593  0.92193195
   0.49760977  0.66874006  0.99848432
   0.41853684  0.76006951  0.08007634
   0.42119962  0.74759108  0.25731726
   0.31905268  0.82597295  0.33511280
   0.25687024  0.92152827  0.41602256
   0.15545605  0.01068898  0.48418765
   0.08632347  0.08465582  0.59353733
   0.99861066  0.16271202  0.67692215
   0.90093186  0.25897238  0.74966297
   0.83632443  0.33309442  0.82570610
   0.74894280  0.42415581  0.90390935
   0.67041840  0.49265140  0.99048878
   0.57569423  0.57397509  0.07713248
   0.49780614  0.66450750  0.15875644
   0.49189808  0.65586915  0.33366137
   0.40747770  0.75251397  0.40971734
   0.33641917  0.82973279  0.50141294
   0.25745393  0.92959940  0.58966375
   0.17155508  0.99681471  0.66975700
   0.07895908  0.07807795  0.77080667
   0.01358017  0.17521291  0.83515123
   0.92020759  0.26187256  0.92131889
   0.81605105  0.34155793  0.99427444
   0.74722045  0.43127263  0.08736814
   0.66972440  0.49948755  0.16835813
   0.57149031  0.58900071  0.22623070
   0.15100605  0.16523403  0.82919109
   0.06669134  0.27038877  0.91369820
   0.99144289  0.34833165  0.01218472
   0.91541103  0.43424472  0.08753434
   0.84626018  0.50938244  0.15930908
   0.73410740  0.58404763  0.25231902
   0.66055636  0.66526870  0.32757253
   0.57102917  0.74616385  0.40662110
   0.48869543  0.85591396  0.48258887
   0.41103017  0.93083673  0.59588573
   0.34190345  0.01416548  0.68189723
   0.25792556  0.07956892  0.74918057
   0.23774775  0.08575233  0.91716591
   0.15216709  0.18048591  0.00882256
   0.08155741  0.27878779  0.08083788
   0.99350380  0.33213933  0.16977302
   0.90093722  0.43498894  0.25042391
   0.81832536  0.51332622  0.34365770
   0.73376013  0.59881469  0.42940455
   0.65424692  0.67416086  0.52017985
   0.56272757  0.75841869  0.59049141
   0.49561438  0.84343091  0.65630718
   0.41457750  0.90956973  0.76075939
   0.35276443  0.00613166  0.84173618
   0.31277104  0.00511070  0.98609515
   0.23862997  0.08958278  0.08867097
   0.17047700  0.17391761  0.15616298
   0.08343658  0.25231447  0.26099757
   0.00563803  0.32519643  0.33935595
   0.92152133  0.41944358  0.41579910
   0.84040792  0.50264274  0.48931959
   0.73848709  0.57932547  0.58060576
   0.66235680  0.65253597  0.65267752
   0.59714987  0.76312581  0.74247755
   0.50199391  0.84471396  0.84034901
   0.42629948  0.91763231  0.91134792
   0.41482561  0.92408154  0.05986072
   0.33179901  0.00413978  0.16115603
   0.24286037  0.09814640  0.25096772
   0.15417228  0.16182414  0.35263118
   0.07426113  0.24730320  0.41605197
   0.00761981  0.34798627  0.50852395
   0.91970977  0.43013093  0.56595808
   0.82718790  0.50449019  0.66711383
   0.72682331  0.56587733  0.73479691
   0.66863794  0.65097830  0.84157669
   0.59554376  0.75147417  0.91845605
   0.50975847  0.82746491  0.99864887
   0.48554727  0.84303127  0.17035140
   0.39724676  0.91006627  0.26024565
   0.32230874  0.01657706  0.32416539
   0.23886445  0.06783661  0.41561828
   0.15508490  0.15185607  0.49281268
   0.10270070  0.25088793  0.60280960
   0.99037413  0.33095081  0.65836470
   0.91191857  0.41963931  0.73130514
   0.83910656  0.49912165  0.82212088
   0.74606684  0.57665025  0.91359248
   0.65945571  0.65235009  0.00632113
   0.58463049  0.76344909  0.08439265
   0.57475194  0.75317748  0.25852223
   0.49152043  0.84084514  0.32404059
   0.39570925  0.92311538  0.40418690
   0.33100161  0.00411396  0.49466434
   0.24080504  0.07923308  0.59158328
   0.17609111  0.15552435  0.67671386
   0.09183206  0.25778301  0.73607452
   0.99626520  0.32696293  0.82733106
   0.91707355  0.42109070  0.92269833
   0.84138812  0.50715290  0.99630727
   0.72805271  0.58887982  0.08528969
   0.64614949  0.68102535  0.16419463
   0.26056195  0.22319824  0.76014321
   0.15937098  0.32782186  0.83327694
   0.08220329  0.40934880  0.93842877
   0.99535500  0.50013602  0.00130162
   0.91276065  0.58298950  0.07845245
   0.81806706  0.66064245  0.17771067
   0.74390872  0.76342385  0.24719455
   0.65951006  0.84272020  0.34740442
   0.57277713  0.93035178  0.40776052
   0.49236007  0.98686641  0.49469935
   0.40639435  0.07641394  0.57745250
   0.33896555  0.15680701  0.67843199
   0.32845316  0.15788660  0.85249260
   0.25201379  0.24960791  0.92631862
   0.16982801  0.32747361  0.00257613
   0.08532410  0.41443271  0.08225885
   0.00975885  0.51276523  0.16769105
   0.92644624  0.59022985  0.26986356
   0.81874215  0.67844499  0.33337398
   0.74523587  0.75901267  0.43181882
   0.63124815  0.83725741  0.49714428
   0.58531839  0.92794797  0.57846942
   0.49555290  0.00407573  0.65641660
   0.44246889  0.08695895  0.76604564
   0.41406392  0.09312150  0.92772473
   0.32731562  0.16205204  0.00988384
   0.24250173  0.26354291  0.08266869
   0.16226400  0.33694651  0.17818122
   0.07480159  0.40975734  0.24603633
   0.01183161  0.48291699  0.32996066
   0.92837195  0.60965843  0.40637552
   0.82698512  0.65888271  0.50112991
   0.75246295  0.75970656  0.59830673
   0.67426286  0.83654760  0.66421763
   0.58202647  0.92762229  0.75249892
   0.50992593  0.99866331  0.84712762
   0.49077986  0.00791033  0.00427003
   0.41115619  0.08376205  0.07454612
   0.33732275  0.18229293  0.17322619
   0.22033642  0.23710304  0.26675318
   0.17168266  0.34963617  0.33259412
   0.09622300  0.42318889  0.42106024
   0.99832655  0.50882947  0.48968066
   0.92255812  0.58768311  0.58036850
   0.82140036  0.66824863  0.66570741
   0.75032622  0.74416756  0.75080804
   0.67175696  0.83115689  0.83855761
   0.58306196  0.92155880  0.91851677
   0.60178144  0.90237577  0.06746116
   0.50138549  0.99619107  0.15808480
   0.42160106  0.09316724  0.25375941
   0.32766949  0.17979551  0.35113428
   0.24325317  0.24868354  0.41466898
   0.17813453  0.33700601  0.50214032
   0.09462940  0.42605773  0.59199965
   0.00078607  0.48274737  0.65967839
   0.92646549  0.57894813  0.74926844
   0.81654506  0.66066782  0.81736060
   0.74594033  0.74052795  0.90653959
   0.68119288  0.81475278  0.98805839
   0.66154689  0.81056729  0.15523989
   0.58246658  0.90913327  0.22802367
   0.49244994  0.97740549  0.32386442
   0.42950148  0.08196435  0.40643954
   0.33276044  0.16768290  0.48836898
   0.26090069  0.24475605  0.57880026
   0.18137418  0.33753463  0.67838951
   0.09034543  0.39324366  0.74547342
   0.01253138  0.48415627  0.81660935
   0.92260860  0.58395475  0.90309177
   0.83137437  0.65566967  0.99029251
   0.75517836  0.74201243  0.08426194
   0.33668699  0.32494912  0.66612586
   0.28183748  0.40384825  0.75415720
   0.17582636  0.49014216  0.82003644
   0.08863383  0.56050889  0.90239814
   0.00667462  0.64343914  0.99269215
   0.91176919  0.72296001  0.06541964
   0.84214577  0.81600517  0.16058275
   0.75589273  0.90341927  0.24941458
   0.66809252  0.01344431  0.31142219
   0.58897393  0.07041452  0.42594922
   0.49742613  0.14200564  0.50380782
   0.42303403  0.24293580  0.57243639
   0.42576671  0.23342948  0.74644172
   0.34375702  0.31192145  0.85787631
   0.25957315  0.41451022  0.90686161
   0.18658740  0.50363084  0.00227982
   0.09173900  0.57794430  0.07657123
   0.99551378  0.66509815  0.18038247
   0.92779286  0.75560162  0.26214971
   0.84397206  0.83536169  0.34850446
   0.73617429  0.92614770  0.40645545
   0.65943264  0.99234061  0.49618230
   0.57440268  0.07976875  0.58064446
   0.50407879  0.15180833  0.65998876
   0.50381759  0.16435455  0.85835353
   0.41848642  0.23218609  0.92191212
   0.31882325  0.34168345  0.99742759
   0.25331592  0.41874800  0.06503263
   0.17079648  0.49666090  0.17196329
   0.08770449  0.59069472  0.25643079
   0.01787533  0.68944957  0.33923037
   0.92894838  0.74926165  0.42390147
   0.82762976  0.85333119  0.49775033
   0.75217813  0.93895822  0.58257272
   0.67554711  0.99573578  0.66902452
   0.59960131  0.07585055  0.75450190
   0.58438252  0.07592132  0.93322024
   0.49043783  0.17484135  0.99635717
   0.40191104  0.25852408  0.08016762
   0.32456027  0.32579840  0.17358471
   0.24983712  0.41630252  0.25582495
   0.17600929  0.50996713  0.33845925
   0.07435814  0.59922637  0.42140356
   0.01623439  0.66982821  0.51466375
   0.91379654  0.73835745  0.58841783
   0.84478684  0.84392124  0.67065765
   0.74876772  0.91520940  0.74133528
   0.68307871  0.99931763  0.84326628
   0.67624249  0.99183317  0.00152187
   0.58952573  0.08562847  0.06633607
   0.49386472  0.16382031  0.16223113
   0.42787726  0.23988843  0.26055180
   0.32401445  0.32567789  0.32844887
   0.25132104  0.42382155  0.41223301
   0.15966505  0.51337166  0.51415141
   0.08300758  0.59181924  0.60441258
   0.00583552  0.68149519  0.66971924
   0.90029723  0.75768497  0.76578034
   0.81933057  0.83446796  0.83964284
   0.75816131  0.92702158  0.93106517
   0.75168623  0.90897127  0.08126674
   0.66030855  0.98477734  0.16067310
   0.56972783  0.05878242  0.24844700
   0.51079062  0.15465690  0.31812631
   0.43785412  0.23645406  0.39675151
   0.32668823  0.32625794  0.48598337
   0.25941070  0.41848996  0.59306130
   0.17888846  0.50960537  0.67227221
   0.08432757  0.57518085  0.74110727
   0.01214723  0.66569238  0.81804073
   0.90502736  0.72299724  0.90915250
   0.84277456  0.81833721  0.99249150
   0.40472296  0.39169907  0.59315130
   0.34784030  0.50268265  0.67571484
   0.26033361  0.58240329  0.75221550
   0.16540321  0.66701632  0.83022682
   0.09114914  0.75064242  0.91492552
   0.00667757  0.81072442  0.99806155
   0.91793319  0.91136591  0.07631020
   0.83198309  0.00034702  0.16843491
   0.74366187  0.09021636  0.24483225
   0.66606275  0.14774946  0.32210687
   0.58744590  0.23994413  0.41229799
   0.49331778  0.32213348  0.48563417
   0.49028245  0.33066880  0.66650094
   0.43328859  0.40059650  0.75936165
   0.34613535  0.50815957  0.83201218
   0.25782968  0.58884389  0.87822022
   0.16891836  0.65766474  0.99489947
   0.09213455  0.74174468  0.07095866
   0.01018174  0.82545517  0.14092469
   0.92778995  0.91544655  0.22831674
   0.83867411  0.00830744  0.32615675
   0.75374318  0.07819783  0.41145429
   0.66159640  0.15272685  0.49918769
   0.56252339  0.24855217  0.57114431
   0.56515168  0.22943983  0.75912846
   0.48856320  0.31310474  0.84148251
   0.42601036  0.42702766  0.92819370
   0.32755333  0.51012794  0.98878321
   0.24355844  0.58916743  0.08196751
   0.14680860  0.65386111  0.17099202
   0.10322640  0.75259197  0.25180817
   0.00831456  0.83550100  0.32894357
   0.92378381  0.93461543  0.41728846
   0.82759289  0.00248912  0.49031000
   0.75285692  0.07480460  0.57392957
   0.66842189  0.17278311  0.64992157
   0.67040918  0.17520950  0.84667389
   0.59549939  0.27116689  0.93086924
   0.48739356  0.32441104  0.01378891
   0.41162040  0.41626619  0.09071551
   0.33540589  0.48999503  0.15454377
   0.24863619  0.58450560  0.23504341
   0.16234977  0.67200864  0.35293499
   0.07906877  0.76778446  0.43549105
   0.98137808  0.84366613  0.50774898
   0.92050342  0.93683979  0.59493096
   0.83468927  0.01242815  0.66177734
   0.74822482  0.10398514  0.74155173
   0.75737446  0.08218272  0.91507112
   0.65965007  0.17299639  0.99752869
   0.58900999  0.26907766  0.08546271
   0.49505320  0.32669470  0.18151804
   0.40546148  0.40593609  0.27077820
   0.33122623  0.50364074  0.35253795
   0.25548505  0.60247078  0.45457771
   0.15001288  0.68244446  0.52073183
   0.08209376  0.76615581  0.59714583
   0.98570522  0.85543250  0.68991035
   0.89166329  0.92805851  0.77165498
   0.82596636  0.00011864  0.84626827
   0.84862844  0.98761325  0.01754185
   0.74852929  0.07887809  0.07342527
   0.64947953  0.15148782  0.15222105
   0.59078773  0.24551395  0.25254116
   0.52511401  0.32450327  0.33494639
   0.42281268  0.39593770  0.41435584
   0.34342433  0.49002223  0.50971534
   0.26963974  0.58412980  0.59660455
   0.16642637  0.66771989  0.66352520
   0.08662868  0.76297143  0.74711017
   0.98920571  0.83256801  0.83863947
   0.92928630  0.91382154  0.93603279
