 432 432   0   0
  0.2035379E+02  0.2064000E-08  0.2064000E-08  0.2064000E-08  0.5000000E-15
  1.000000000000000E-004
  CAR 
 Li                                      
      3.55649342     -3.44289660  301      0.38869345      1.00000000
     -3.443  0.0000E+00  0.0000E+00
     -3.420  0.0000E+00  0.0000E+00
     -3.396  0.0000E+00  0.0000E+00
     -3.373  0.0000E+00  0.0000E+00
     -3.350  0.0000E+00  0.0000E+00
     -3.326  0.0000E+00  0.0000E+00
     -3.303  0.0000E+00  0.0000E+00
     -3.280  0.1205E-10  0.2811E-12
     -3.256  0.2368E-07  0.5529E-09
     -3.233  0.1427E-04  0.3335E-06
     -3.210  0.2659E-02  0.6238E-04
     -3.186  0.1553E+00  0.3687E-02
     -3.163  0.2895E+01  0.7124E-01
     -3.140  0.1758E+02  0.4814E+00
     -3.116  0.3542E+02  0.1308E+01
     -3.093  0.2390E+02  0.1865E+01
     -3.070  0.5482E+01  0.1993E+01
     -3.046  0.3070E+01  0.2065E+01
     -3.023  0.2322E+02  0.2607E+01
     -3.000  0.7615E+02  0.4383E+01
     -2.976  0.9720E+02  0.6651E+01
     -2.953  0.4820E+02  0.7776E+01
     -2.930  0.9530E+01  0.7998E+01
     -2.906  0.8456E+01  0.8195E+01
     -2.883  0.4373E+02  0.9215E+01
     -2.860  0.9434E+02  0.1142E+02
     -2.836  0.8050E+02  0.1329E+02
     -2.813  0.2690E+02  0.1392E+02
     -2.790  0.6457E+01  0.1407E+02
     -2.766  0.2587E+02  0.1468E+02
     -2.743  0.8338E+02  0.1662E+02
     -2.720  0.1201E+03  0.1943E+02
     -2.696  0.8203E+02  0.2134E+02
     -2.673  0.2647E+02  0.2196E+02
     -2.650  0.1775E+02  0.2237E+02
     -2.626  0.6667E+02  0.2393E+02
     -2.603  0.1405E+03  0.2721E+02
     -2.580  0.1580E+03  0.3089E+02
     -2.556  0.9836E+02  0.3319E+02
     -2.533  0.3114E+02  0.3391E+02
     -2.510  0.1231E+02  0.3420E+02
     -2.486  0.4336E+02  0.3521E+02
     -2.463  0.9185E+02  0.3735E+02
     -2.440  0.8082E+02  0.3924E+02
     -2.416  0.2931E+02  0.3992E+02
     -2.393  0.1337E+02  0.4024E+02
     -2.370  0.5066E+02  0.4142E+02
     -2.346  0.1246E+03  0.4433E+02
     -2.323  0.1628E+03  0.4812E+02
     -2.300  0.1173E+03  0.5086E+02
     -2.276  0.4672E+02  0.5195E+02
     -2.253  0.3996E+02  0.5288E+02
     -2.230  0.1107E+03  0.5547E+02
     -2.206  0.1920E+03  0.5994E+02
     -2.183  0.2034E+03  0.6469E+02
     -2.160  0.1466E+03  0.6811E+02
     -2.136  0.6632E+02  0.6966E+02
     -2.113  0.2530E+02  0.7025E+02
     -2.090  0.4603E+02  0.7132E+02
     -2.066  0.8654E+02  0.7334E+02
     -2.043  0.7906E+02  0.7518E+02
     -2.020  0.3110E+02  0.7591E+02
     -1.996  0.1629E+02  0.7629E+02
     -1.973  0.6879E+02  0.7790E+02
     -1.950  0.1627E+03  0.8169E+02
     -1.926  0.1853E+03  0.8601E+02
     -1.903  0.1194E+03  0.8880E+02
     -1.880  0.4819E+02  0.8992E+02
     -1.856  0.4161E+02  0.9089E+02
     -1.833  0.1131E+03  0.9353E+02
     -1.810  0.1947E+03  0.9807E+02
     -1.786  0.2052E+03  0.1029E+03
     -1.763  0.1448E+03  0.1062E+03
     -1.740  0.6406E+02  0.1077E+03
     -1.716  0.3569E+02  0.1086E+03
     -1.693  0.8893E+02  0.1106E+03
     -1.670  0.1535E+03  0.1142E+03
     -1.646  0.1453E+03  0.1176E+03
     -1.623  0.8415E+02  0.1196E+03
     -1.600  0.5786E+02  0.1209E+03
     -1.576  0.1142E+03  0.1236E+03
     -1.553  0.1855E+03  0.1279E+03
     -1.530  0.2017E+03  0.1326E+03
     -1.506  0.1503E+03  0.1361E+03
     -1.483  0.7075E+02  0.1378E+03
     -1.460  0.5024E+02  0.1390E+03
     -1.436  0.1247E+03  0.1419E+03
     -1.413  0.2123E+03  0.1468E+03
     -1.390  0.2125E+03  0.1518E+03
     -1.366  0.1287E+03  0.1548E+03
     -1.343  0.4972E+02  0.1559E+03
     -1.320  0.4457E+02  0.1570E+03
     -1.296  0.1091E+03  0.1595E+03
     -1.273  0.1594E+03  0.1632E+03
     -1.250  0.1328E+03  0.1663E+03
     -1.226  0.6065E+02  0.1678E+03
     -1.203  0.2950E+02  0.1684E+03
     -1.180  0.6974E+02  0.1701E+03
     -1.156  0.1273E+03  0.1730E+03
     -1.133  0.1442E+03  0.1764E+03
     -1.110  0.1143E+03  0.1791E+03
     -1.086  0.8946E+02  0.1812E+03
     -1.063  0.1487E+03  0.1846E+03
     -1.040  0.2436E+03  0.1903E+03
     -1.016  0.2886E+03  0.1970E+03
     -0.993  0.2667E+03  0.2033E+03
     -0.970  0.1909E+03  0.2077E+03
     -0.946  0.1048E+03  0.2102E+03
     -0.923  0.1123E+03  0.2128E+03
     -0.900  0.1854E+03  0.2171E+03
     -0.876  0.2036E+03  0.2219E+03
     -0.853  0.1562E+03  0.2255E+03
     -0.830  0.8667E+02  0.2275E+03
     -0.806  0.5268E+02  0.2288E+03
     -0.783  0.9910E+02  0.2311E+03
     -0.760  0.1705E+03  0.2350E+03
     -0.736  0.1743E+03  0.2391E+03
     -0.713  0.1042E+03  0.2415E+03
     -0.690  0.7268E+02  0.2432E+03
     -0.666  0.1351E+03  0.2464E+03
     -0.643  0.2186E+03  0.2515E+03
     -0.620  0.2478E+03  0.2573E+03
     -0.596  0.2187E+03  0.2624E+03
     -0.573  0.1496E+03  0.2659E+03
     -0.550  0.1084E+03  0.2684E+03
     -0.526  0.8964E+02  0.2705E+03
     -0.503  0.5091E+02  0.2717E+03
     -0.480  0.2862E+02  0.2723E+03
     -0.456  0.7541E+02  0.2741E+03
     -0.433  0.1706E+03  0.2781E+03
     -0.410  0.2329E+03  0.2835E+03
     -0.386  0.2380E+03  0.2891E+03
     -0.363  0.1992E+03  0.2937E+03
     -0.340  0.1594E+03  0.2974E+03
     -0.317  0.1649E+03  0.3013E+03
     -0.293  0.1837E+03  0.3056E+03
     -0.270  0.2049E+03  0.3103E+03
     -0.247  0.2263E+03  0.3156E+03
     -0.223  0.2400E+03  0.3212E+03
     -0.200  0.2309E+03  0.3266E+03
     -0.177  0.1715E+03  0.3306E+03
     -0.153  0.1162E+03  0.3333E+03
     -0.130  0.1199E+03  0.3361E+03
     -0.107  0.1397E+03  0.3394E+03
     -0.083  0.1391E+03  0.3426E+03
     -0.060  0.1375E+03  0.3458E+03
     -0.037  0.1811E+03  0.3501E+03
     -0.013  0.2407E+03  0.3557E+03
      0.010  0.2716E+03  0.3620E+03
      0.033  0.2622E+03  0.3681E+03
      0.057  0.2355E+03  0.3736E+03
      0.080  0.1852E+03  0.3779E+03
      0.103  0.1385E+03  0.3812E+03
      0.127  0.1606E+03  0.3849E+03
      0.150  0.2056E+03  0.3897E+03
      0.173  0.2167E+03  0.3948E+03
      0.197  0.1969E+03  0.3994E+03
      0.220  0.1509E+03  0.4029E+03
      0.243  0.1200E+03  0.4057E+03
      0.267  0.1313E+03  0.4087E+03
      0.290  0.1590E+03  0.4125E+03
      0.313  0.1892E+03  0.4169E+03
      0.337  0.2076E+03  0.4217E+03
      0.360  0.2072E+03  0.4265E+03
      0.383  0.1915E+03  0.4310E+03
      0.407  0.1900E+03  0.4354E+03
      0.430  0.1953E+03  0.4400E+03
      0.453  0.1968E+03  0.4446E+03
      0.477  0.2074E+03  0.4494E+03
      0.500  0.2096E+03  0.4543E+03
      0.523  0.1971E+03  0.4589E+03
      0.547  0.1773E+03  0.4631E+03
      0.570  0.1649E+03  0.4669E+03
      0.593  0.1647E+03  0.4708E+03
      0.617  0.1891E+03  0.4752E+03
      0.640  0.2075E+03  0.4800E+03
      0.663  0.2128E+03  0.4850E+03
      0.687  0.2321E+03  0.4904E+03
      0.710  0.2554E+03  0.4963E+03
      0.733  0.2626E+03  0.5025E+03
      0.757  0.2571E+03  0.5085E+03
      0.780  0.2451E+03  0.5142E+03
      0.803  0.2433E+03  0.5199E+03
      0.827  0.2493E+03  0.5257E+03
      0.850  0.2442E+03  0.5314E+03
      0.873  0.2364E+03  0.5369E+03
      0.897  0.2347E+03  0.5424E+03
      0.920  0.2407E+03  0.5480E+03
      0.943  0.2340E+03  0.5535E+03
      0.967  0.2233E+03  0.5587E+03
      0.990  0.2220E+03  0.5638E+03
      1.013  0.2255E+03  0.5691E+03
      1.037  0.2266E+03  0.5744E+03
      1.060  0.2331E+03  0.5798E+03
      1.083  0.2344E+03  0.5853E+03
      1.107  0.2201E+03  0.5904E+03
      1.130  0.2140E+03  0.5954E+03
      1.153  0.2072E+03  0.6003E+03
      1.177  0.2051E+03  0.6050E+03
      1.200  0.2119E+03  0.6100E+03
      1.223  0.2054E+03  0.6148E+03
      1.247  0.1830E+03  0.6190E+03
      1.270  0.1737E+03  0.6231E+03
      1.293  0.1867E+03  0.6275E+03
      1.317  0.1968E+03  0.6321E+03
      1.340  0.1873E+03  0.6364E+03
      1.363  0.1781E+03  0.6406E+03
      1.387  0.1795E+03  0.6448E+03
      1.410  0.1645E+03  0.6486E+03
      1.433  0.1302E+03  0.6516E+03
      1.457  0.1125E+03  0.6543E+03
      1.480  0.1288E+03  0.6573E+03
      1.503  0.1419E+03  0.6606E+03
      1.527  0.1463E+03  0.6640E+03
      1.550  0.1456E+03  0.6674E+03
      1.573  0.1463E+03  0.6708E+03
      1.597  0.1627E+03  0.6746E+03
      1.620  0.1761E+03  0.6787E+03
      1.643  0.1784E+03  0.6829E+03
      1.667  0.1797E+03  0.6871E+03
      1.690  0.1710E+03  0.6911E+03
      1.713  0.1577E+03  0.6947E+03
      1.737  0.1582E+03  0.6984E+03
      1.760  0.1682E+03  0.7023E+03
      1.783  0.1778E+03  0.7065E+03
      1.807  0.1841E+03  0.7108E+03
      1.830  0.1914E+03  0.7153E+03
      1.853  0.1944E+03  0.7198E+03
      1.877  0.1826E+03  0.7241E+03
      1.900  0.1733E+03  0.7281E+03
      1.923  0.1692E+03  0.7320E+03
      1.947  0.1754E+03  0.7361E+03
      1.970  0.1907E+03  0.7406E+03
      1.993  0.1837E+03  0.7449E+03
      2.017  0.1634E+03  0.7487E+03
      2.040  0.1562E+03  0.7523E+03
      2.063  0.1601E+03  0.7561E+03
      2.087  0.1571E+03  0.7597E+03
      2.110  0.1391E+03  0.7630E+03
      2.133  0.1322E+03  0.7661E+03
      2.157  0.1386E+03  0.7693E+03
      2.180  0.1390E+03  0.7725E+03
      2.203  0.1405E+03  0.7758E+03
      2.227  0.1267E+03  0.7788E+03
      2.250  0.1019E+03  0.7811E+03
      2.273  0.8961E+02  0.7832E+03
      2.297  0.9983E+02  0.7856E+03
      2.320  0.1126E+03  0.7882E+03
      2.343  0.1108E+03  0.7908E+03
      2.367  0.1050E+03  0.7932E+03
      2.390  0.7927E+02  0.7951E+03
      2.413  0.3323E+02  0.7959E+03
      2.437  0.7138E+01  0.7960E+03
      2.460  0.1043E+02  0.7963E+03
      2.483  0.3675E+02  0.7971E+03
      2.507  0.6822E+02  0.7987E+03
      2.530  0.7626E+02  0.8005E+03
      2.553  0.4908E+02  0.8016E+03
      2.577  0.1949E+02  0.8021E+03
      2.600  0.2287E+02  0.8026E+03
      2.623  0.4071E+02  0.8036E+03
      2.647  0.5396E+02  0.8048E+03
      2.670  0.6813E+02  0.8064E+03
      2.693  0.8683E+02  0.8084E+03
      2.717  0.1052E+03  0.8109E+03
      2.740  0.1141E+03  0.8136E+03
      2.763  0.1134E+03  0.8162E+03
      2.787  0.1184E+03  0.8190E+03
      2.810  0.1304E+03  0.8220E+03
      2.833  0.1368E+03  0.8252E+03
      2.857  0.1452E+03  0.8286E+03
      2.880  0.1404E+03  0.8319E+03
      2.903  0.1315E+03  0.8349E+03
      2.927  0.1255E+03  0.8379E+03
      2.950  0.1137E+03  0.8405E+03
      2.973  0.9505E+02  0.8427E+03
      2.997  0.8578E+02  0.8447E+03
      3.020  0.8120E+02  0.8466E+03
      3.043  0.7227E+02  0.8483E+03
      3.067  0.6285E+02  0.8498E+03
      3.090  0.5161E+02  0.8510E+03
      3.113  0.5475E+02  0.8523E+03
      3.137  0.7705E+02  0.8541E+03
      3.160  0.1041E+03  0.8565E+03
      3.183  0.1139E+03  0.8591E+03
      3.207  0.1127E+03  0.8618E+03
      3.230  0.1021E+03  0.8642E+03
      3.253  0.5971E+02  0.8655E+03
      3.277  0.1723E+02  0.8659E+03
      3.300  0.2068E+01  0.8660E+03
      3.323  0.9139E-01  0.8660E+03
      3.347  0.1377E-02  0.8660E+03
      3.370  0.6752E-05  0.8660E+03
      3.393  0.1049E-07  0.8660E+03
      3.417  0.5068E-11  0.8660E+03
      3.440  0.0000E+00  0.8660E+03
      3.463  0.0000E+00  0.8660E+03
      3.486  0.0000E+00  0.8660E+03
      3.510  0.0000E+00  0.8660E+03
      3.533  0.0000E+00  0.8660E+03
      3.556  0.0000E+00  0.8660E+03
