 running on   64 total cores
 distrk:  each k-point on   32 cores,    2 groups
 distr:  one band on   32 cores,    1 groups
 vasp.6.2.1 16May21 (build Nov 23 2021 15:40:41) complex                        
  
 POSCAR found type information on POSCAR Li
 POSCAR found :  1 types and     432 ions
 scaLAPACK will be used
 -----------------------------------------------------------------------------
|                                                                             |
|           W    W    AA    RRRRR   N    N  II  N    N   GGGG   !!!           |
|           W    W   A  A   R    R  NN   N  II  NN   N  G    G  !!!           |
|           W    W  A    A  R    R  N N  N  II  N N  N  G       !!!           |
|           W WW W  AAAAAA  RRRRR   N  N N  II  N  N N  G  GGG   !            |
|           WW  WW  A    A  R   R   N   NN  II  N   NN  G    G                |
|           W    W  A    A  R    R  N    N  II  N    N   GGGG   !!!           |
|                                                                             |
|     For optimal performance we recommend to set                             |
|       NCORE = 2 up to number-of-cores-per-socket                            |
|     NCORE specifies how many cores store one orbital (NPAR=cpu/NCORE).      |
|     This setting can greatly improve the performance of VASP for DFT.       |
|     The default, NCORE=1 might be grossly inefficient on modern             |
|     multi-core architectures or massively parallel machines. Do your        |
|     own testing! More info at https://www.vasp.at/wiki/index.php/NCORE      |
|     Unfortunately you need to use the default for GW and RPA                |
|     calculations (for HF NCORE is supported but not extensively tested      |
|     yet).                                                                   |
|                                                                             |
 -----------------------------------------------------------------------------

 -----------------------------------------------------------------------------
|                                                                             |
|               ----> ADVICE to this user running VASP <----                  |
|                                                                             |
|     You have a (more or less) 'large supercell' and for larger cells it     |
|     might be more efficient to use real-space projection operators.         |
|     Therefore, try LREAL= Auto in the INCAR file.                           |
|     Mind: If you want to do very accurate calculations, keep the            |
|     reciprocal projection scheme (i.e. LREAL=.FALSE.).                      |
|                                                                             |
 -----------------------------------------------------------------------------

 LDA part: xc-table for Pade appr. of Perdew
 POSCAR found type information on POSCAR Li
 POSCAR found :  1 types and     432 ions
 POSCAR, INCAR and KPOINTS ok, starting setup
 FFT: planning ...
 WAVECAR not read
 entering main loop
       N       E                     dE             d eps       ncg     rms          rms(c)
DAV:   1    -0.243553994736E+03   -0.24355E+03   -0.10480E+05  3464   0.655E+02
DAV:   2    -0.761937779086E+03   -0.51838E+03   -0.47331E+03  3996   0.672E+01
DAV:   3    -0.799031178133E+03   -0.37093E+02   -0.33879E+02  4408   0.143E+01
DAV:   4    -0.800272454535E+03   -0.12413E+01   -0.12245E+01  3984   0.286E+00
DAV:   5    -0.800300680134E+03   -0.28226E-01   -0.28190E-01  4120   0.459E-01    0.904E+00
DAV:   6    -0.793279795052E+03    0.70209E+01   -0.10859E+01  3976   0.434E+00    0.605E+00
DAV:   7    -0.790358581305E+03    0.29212E+01   -0.82888E+00  4048   0.411E+00    0.434E+00
DAV:   8    -0.787988329828E+03    0.23703E+01   -0.40698E+00  3952   0.233E+00    0.213E+00
DAV:   9    -0.787696356988E+03    0.29197E+00   -0.20905E+00  3768   0.119E+00    0.113E+00
DAV:  10    -0.787725796104E+03   -0.29439E-01   -0.41169E-01  4040   0.661E-01    0.866E-01
DAV:  11    -0.787652532383E+03    0.73264E-01   -0.15200E-01  3960   0.456E-01    0.475E-01
DAV:  12    -0.787646084518E+03    0.64479E-02   -0.36158E-02  3800   0.181E-01    0.221E-01
DAV:  13    -0.787645311595E+03    0.77292E-03   -0.11499E-02  4000   0.130E-01    0.152E-01
DAV:  14    -0.787643443661E+03    0.18679E-02   -0.36594E-03  3944   0.794E-02    0.835E-02
DAV:  15    -0.787643032265E+03    0.41140E-03   -0.13195E-03  3848   0.386E-02    0.371E-02
DAV:  16    -0.787643048721E+03   -0.16456E-04   -0.39876E-04  3968   0.232E-02    0.275E-02
DAV:  17    -0.787642958547E+03    0.90174E-04   -0.17987E-04  3912   0.161E-02    0.133E-02
DAV:  18    -0.787642940442E+03    0.18105E-04   -0.51914E-05  3704   0.666E-03    0.551E-03
DAV:  19    -0.787642936321E+03    0.41206E-05   -0.90361E-06  1960   0.325E-03
   1 F= -.78764294E+03 E0= -.78760074E+03  d E =-.843918E-01
