Li                                      
           1
    20.640000    0.000000    0.000000
     0.000000   20.640000    0.000000
     0.000000    0.000000   20.640000
   Li
   432
Direct configuration=     1
   0.99576265  0.00857511  0.00780631
   0.91023799  0.07857621  0.07286795
   0.83444687  0.15430104  0.17305688
   0.73919682  0.25060819  0.24261280
   0.65615730  0.36164647  0.32480269
   0.57115710  0.44102075  0.41537512
   0.50495268  0.52685698  0.51094079
   0.42929682  0.60341079  0.57374480
   0.34260396  0.68100482  0.67835974
   0.25286650  0.76867117  0.75535452
   0.16766600  0.81150219  0.82870881
   0.09248536  0.92863240  0.89460714
   0.09132519  0.93057853  0.09133178
   0.01399707  0.02205114  0.17024099
   0.93347419  0.06020480  0.26499778
   0.81981838  0.14817757  0.31903548
   0.74580985  0.24934169  0.39742688
   0.67156603  0.32663403  0.49561864
   0.59918497  0.40701122  0.58626890
   0.51319391  0.49691859  0.66065273
   0.43025248  0.56953312  0.73966421
   0.33717764  0.65712283  0.84183794
   0.25506479  0.74540695  0.92321133
   0.18047812  0.85828054  0.98376376
   0.19616639  0.85080799  0.15992333
   0.11477932  0.92384060  0.24594880
   0.03309413  0.00268403  0.33919381
   0.92472976  0.06730776  0.40117699
   0.81906555  0.15052051  0.48062721
   0.75107964  0.23343567  0.57868298
   0.67198259  0.33285758  0.66506075
   0.59220746  0.41881790  0.74238011
   0.49730594  0.50905655  0.85465207
   0.40075810  0.58938626  0.92406451
   0.32206195  0.67964668  0.00147346
   0.26231031  0.75534662  0.08104838
   0.24930747  0.75549525  0.23342508
   0.18874032  0.83035445  0.35504245
   0.10854214  0.91162772  0.42166983
   0.01607143  0.99183245  0.48541955
   0.94684810  0.09713515  0.56713050
   0.83606035  0.15498602  0.66860818
   0.74032642  0.26121978  0.73017969
   0.67027769  0.32154968  0.81486215
   0.59876512  0.44469318  0.92444453
   0.51998884  0.49578908  0.01362118
   0.40825821  0.57161755  0.08248919
   0.32226318  0.67218869  0.15569389
   0.32623805  0.65730166  0.31354786
   0.25101645  0.74742592  0.43865042
   0.15543770  0.82479733  0.48571616
   0.09301572  0.91072757  0.58008295
   0.99287613  0.99079135  0.65817003
   0.90857420  0.08717494  0.75541590
   0.83452702  0.15904050  0.82224394
   0.73962843  0.25995424  0.91839680
   0.66062928  0.32888309  0.03348391
   0.59391836  0.44008824  0.11014041
   0.49063269  0.50177033  0.17741332
   0.40084794  0.56751518  0.23850756
   0.40464435  0.58690736  0.43654645
   0.31698803  0.66858881  0.50244760
   0.24827755  0.75869927  0.59537236
   0.15258435  0.83128372  0.68336382
   0.06253272  0.91940537  0.76478801
   0.99006817  0.00076899  0.85279084
   0.92022320  0.09805870  0.91584085
   0.81819698  0.17014117  0.99876172
   0.74488392  0.24195042  0.07388460
   0.65411212  0.32111202  0.16090882
   0.56380215  0.42810907  0.24539392
   0.48370939  0.52339559  0.33935643
   0.06484972  0.09658471  0.89961346
   0.99196440  0.17406389  0.99511015
   0.90207495  0.26332946  0.08165332
   0.84319446  0.32433821  0.16436164
   0.74316113  0.41658659  0.22786007
   0.66965456  0.52734932  0.31989341
   0.58065458  0.60551459  0.40940956
   0.48517642  0.69576233  0.48384541
   0.40552583  0.76177132  0.57535935
   0.32326116  0.83853121  0.65361294
   0.26310050  0.90960162  0.75742851
   0.15998558  0.01423710  0.80397815
   0.13943221  0.02482888  0.99523806
   0.08170428  0.11832383  0.11985634
   0.97389839  0.18238842  0.17100126
   0.90049534  0.25579028  0.26480327
   0.81341154  0.35656401  0.32746458
   0.72817607  0.44280473  0.42733727
   0.65225169  0.53437079  0.51807930
   0.55567559  0.62313678  0.59012796
   0.49186689  0.68342723  0.66928291
   0.40038292  0.75672624  0.74246114
   0.32648283  0.82613367  0.84028014
   0.23441606  0.94086913  0.90178351
   0.24797669  0.93994983  0.10028272
   0.17354969  0.01599777  0.15905313
   0.10079872  0.08815320  0.23229498
   0.99722455  0.14770115  0.31755729
   0.91777424  0.23885355  0.41071961
   0.83245889  0.31842246  0.49072253
   0.72704774  0.42120331  0.58314532
   0.66366912  0.51928712  0.63554990
   0.57325657  0.58586757  0.77304767
   0.49491664  0.68858404  0.84436281
   0.40932183  0.74422213  0.94134701
   0.30901543  0.85515307  0.99720290
   0.32636569  0.84793025  0.16419091
   0.25559825  0.93318929  0.26768721
   0.18786690  0.01285197  0.35190340
   0.08113963  0.09765457  0.42384762
   0.99365337  0.17157953  0.48556923
   0.91735492  0.24357852  0.56086886
   0.82540372  0.34884048  0.65514710
   0.72932851  0.44227250  0.75086864
   0.67616663  0.51149697  0.84144973
   0.56979073  0.60962436  0.93027709
   0.48787366  0.66966268  0.01372491
   0.40925415  0.76040339  0.06662816
   0.39263896  0.77260305  0.22761869
   0.34331164  0.81724396  0.34211221
   0.25880587  0.92212777  0.41025466
   0.16209580  0.01427324  0.50769819
   0.07486878  0.09134470  0.58077781
   0.99388234  0.16154139  0.66699390
   0.90245504  0.25322982  0.73657637
   0.83437879  0.32947326  0.82267241
   0.73235251  0.40275721  0.93064497
   0.68393384  0.53350482  0.01823573
   0.59913353  0.59589409  0.06905858
   0.47696484  0.67605937  0.16181847
   0.45603086  0.66397973  0.32917697
   0.38778798  0.75124073  0.41843328
   0.32385445  0.84492672  0.50671017
   0.24019219  0.91365076  0.58609492
   0.14962474  0.99438221  0.67563437
   0.05375450  0.10127393  0.74018895
   0.96892214  0.18182554  0.81940254
   0.89082728  0.24752233  0.92302668
   0.83860753  0.34196489  0.00355066
   0.76717271  0.43385183  0.08336730
   0.67834753  0.52379784  0.16537303
   0.56770045  0.59545228  0.24358798
   0.16536670  0.16159323  0.80876528
   0.07400611  0.23298173  0.92206369
   0.99159188  0.31384416  0.00314586
   0.92955483  0.40314211  0.05811879
   0.86133390  0.51274680  0.15106707
   0.79067747  0.58934618  0.26070074
   0.68787767  0.66041328  0.32508509
   0.60124060  0.73909680  0.39712839
   0.50184198  0.82833556  0.47391277
   0.42147218  0.91145861  0.57759231
   0.33753007  0.99881816  0.65755122
   0.26922795  0.10529987  0.72072328
   0.25360876  0.07820366  0.90097399
   0.15176959  0.15952298  0.99922477
   0.10006882  0.23914252  0.09471011
   0.00707989  0.33949636  0.17371595
   0.92612603  0.43655879  0.23322904
   0.83117150  0.47813192  0.32541232
   0.75084326  0.59192388  0.43332321
   0.65187083  0.65427401  0.49495800
   0.57403660  0.74701643  0.58896592
   0.48209548  0.83680297  0.67416506
   0.40517166  0.93281926  0.75687114
   0.34837310  0.01835360  0.82505597
   0.32849771  0.99596398  0.99542436
   0.25316166  0.09291671  0.07598494
   0.17243145  0.14763566  0.16885020
   0.08421657  0.25375127  0.24526232
   0.99400668  0.32705085  0.32282337
   0.90797937  0.42187966  0.42144901
   0.82777261  0.50926138  0.49356511
   0.75912731  0.60866756  0.57575919
   0.68226297  0.66352965  0.65929317
   0.56464366  0.76459777  0.74731842
   0.47295480  0.82691115  0.83565809
   0.41112985  0.92821500  0.92356540
   0.37715985  0.91640490  0.08552112
   0.31953687  0.99709969  0.17691485
   0.24827691  0.09493552  0.24752623
   0.17010558  0.17017835  0.33862084
   0.05513719  0.25367940  0.39275082
   0.98765285  0.33263875  0.47559182
   0.91958592  0.40469676  0.57298422
   0.83252685  0.48979052  0.66564353
   0.75160518  0.58599996  0.75625115
   0.66853078  0.65516459  0.84669069
   0.58791136  0.74290400  0.91631896
   0.49840752  0.83961720  0.00067569
   0.50852826  0.82858596  0.14978469
   0.41982428  0.93820132  0.26499720
   0.33917614  0.01938469  0.34704561
   0.24277345  0.08545817  0.44210428
   0.16943422  0.18371593  0.49221619
   0.06537212  0.23601012  0.56487429
   0.97990570  0.31810952  0.66885572
   0.91544015  0.40863479  0.76023589
   0.82912799  0.49045137  0.83854502
   0.75060920  0.57953471  0.93453803
   0.69405209  0.67861616  0.01149363
   0.58089338  0.73613821  0.08862775
   0.57408215  0.73788549  0.25385860
   0.48425316  0.80351542  0.32966262
   0.41080458  0.90853171  0.41061932
   0.33330883  0.00190881  0.50919812
   0.23857717  0.08970339  0.56563361
   0.17429049  0.17065425  0.64424123
   0.06199374  0.24178584  0.74642664
   0.97026079  0.31869475  0.83996335
   0.92650297  0.40904667  0.90979543
   0.83658249  0.51331655  0.98527185
   0.77006639  0.60158826  0.09744314
   0.67865989  0.65721255  0.16322779
   0.27150582  0.27118039  0.74284743
   0.16760320  0.32710773  0.81543074
   0.09055523  0.39023813  0.91441882
   0.01093538  0.49338831  0.99248970
   0.93428966  0.60420506  0.07374758
   0.85590377  0.66501450  0.17116108
   0.75139380  0.77256755  0.24744159
   0.66771946  0.83866431  0.33056526
   0.58026798  0.92046756  0.39816143
   0.49566932  0.98530135  0.51836187
   0.42090144  0.07520583  0.58338422
   0.34560123  0.17905407  0.63861985
   0.35168770  0.16836761  0.81860517
   0.24632393  0.23251707  0.91512861
   0.17802976  0.30525900  0.97820703
   0.09732276  0.40080849  0.07786888
   0.02124561  0.51405893  0.15964440
   0.96135519  0.57541733  0.25518976
   0.85521739  0.66112302  0.34223017
   0.74171996  0.72395804  0.42578830
   0.67760653  0.81957976  0.47987409
   0.58918970  0.88003627  0.58505679
   0.48432394  0.98733535  0.67527306
   0.43001836  0.09207137  0.74587107
   0.42747672  0.08626638  0.89122262
   0.33839882  0.14794720  0.97699053
   0.27543138  0.23493875  0.06092153
   0.18784184  0.30547071  0.17306033
   0.10369152  0.41857682  0.23935508
   0.99953732  0.46733081  0.32262200
   0.91661324  0.58039862  0.40017073
   0.83699330  0.65678655  0.51573834
   0.73063172  0.73040385  0.57314117
   0.68825126  0.82001904  0.68804567
   0.56466182  0.90619338  0.74293067
   0.51179586  0.99281830  0.83016477
   0.47750284  0.99736595  0.01126655
   0.40709164  0.06365642  0.09812039
   0.34076290  0.16517333  0.17970565
   0.26553610  0.24635522  0.24642558
   0.17703109  0.32926067  0.33363127
   0.08213259  0.40847098  0.41546896
   0.99481593  0.50704427  0.48602918
   0.90189274  0.57415944  0.57841214
   0.81188302  0.66722577  0.67416155
   0.75024760  0.74997781  0.76235567
   0.67440991  0.82968583  0.84210207
   0.57117530  0.89561982  0.90997405
   0.57459414  0.90439316  0.06828067
   0.49990605  0.99852388  0.16886855
   0.42806271  0.09525966  0.23588480
   0.34516727  0.16141465  0.34166993
   0.23289669  0.26258147  0.41738073
   0.15887645  0.30997701  0.49652502
   0.06480574  0.41020589  0.57768515
   0.98443788  0.48921072  0.65409646
   0.91180045  0.57976362  0.73520894
   0.84944289  0.66601407  0.82084355
   0.78183904  0.74315536  0.90879993
   0.67316852  0.82073826  0.00413010
   0.65498982  0.81256916  0.16742844
   0.57741002  0.91759196  0.24340722
   0.50175607  0.01757055  0.35622857
   0.41447060  0.07090240  0.41723895
   0.34022666  0.18329445  0.51596640
   0.25089630  0.26853406  0.57827659
   0.13964088  0.33217537  0.65998784
   0.07363204  0.39367966  0.74453065
   0.01209561  0.48948955  0.84272732
   0.92281458  0.59390316  0.90748484
   0.83991695  0.65831193  0.99388015
   0.77424754  0.74962660  0.10100579
   0.34555733  0.35412358  0.66651101
   0.24087121  0.39396835  0.73420735
   0.14267263  0.48607686  0.80588028
   0.08795170  0.58775019  0.90999492
   0.02056152  0.67369477  0.99573088
   0.92908989  0.75083802  0.08298516
   0.85797182  0.82948332  0.16455670
   0.74829364  0.91152024  0.23586007
   0.65079017  0.01546310  0.32368879
   0.57635495  0.10152489  0.45155746
   0.48998061  0.16287851  0.49813549
   0.43388152  0.25382063  0.59320269
   0.42789532  0.26457154  0.75713736
   0.33348870  0.35086366  0.84899756
   0.24160048  0.41360834  0.90709427
   0.16769766  0.49505094  0.98180152
   0.09704163  0.58384394  0.08347337
   0.03561227  0.68013266  0.17533550
   0.92265810  0.75047129  0.24601910
   0.82168980  0.84040259  0.32055424
   0.75924101  0.92279157  0.42313213
   0.65189970  0.00215030  0.50679072
   0.57599317  0.05886466  0.57610319
   0.50349046  0.14395878  0.67165655
   0.51266585  0.17044340  0.83043048
   0.43868658  0.25608154  0.92092552
   0.33419449  0.32538621  0.98342223
   0.23863802  0.39493337  0.07324799
   0.19792854  0.49779889  0.15910823
   0.09222632  0.56736386  0.26409629
   0.02163160  0.67427294  0.31825624
   0.93562356  0.74895200  0.40987927
   0.81730012  0.82633007  0.48348991
   0.74514678  0.91888962  0.58110316
   0.65568588  0.98425049  0.67230188
   0.58442958  0.06558198  0.74545941
   0.58642907  0.08426461  0.90219225
   0.50048578  0.17387530  0.00428277
   0.41457391  0.24174591  0.07516655
   0.33681776  0.33874922  0.17138896
   0.24604931  0.43352229  0.25731105
   0.17433540  0.50623175  0.36798853
   0.06080929  0.58936233  0.40659264
   0.98272929  0.65482121  0.51510477
   0.90369964  0.76682692  0.58857115
   0.82462583  0.81222730  0.68849814
   0.76060078  0.91539204  0.76457372
   0.65609719  0.96296160  0.84948788
   0.64661697  0.98651866  0.98442142
   0.57500231  0.06254951  0.09608425
   0.48641504  0.17459296  0.17670270
   0.41044510  0.26196118  0.25728035
   0.31601185  0.34884261  0.35573041
   0.26522092  0.43090755  0.43823942
   0.15853766  0.52794482  0.52739249
   0.08228053  0.60434639  0.62066827
   0.95560868  0.66190553  0.66182002
   0.91074073  0.74210367  0.76081519
   0.83730885  0.81202145  0.84591601
   0.75174249  0.88961737  0.94705825
   0.71917533  0.88326170  0.09816161
   0.64497246  0.99136457  0.15045522
   0.56772923  0.08515673  0.27405836
   0.49092961  0.18163920  0.33699391
   0.43184769  0.25772578  0.44079279
   0.32843911  0.31803864  0.51782743
   0.24725011  0.40032566  0.58981740
   0.17952880  0.50268156  0.67152816
   0.08621728  0.57244113  0.73041395
   0.00861209  0.65688392  0.83823559
   0.93446105  0.72089471  0.93513466
   0.84957473  0.80877179  0.01916467
   0.42610019  0.41972046  0.57364382
   0.34872972  0.48558210  0.66566512
   0.25474242  0.57598648  0.73727689
   0.16794167  0.65454637  0.81307275
   0.09966048  0.74595906  0.88955674
   0.00448537  0.82978155  0.99585647
   0.93731178  0.90732636  0.08630939
   0.82188583  0.98516772  0.17082413
   0.73442703  0.06523110  0.23511538
   0.65932594  0.14562406  0.32222005
   0.61572345  0.24743669  0.41221500
   0.52055219  0.30406989  0.51552866
   0.50936043  0.34754782  0.67950409
   0.42718862  0.43216707  0.75795969
   0.33370473  0.49306702  0.83343918
   0.24591775  0.57783630  0.91463814
   0.17179754  0.67101262  0.00012311
   0.10168161  0.77193617  0.07058120
   0.01771029  0.82737780  0.17397786
   0.94617868  0.91163068  0.26031895
   0.83736964  0.97770523  0.31162034
   0.75871660  0.08071300  0.39562864
   0.67555738  0.16560000  0.49997443
   0.59171283  0.24051531  0.59475132
   0.58448968  0.25110445  0.74749762
   0.50451960  0.35715337  0.83287193
   0.41631876  0.41895833  0.93236925
   0.32003519  0.49679216  0.02183473
   0.23616348  0.58464456  0.08167377
   0.16989291  0.66087301  0.17134133
   0.10964556  0.75420944  0.25464984
   0.01793295  0.82692740  0.34152702
   0.92897639  0.92109219  0.42104771
   0.84847814  0.00627294  0.49162343
   0.76607525  0.05701952  0.57422369
   0.66830336  0.14671523  0.67232245
   0.68239213  0.16917123  0.83033917
   0.58225696  0.27073685  0.90964622
   0.51866367  0.34657603  0.01762877
   0.42077471  0.43354866  0.09580662
   0.32796730  0.50227127  0.15949621
   0.23136277  0.56963298  0.27731004
   0.17757969  0.66193164  0.35043406
   0.08018631  0.74136396  0.43754288
   0.00047634  0.83743036  0.49285340
   0.91494967  0.92333984  0.55976957
   0.85969875  0.00616737  0.66653917
   0.74187679  0.05415221  0.77188980
   0.77496401  0.08310558  0.91509285
   0.64361781  0.17545213  0.01176706
   0.56624550  0.24572845  0.09520524
   0.47299413  0.33215721  0.17219543
   0.42302456  0.41807139  0.25876031
   0.34909096  0.49054155  0.34547767
   0.25880225  0.58514184  0.41553645
   0.17047826  0.64572103  0.51254246
   0.07630606  0.73514162  0.58603989
   0.00971671  0.82919928  0.66760278
   0.91055355  0.90190296  0.75292024
   0.83254769  0.99766264  0.84751520
   0.84372066  0.99741554  0.01595493
   0.74607281  0.07873508  0.09548897
   0.65523551  0.15361094  0.17162582
   0.57068415  0.24628832  0.25540577
   0.51558744  0.34014916  0.35322938
   0.43707253  0.40925402  0.44068174
   0.32985905  0.51909143  0.51870440
   0.24977978  0.58135913  0.60593696
   0.18027631  0.68132617  0.67027321
   0.08095359  0.72615745  0.75431762
   0.99112450  0.81887651  0.82544739
   0.91198711  0.90162203  0.92512644
