 504 504   0   0
  0.1922536E+02  0.2105579E-08  0.2083983E-08  0.2208205E-08  0.5000000E-15
  1.000000000000000E-004
  CAR 
 Li                                      
      3.66264612     -3.36646717  301      0.53418388      1.00000000
     -3.366  0.0000E+00  0.0000E+00
     -3.343  0.0000E+00  0.0000E+00
     -3.320  0.0000E+00  0.0000E+00
     -3.296  0.0000E+00  0.0000E+00
     -3.273  0.0000E+00  0.0000E+00
     -3.249  0.0000E+00  0.0000E+00
     -3.226  0.0000E+00  0.0000E+00
     -3.202  0.9224E-11  0.2161E-12
     -3.179  0.1941E-07  0.4550E-09
     -3.156  0.1239E-04  0.2907E-06
     -3.132  0.2420E-02  0.5700E-04
     -3.109  0.1468E+00  0.3496E-02
     -3.085  0.2812E+01  0.6939E-01
     -3.062  0.1739E+02  0.4769E+00
     -3.038  0.3538E+02  0.1306E+01
     -3.015  0.2392E+02  0.1866E+01
     -2.992  0.6124E+01  0.2010E+01
     -2.968  0.1052E+02  0.2256E+01
     -2.945  0.4771E+02  0.3374E+01
     -2.921  0.9052E+02  0.5495E+01
     -2.898  0.7532E+02  0.7260E+01
     -2.874  0.2793E+02  0.7914E+01
     -2.851  0.1128E+02  0.8178E+01
     -2.828  0.3795E+02  0.9067E+01
     -2.804  0.8169E+02  0.1098E+02
     -2.781  0.8242E+02  0.1291E+02
     -2.757  0.3999E+02  0.1385E+02
     -2.734  0.2098E+02  0.1434E+02
     -2.710  0.4879E+02  0.1548E+02
     -2.687  0.9019E+02  0.1760E+02
     -2.664  0.1025E+03  0.2000E+02
     -2.640  0.6592E+02  0.2154E+02
     -2.617  0.3494E+02  0.2236E+02
     -2.593  0.6134E+02  0.2380E+02
     -2.570  0.1129E+03  0.2645E+02
     -2.546  0.1423E+03  0.2978E+02
     -2.523  0.1197E+03  0.3258E+02
     -2.500  0.5345E+02  0.3384E+02
     -2.476  0.2757E+02  0.3448E+02
     -2.453  0.6052E+02  0.3590E+02
     -2.429  0.9033E+02  0.3802E+02
     -2.406  0.6794E+02  0.3961E+02
     -2.382  0.4245E+02  0.4060E+02
     -2.359  0.5977E+02  0.4200E+02
     -2.336  0.8305E+02  0.4395E+02
     -2.312  0.1051E+03  0.4641E+02
     -2.289  0.1258E+03  0.4936E+02
     -2.265  0.1133E+03  0.5201E+02
     -2.242  0.9790E+02  0.5431E+02
     -2.218  0.1158E+03  0.5702E+02
     -2.195  0.1537E+03  0.6062E+02
     -2.172  0.1762E+03  0.6475E+02
     -2.148  0.1425E+03  0.6809E+02
     -2.125  0.8620E+02  0.7011E+02
     -2.101  0.5583E+02  0.7141E+02
     -2.078  0.4641E+02  0.7250E+02
     -2.054  0.5722E+02  0.7384E+02
     -2.031  0.6488E+02  0.7536E+02
     -2.008  0.6877E+02  0.7697E+02
     -1.984  0.9723E+02  0.7925E+02
     -1.961  0.1361E+03  0.8244E+02
     -1.937  0.1448E+03  0.8583E+02
     -1.914  0.1342E+03  0.8898E+02
     -1.890  0.1118E+03  0.9160E+02
     -1.867  0.1033E+03  0.9402E+02
     -1.843  0.1262E+03  0.9697E+02
     -1.820  0.1541E+03  0.1006E+03
     -1.797  0.1832E+03  0.1049E+03
     -1.773  0.1658E+03  0.1088E+03
     -1.750  0.1001E+03  0.1111E+03
     -1.726  0.4082E+02  0.1121E+03
     -1.703  0.4911E+02  0.1132E+03
     -1.679  0.1152E+03  0.1159E+03
     -1.656  0.1508E+03  0.1194E+03
     -1.633  0.1285E+03  0.1225E+03
     -1.609  0.1306E+03  0.1255E+03
     -1.586  0.1610E+03  0.1293E+03
     -1.562  0.1696E+03  0.1333E+03
     -1.539  0.1614E+03  0.1370E+03
     -1.515  0.1429E+03  0.1404E+03
     -1.492  0.1216E+03  0.1432E+03
     -1.469  0.1233E+03  0.1461E+03
     -1.445  0.1438E+03  0.1495E+03
     -1.422  0.1584E+03  0.1532E+03
     -1.398  0.1537E+03  0.1568E+03
     -1.375  0.1302E+03  0.1599E+03
     -1.351  0.9595E+02  0.1621E+03
     -1.328  0.9252E+02  0.1643E+03
     -1.305  0.1077E+03  0.1668E+03
     -1.281  0.1052E+03  0.1693E+03
     -1.258  0.1110E+03  0.1719E+03
     -1.234  0.1261E+03  0.1748E+03
     -1.211  0.1353E+03  0.1780E+03
     -1.187  0.1410E+03  0.1813E+03
     -1.164  0.1583E+03  0.1850E+03
     -1.141  0.1632E+03  0.1888E+03
     -1.117  0.1583E+03  0.1925E+03
     -1.094  0.1711E+03  0.1966E+03
     -1.070  0.1951E+03  0.2011E+03
     -1.047  0.2174E+03  0.2062E+03
     -1.023  0.2206E+03  0.2114E+03
     -1.000  0.2063E+03  0.2162E+03
     -0.977  0.1800E+03  0.2204E+03
     -0.953  0.1534E+03  0.2240E+03
     -0.930  0.1406E+03  0.2273E+03
     -0.906  0.1236E+03  0.2302E+03
     -0.883  0.9348E+02  0.2324E+03
     -0.859  0.1124E+03  0.2350E+03
     -0.836  0.1583E+03  0.2388E+03
     -0.813  0.1605E+03  0.2425E+03
     -0.789  0.1466E+03  0.2459E+03
     -0.766  0.1523E+03  0.2495E+03
     -0.742  0.1669E+03  0.2534E+03
     -0.719  0.1873E+03  0.2578E+03
     -0.695  0.1925E+03  0.2623E+03
     -0.672  0.1765E+03  0.2665E+03
     -0.649  0.1470E+03  0.2699E+03
     -0.625  0.1258E+03  0.2728E+03
     -0.602  0.1449E+03  0.2762E+03
     -0.578  0.1643E+03  0.2801E+03
     -0.555  0.1537E+03  0.2837E+03
     -0.531  0.1511E+03  0.2872E+03
     -0.508  0.1651E+03  0.2911E+03
     -0.485  0.1831E+03  0.2954E+03
     -0.461  0.2052E+03  0.3002E+03
     -0.438  0.2135E+03  0.3052E+03
     -0.414  0.2013E+03  0.3099E+03
     -0.391  0.1936E+03  0.3145E+03
     -0.367  0.2082E+03  0.3193E+03
     -0.344  0.2337E+03  0.3248E+03
     -0.321  0.2373E+03  0.3304E+03
     -0.297  0.2045E+03  0.3352E+03
     -0.274  0.1678E+03  0.3391E+03
     -0.250  0.1513E+03  0.3426E+03
     -0.227  0.1640E+03  0.3465E+03
     -0.203  0.1746E+03  0.3506E+03
     -0.180  0.1698E+03  0.3546E+03
     -0.157  0.1536E+03  0.3582E+03
     -0.133  0.1565E+03  0.3618E+03
     -0.110  0.1818E+03  0.3661E+03
     -0.086  0.1980E+03  0.3707E+03
     -0.063  0.1995E+03  0.3754E+03
     -0.039  0.1987E+03  0.3800E+03
     -0.016  0.2014E+03  0.3848E+03
      0.008  0.2125E+03  0.3897E+03
      0.031  0.2280E+03  0.3951E+03
      0.054  0.2414E+03  0.4007E+03
      0.078  0.2455E+03  0.4065E+03
      0.101  0.2404E+03  0.4121E+03
      0.125  0.2235E+03  0.4174E+03
      0.148  0.1951E+03  0.4219E+03
      0.172  0.1846E+03  0.4263E+03
      0.195  0.1987E+03  0.4309E+03
      0.218  0.2087E+03  0.4358E+03
      0.242  0.2085E+03  0.4407E+03
      0.265  0.2081E+03  0.4456E+03
      0.289  0.2055E+03  0.4504E+03
      0.312  0.1966E+03  0.4550E+03
      0.336  0.1846E+03  0.4593E+03
      0.359  0.1785E+03  0.4635E+03
      0.382  0.1931E+03  0.4680E+03
      0.406  0.2046E+03  0.4728E+03
      0.429  0.2145E+03  0.4778E+03
      0.453  0.2284E+03  0.4832E+03
      0.476  0.2421E+03  0.4889E+03
      0.500  0.2520E+03  0.4948E+03
      0.523  0.2634E+03  0.5009E+03
      0.546  0.2737E+03  0.5074E+03
      0.570  0.2685E+03  0.5136E+03
      0.593  0.2656E+03  0.5199E+03
      0.617  0.2690E+03  0.5262E+03
      0.640  0.2602E+03  0.5323E+03
      0.664  0.2563E+03  0.5383E+03
      0.687  0.2632E+03  0.5444E+03
      0.710  0.2634E+03  0.5506E+03
      0.734  0.2566E+03  0.5566E+03
      0.757  0.2416E+03  0.5623E+03
      0.781  0.2379E+03  0.5679E+03
      0.804  0.2320E+03  0.5733E+03
      0.828  0.2263E+03  0.5786E+03
      0.851  0.2254E+03  0.5839E+03
      0.874  0.2143E+03  0.5889E+03
      0.898  0.1967E+03  0.5935E+03
      0.921  0.1940E+03  0.5981E+03
      0.945  0.2023E+03  0.6028E+03
      0.968  0.2064E+03  0.6076E+03
      0.992  0.2001E+03  0.6123E+03
      1.015  0.1940E+03  0.6169E+03
      1.038  0.1896E+03  0.6213E+03
      1.062  0.1840E+03  0.6256E+03
      1.085  0.1932E+03  0.6301E+03
      1.109  0.2106E+03  0.6351E+03
      1.132  0.2166E+03  0.6402E+03
      1.156  0.2248E+03  0.6454E+03
      1.179  0.2352E+03  0.6509E+03
      1.202  0.2327E+03  0.6564E+03
      1.226  0.2257E+03  0.6617E+03
      1.249  0.2264E+03  0.6670E+03
      1.273  0.2303E+03  0.6724E+03
      1.296  0.2338E+03  0.6778E+03
      1.320  0.2211E+03  0.6830E+03
      1.343  0.2056E+03  0.6878E+03
      1.366  0.2034E+03  0.6926E+03
      1.390  0.2067E+03  0.6975E+03
      1.413  0.2026E+03  0.7022E+03
      1.437  0.2047E+03  0.7070E+03
      1.460  0.2046E+03  0.7118E+03
      1.484  0.2050E+03  0.7166E+03
      1.507  0.2068E+03  0.7214E+03
      1.530  0.2068E+03  0.7263E+03
      1.554  0.2025E+03  0.7310E+03
      1.577  0.1921E+03  0.7355E+03
      1.601  0.1786E+03  0.7397E+03
      1.624  0.1802E+03  0.7439E+03
      1.648  0.1970E+03  0.7486E+03
      1.671  0.2149E+03  0.7536E+03
      1.694  0.2233E+03  0.7588E+03
      1.718  0.2093E+03  0.7637E+03
      1.741  0.1979E+03  0.7684E+03
      1.765  0.1992E+03  0.7730E+03
      1.788  0.2023E+03  0.7778E+03
      1.812  0.2155E+03  0.7828E+03
      1.835  0.2206E+03  0.7880E+03
      1.859  0.2096E+03  0.7929E+03
      1.882  0.2017E+03  0.7976E+03
      1.905  0.1954E+03  0.8022E+03
      1.929  0.1938E+03  0.8067E+03
      1.952  0.2004E+03  0.8114E+03
      1.976  0.2071E+03  0.8163E+03
      1.999  0.2128E+03  0.8213E+03
      2.023  0.2119E+03  0.8262E+03
      2.046  0.2093E+03  0.8311E+03
      2.069  0.2059E+03  0.8360E+03
      2.093  0.1948E+03  0.8405E+03
      2.116  0.1909E+03  0.8450E+03
      2.140  0.1917E+03  0.8495E+03
      2.163  0.1861E+03  0.8539E+03
      2.187  0.1816E+03  0.8581E+03
      2.210  0.1841E+03  0.8624E+03
      2.233  0.1844E+03  0.8667E+03
      2.257  0.1851E+03  0.8711E+03
      2.280  0.1922E+03  0.8756E+03
      2.304  0.1879E+03  0.8800E+03
      2.327  0.1730E+03  0.8840E+03
      2.351  0.1658E+03  0.8879E+03
      2.374  0.1612E+03  0.8917E+03
      2.397  0.1662E+03  0.8956E+03
      2.421  0.1710E+03  0.8996E+03
      2.444  0.1688E+03  0.9036E+03
      2.468  0.1646E+03  0.9074E+03
      2.491  0.1516E+03  0.9110E+03
      2.515  0.1396E+03  0.9142E+03
      2.538  0.1432E+03  0.9176E+03
      2.561  0.1428E+03  0.9209E+03
      2.585  0.1441E+03  0.9243E+03
      2.608  0.1470E+03  0.9278E+03
      2.632  0.1427E+03  0.9311E+03
      2.655  0.1336E+03  0.9342E+03
      2.679  0.1262E+03  0.9372E+03
      2.702  0.1326E+03  0.9403E+03
      2.725  0.1433E+03  0.9437E+03
      2.749  0.1393E+03  0.9469E+03
      2.772  0.1332E+03  0.9500E+03
      2.796  0.1360E+03  0.9532E+03
      2.819  0.1401E+03  0.9565E+03
      2.843  0.1383E+03  0.9597E+03
      2.866  0.1346E+03  0.9629E+03
      2.889  0.1376E+03  0.9661E+03
      2.913  0.1420E+03  0.9694E+03
      2.936  0.1398E+03  0.9727E+03
      2.960  0.1396E+03  0.9760E+03
      2.983  0.1386E+03  0.9792E+03
      3.007  0.1285E+03  0.9823E+03
      3.030  0.1062E+03  0.9847E+03
      3.053  0.9076E+02  0.9869E+03
      3.077  0.9451E+02  0.9891E+03
      3.100  0.1175E+03  0.9918E+03
      3.124  0.1236E+03  0.9947E+03
      3.147  0.1126E+03  0.9974E+03
      3.171  0.1006E+03  0.9997E+03
      3.194  0.8615E+02  0.1002E+04
      3.217  0.7307E+02  0.1003E+04
      3.241  0.6351E+02  0.1005E+04
      3.264  0.4919E+02  0.1006E+04
      3.288  0.3704E+02  0.1007E+04
      3.311  0.3626E+02  0.1008E+04
      3.335  0.4031E+02  0.1009E+04
      3.358  0.3635E+02  0.1010E+04
      3.381  0.1447E+02  0.1010E+04
      3.405  0.2009E+01  0.1010E+04
      3.428  0.9163E-01  0.1010E+04
      3.452  0.1338E-02  0.1010E+04
      3.475  0.6145E-05  0.1010E+04
      3.499  0.8757E-08  0.1010E+04
      3.522  0.3836E-11  0.1010E+04
      3.545  0.0000E+00  0.1010E+04
      3.569  0.0000E+00  0.1010E+04
      3.592  0.0000E+00  0.1010E+04
      3.616  0.0000E+00  0.1010E+04
      3.639  0.0000E+00  0.1010E+04
      3.663  0.0000E+00  0.1010E+04
