 running on   64 total cores
 distrk:  each k-point on   32 cores,    2 groups
 distr:  one band on   32 cores,    1 groups
 vasp.6.2.1 16May21 (build Nov 23 2021 15:40:41) complex                        
  
 POSCAR found type information on POSCAR Li
 POSCAR found :  1 types and     504 ions
 scaLAPACK will be used
 -----------------------------------------------------------------------------
|                                                                             |
|           W    W    AA    RRRRR   N    N  II  N    N   GGGG   !!!           |
|           W    W   A  A   R    R  NN   N  II  NN   N  G    G  !!!           |
|           W    W  A    A  R    R  N N  N  II  N N  N  G       !!!           |
|           W WW W  AAAAAA  RRRRR   N  N N  II  N  N N  G  GGG   !            |
|           WW  WW  A    A  R   R   N   NN  II  N   NN  G    G                |
|           W    W  A    A  R    R  N    N  II  N    N   GGGG   !!!           |
|                                                                             |
|     For optimal performance we recommend to set                             |
|       NCORE = 2 up to number-of-cores-per-socket                            |
|     NCORE specifies how many cores store one orbital (NPAR=cpu/NCORE).      |
|     This setting can greatly improve the performance of VASP for DFT.       |
|     The default, NCORE=1 might be grossly inefficient on modern             |
|     multi-core architectures or massively parallel machines. Do your        |
|     own testing! More info at https://www.vasp.at/wiki/index.php/NCORE      |
|     Unfortunately you need to use the default for GW and RPA                |
|     calculations (for HF NCORE is supported but not extensively tested      |
|     yet).                                                                   |
|                                                                             |
 -----------------------------------------------------------------------------

 -----------------------------------------------------------------------------
|                                                                             |
|               ----> ADVICE to this user running VASP <----                  |
|                                                                             |
|     You have a (more or less) 'large supercell' and for larger cells it     |
|     might be more efficient to use real-space projection operators.         |
|     Therefore, try LREAL= Auto in the INCAR file.                           |
|     Mind: If you want to do very accurate calculations, keep the            |
|     reciprocal projection scheme (i.e. LREAL=.FALSE.).                      |
|                                                                             |
 -----------------------------------------------------------------------------

 LDA part: xc-table for Pade appr. of Perdew
 POSCAR found type information on POSCAR Li
 POSCAR found :  1 types and     504 ions
 POSCAR, INCAR and KPOINTS ok, starting setup
 FFT: planning ...
 WAVECAR not read
 entering main loop
       N       E                     dE             d eps       ncg     rms          rms(c)
DAV:   1    -0.260311525513E+03   -0.26031E+03   -0.12434E+05  4040   0.662E+02
DAV:   2    -0.881201513942E+03   -0.62089E+03   -0.56860E+03  4644   0.689E+01
DAV:   3    -0.924922552821E+03   -0.43721E+02   -0.39842E+02  5192   0.144E+01
DAV:   4    -0.926402632821E+03   -0.14801E+01   -0.14559E+01  4720   0.288E+00
DAV:   5    -0.926437353028E+03   -0.34720E-01   -0.34647E-01  4888   0.466E-01    0.970E+00
DAV:   6    -0.922500604770E+03    0.39367E+01   -0.11830E+01  4656   0.486E+00    0.791E+00
DAV:   7    -0.916621865803E+03    0.58787E+01   -0.95081E+00  4768   0.455E+00    0.550E+00
DAV:   8    -0.912978763940E+03    0.36431E+01   -0.50190E+00  4672   0.264E+00    0.292E+00
DAV:   9    -0.912852008408E+03    0.12676E+00   -0.25947E+00  4648   0.164E+00    0.236E+00
DAV:  10    -0.912305213825E+03    0.54679E+00   -0.13420E+00  4672   0.120E+00    0.130E+00
DAV:  11    -0.912205273772E+03    0.99940E-01   -0.44238E-01  4440   0.554E-01    0.702E-01
DAV:  12    -0.912219434119E+03   -0.14160E-01   -0.97787E-02  4728   0.357E-01    0.602E-01
DAV:  13    -0.912182945046E+03    0.36489E-01   -0.54230E-02  4664   0.269E-01    0.298E-01
DAV:  14    -0.912180331896E+03    0.26132E-02   -0.15335E-02  4544   0.125E-01    0.165E-01
DAV:  15    -0.912180670440E+03   -0.33854E-03   -0.64281E-03  4608   0.900E-02    0.129E-01
DAV:  16    -0.912178794183E+03    0.18763E-02   -0.27826E-03  4560   0.625E-02    0.613E-02
DAV:  17    -0.912178686817E+03    0.10737E-03   -0.77337E-04  4528   0.288E-02    0.367E-02
DAV:  18    -0.912178565229E+03    0.12159E-03   -0.34210E-04  4512   0.211E-02    0.218E-02
DAV:  19    -0.912178523041E+03    0.42187E-04   -0.11102E-04  4496   0.109E-02    0.126E-02
DAV:  20    -0.912178505717E+03    0.17325E-04   -0.41809E-05  3968   0.660E-03    0.748E-03
DAV:  21    -0.912178501383E+03    0.43332E-05   -0.15089E-05  2728   0.463E-03
   1 F= -.91217850E+03 E0= -.91211672E+03  d E =-.123557E+00
