Li                                      
           1
   -10.527895   18.234849   -0.000000
   -18.047820  -10.419914    0.000000
    -0.000000    0.000000   22.082050
   Li
   504
Direct configuration=     1
   0.01541064  0.02205808  0.97583671
   0.93266983  0.05149282  0.67982892
   0.85544948  0.08563353  0.31882704
   0.77622018  0.12161878  0.00326813
   0.70229564  0.17184648  0.65203955
   0.65900531  0.22900135  0.32974110
   0.55500939  0.26124788  0.97811993
   0.50275536  0.28890578  0.66425014
   0.45151500  0.35851941  0.32363277
   0.35812733  0.38322064  0.99559583
   0.27240108  0.42016206  0.67219080
   0.21644791  0.48486259  0.33504580
   0.05059965  0.04609587  0.65153886
   0.00323927  0.07558448  0.32423531
   0.92128213  0.13854553  0.01121493
   0.86241389  0.17819404  0.67088304
   0.79767095  0.22634108  0.33437886
   0.71215016  0.25382105  0.97899015
   0.62937757  0.28917622  0.65743015
   0.56347270  0.35435714  0.33797689
   0.48109347  0.37807250  0.97990145
   0.46089954  0.42054475  0.66157454
   0.35469550  0.47457060  0.31775027
   0.29354985  0.51456186  0.99450689
   0.14315284  0.08407636  0.34124128
   0.07902823  0.12149412  0.01173500
   0.97161821  0.15344086  0.66323895
   0.94550690  0.20999407  0.32929319
   0.85953251  0.23667313  0.00861506
   0.79207724  0.29950695  0.66983023
   0.70303693  0.33306585  0.34881471
   0.64103094  0.36890988  0.98808485
   0.59133483  0.41949683  0.67790782
   0.49326981  0.47156339  0.31768732
   0.42101889  0.49259964  0.98093137
   0.35135246  0.52464681  0.67587668
   0.20797524  0.10830246  0.00733313
   0.11267805  0.18566851  0.65586025
   0.08614403  0.22643482  0.33429993
   0.02405454  0.24398840  0.01225138
   0.91293851  0.29353681  0.68039765
   0.85529113  0.34059942  0.35383381
   0.76896951  0.37208858  0.02272946
   0.69021412  0.43596490  0.66762026
   0.65848617  0.47734460  0.32702939
   0.57281097  0.50551355  0.99121252
   0.49272277  0.55069057  0.65563924
   0.40672707  0.58662234  0.32686541
   0.26768254  0.18637206  0.65469993
   0.22557352  0.21204285  0.33938146
   0.15943704  0.23079103  0.01299842
   0.05233226  0.29291458  0.66945505
   0.00714147  0.31126287  0.34023938
   0.92769511  0.35376730  0.00056943
   0.83807361  0.42226035  0.67337375
   0.79495342  0.44553483  0.34261673
   0.70363059  0.50394835  0.00790772
   0.64416812  0.56710660  0.66419294
   0.57085483  0.59582482  0.32993593
   0.48970402  0.60164525  0.00819738
   0.35189905  0.20704305  0.33072881
   0.29781898  0.23670452  0.00463311
   0.21891635  0.29846039  0.65632277
   0.16621086  0.33254713  0.33130589
   0.09078762  0.38239332  0.97416365
   0.97830982  0.38919794  0.69356862
   0.93045370  0.45426986  0.35577725
   0.86096740  0.48522734  0.00687193
   0.76868668  0.55563019  0.68953436
   0.72870441  0.57426124  0.30687498
   0.63616838  0.62305162  0.02122125
   0.55812228  0.69125834  0.67095868
   0.42629045  0.23438939  0.00592595
   0.36346553  0.31152556  0.66627166
   0.31968126  0.34009568  0.32410787
   0.23594881  0.36663791  0.02145690
   0.12318857  0.42497836  0.67075620
   0.06296352  0.44137329  0.36459825
   0.98769464  0.50210782  0.00691947
   0.93872507  0.57446178  0.67193606
   0.87957194  0.59042548  0.33338214
   0.76995378  0.60844719  0.99958286
   0.71548294  0.67871462  0.67310119
   0.62997927  0.69894530  0.34184488
   0.15696786  0.47415678  0.01596366
   0.07634864  0.53908336  0.65147819
   0.01073416  0.57706718  0.33904300
   0.91959456  0.62878256  0.99902648
   0.85087240  0.67682059  0.66205442
   0.76222007  0.69796800  0.31835629
   0.70608114  0.73615055  0.00150553
   0.21156164  0.56015347  0.67256126
   0.13463995  0.57238019  0.35114058
   0.06665234  0.62326812  0.02117424
   0.02306298  0.68120486  0.66762545
   0.91894403  0.72153446  0.33827380
   0.84891033  0.74250688  0.99522825
   0.79685993  0.80219024  0.68840880
   0.26441255  0.61756973  0.35764176
   0.20705047  0.62626975  0.01006761
   0.15037910  0.66991738  0.65427187
   0.08543165  0.69261199  0.31450988
   0.01012454  0.75383849  0.01388105
   0.94131784  0.79337495  0.67913112
   0.84338016  0.82241371  0.33973673
   0.34434564  0.62162123  0.01659768
   0.28914800  0.67313864  0.66580155
   0.20003926  0.69645234  0.33101093
   0.15038770  0.73664095  0.99515176
   0.07716022  0.79070542  0.67033987
   0.99598666  0.83592972  0.31007526
   0.92559737  0.86448162  0.98531085
   0.43073267  0.66402426  0.66767872
   0.34005213  0.70979252  0.33653973
   0.26701351  0.73516876  0.00580342
   0.21699872  0.80476077  0.65186575
   0.13301994  0.83568530  0.33308304
   0.06659756  0.88790776  0.00585189
   0.00096847  0.92514796  0.67155801
   0.92853285  0.94849756  0.31623203
   0.87629235  0.99530426  0.99751620
   0.81191599  0.05057794  0.65968269
   0.70340847  0.08664771  0.32284351
   0.63578332  0.12025520  0.01009090
   0.54711579  0.16334698  0.64530755
   0.50519150  0.24263532  0.33092563
   0.06446450  0.95628289  0.34020216
   0.16627791  0.99708758  0.00067674
   0.21187995  0.07644384  0.64633227
   0.29569658  0.07019225  0.33347594
   0.33721047  0.11324412  0.00783557
   0.41758005  0.16200594  0.66438916
   0.86762855  0.91052300  0.68667693
   0.78122901  0.96904720  0.32677615
   0.72282198  0.98866930  0.99825505
   0.64900223  0.03127049  0.67591159
   0.58830101  0.09651484  0.32028805
   0.48130124  0.11911853  0.98731703
   0.14443709  0.92303889  0.64794243
   0.22061639  0.94270659  0.32940137
   0.27738294  0.98530659  0.98513121
   0.35087864  0.04892584  0.66029729
   0.43695272  0.09346772  0.32560218
   0.80519838  0.85776454  0.01270688
   0.71794322  0.89758965  0.66125313
   0.64190541  0.95209530  0.31880153
   0.57456300  0.99820492  0.99565114
   0.48533055  0.02841169  0.65472087
   0.21050564  0.85407296  0.02098118
   0.27604673  0.93397648  0.69049494
   0.37607965  0.98331663  0.33321731
   0.43084452  0.98958947  0.00875899
   0.69779887  0.83117434  0.33247598
   0.65755538  0.87794746  0.00057942
   0.56161411  0.91014471  0.66096505
   0.50887417  0.95349312  0.31596455
   0.28252703  0.84036157  0.33082231
   0.36117948  0.85368603  0.00130225
   0.40309697  0.91280916  0.65542486
   0.65186730  0.79727508  0.67033697
   0.56534676  0.81714386  0.31756236
   0.51135288  0.85189899  0.99115775
   0.36571577  0.79173788  0.66779258
   0.41353968  0.81395804  0.32924730
   0.55810695  0.75937893  0.99077408
   0.49376858  0.80307242  0.67994731
   0.42307929  0.73689323  0.00428844
   0.47467180  0.69429024  0.32608685
   0.99728664  0.99496361  0.78062486
   0.95234751  0.03219406  0.44678842
   0.83190334  0.08299054  0.08833733
   0.79430284  0.11930907  0.76118841
   0.72048996  0.17162079  0.42408708
   0.64025917  0.22735212  0.10745025
   0.57698603  0.23137149  0.77633101
   0.50066090  0.30610281  0.44822076
   0.43497783  0.34772270  0.08733017
   0.35094934  0.39425512  0.76190442
   0.29794824  0.41426957  0.44429804
   0.23365414  0.45794424  0.12816003
   0.09258711  0.04634862  0.43574565
   0.98883296  0.08217754  0.11437084
   0.94575282  0.14470129  0.78356895
   0.86079252  0.15351853  0.43012927
   0.79268214  0.20843844  0.12262185
   0.74310237  0.26488504  0.75540563
   0.63173886  0.31700863  0.44907757
   0.56815728  0.33287173  0.08284032
   0.49247746  0.37107755  0.77452672
   0.43851628  0.43273098  0.43759998
   0.36825732  0.43937917  0.10613590
   0.28273297  0.49060402  0.79048706
   0.14159677  0.06792123  0.11292217
   0.07623678  0.12502536  0.76927439
   0.00700939  0.14765175  0.42198969
   0.91800129  0.21529054  0.13160791
   0.85743169  0.23080270  0.79048648
   0.79044024  0.29101695  0.46770900
   0.72386576  0.32531560  0.11280231
   0.62812219  0.35462240  0.76876664
   0.57299147  0.42009603  0.43345494
   0.49841170  0.46005115  0.10081624
   0.43713892  0.48493848  0.76907376
   0.34752799  0.54726714  0.42856524
   0.19654213  0.16169487  0.77533617
   0.13196095  0.16422825  0.46157406
   0.06635143  0.18236798  0.12414514
   0.02845798  0.23578627  0.75380795
   0.92580042  0.28781437  0.44949606
   0.86904294  0.33964979  0.12591400
   0.78758539  0.36653003  0.77718009
   0.71288195  0.41916403  0.45160345
   0.63698994  0.44368799  0.09476397
   0.57630678  0.47856809  0.76229460
   0.49159585  0.55339573  0.42694203
   0.42790465  0.59087111  0.11690621
   0.28926511  0.17951127  0.44958395
   0.22234834  0.20865158  0.11200185
   0.15453298  0.26223558  0.78306037
   0.05052039  0.30564245  0.45340762
   0.01581901  0.33484153  0.12136258
   0.89663866  0.34676016  0.80620209
   0.85873111  0.42402472  0.46476439
   0.77774217  0.46885214  0.14278407
   0.69914059  0.48406848  0.78503158
   0.64505913  0.54579200  0.43816950
   0.57111673  0.58437566  0.11777235
   0.49976544  0.61445355  0.79188599
   0.36378806  0.20921979  0.11790574
   0.30426290  0.24553920  0.77325760
   0.19693714  0.31760104  0.43407592
   0.14054897  0.34733798  0.09860298
   0.06665223  0.37716236  0.80083971
   0.96428364  0.42028004  0.45308452
   0.93101670  0.44847953  0.11773375
   0.86505446  0.49058006  0.79216563
   0.78013742  0.53984731  0.43785996
   0.70794412  0.59073409  0.10619691
   0.62257903  0.60225638  0.79241534
   0.56989967  0.67106986  0.44680740
   0.44531210  0.25829859  0.77495949
   0.36671253  0.30135323  0.44222136
   0.29963134  0.32845235  0.10585665
   0.21250763  0.36071698  0.78821721
   0.14323950  0.43177124  0.46315663
   0.08335538  0.45812126  0.12133655
   0.99336167  0.48720147  0.77712997
   0.92327360  0.54559875  0.44930161
   0.86823755  0.58299245  0.09885281
   0.79213042  0.61836506  0.78392765
   0.71098470  0.66665657  0.42117075
   0.62435744  0.70769401  0.09689653
   0.15237494  0.48526785  0.76738213
   0.07363807  0.55484766  0.45802699
   0.98450397  0.59519471  0.11399193
   0.94248980  0.62250451  0.77631222
   0.83895889  0.66231131  0.44376812
   0.79036484  0.70148499  0.09952209
   0.72205430  0.75702518  0.77280848
   0.22734218  0.54675725  0.45518068
   0.13517824  0.60143961  0.12116483
   0.08052108  0.62476706  0.77712851
   0.00168059  0.67212433  0.42902889
   0.90504090  0.70346126  0.11746503
   0.86888777  0.74640989  0.77604991
   0.79678324  0.79255224  0.44535007
   0.29335196  0.58509093  0.14270135
   0.21561908  0.61801613  0.78289818
   0.12024767  0.68188347  0.42903336
   0.05934631  0.70494128  0.10674799
   0.02179485  0.73653912  0.78348394
   0.93935962  0.80460409  0.45153812
   0.84544077  0.83062128  0.10813438
   0.35261998  0.62967577  0.77005440
   0.28102549  0.67538849  0.45335289
   0.21302014  0.69548766  0.12767720
   0.15721651  0.73370358  0.77135944
   0.06814268  0.80576283  0.44364017
   0.99123760  0.82479955  0.10094512
   0.93429550  0.85727503  0.78162939
   0.41634693  0.68628163  0.44411551
   0.35806329  0.72814320  0.11429253
   0.27183812  0.74823145  0.77463975
   0.21817188  0.79412081  0.44024555
   0.14531460  0.81900514  0.11886329
   0.08865559  0.86863138  0.76752697
   0.99707866  0.91791470  0.44857596
   0.93097019  0.94937325  0.09387986
   0.86369277  0.99911215  0.79588879
   0.79870527  0.04099791  0.47218532
   0.70069714  0.07058085  0.12219505
   0.64851610  0.13025235  0.75744470
   0.57672351  0.15930426  0.42424389
   0.49228056  0.21002413  0.10857098
   0.06857042  0.95292331  0.11738133
   0.15030016  0.99945284  0.75863481
   0.22528215  0.04156071  0.43488554
   0.30331895  0.08604110  0.10413809
   0.34543981  0.13983692  0.77907262
   0.43220138  0.17824680  0.43817693
   0.85039423  0.93410303  0.44223477
   0.78174988  0.95087298  0.09580073
   0.73093865  0.00824838  0.77001816
   0.65613854  0.02796731  0.44933641
   0.55069562  0.08670153  0.08754951
   0.48798231  0.11560703  0.77569483
   0.15475806  0.91558879  0.44248549
   0.20668584  0.96476523  0.10980667
   0.28649438  0.02055263  0.78550146
   0.36527773  0.06733071  0.44132699
   0.43276802  0.07706769  0.12225007
   0.78009876  0.87966785  0.79215776
   0.72547099  0.90682972  0.45170479
   0.62209323  0.96126156  0.09200867
   0.57641926  0.00894879  0.77342411
   0.49583671  0.04600397  0.42619778
   0.20365352  0.87669876  0.77066894
   0.29596283  0.91818842  0.44979854
   0.33341199  0.95506486  0.11579507
   0.41574494  0.99647228  0.77648194
   0.69702809  0.82266766  0.09807937
   0.65496455  0.86406303  0.77735267
   0.56536138  0.91811792  0.44563411
   0.48159043  0.95621484  0.11721948
   0.29127940  0.82994943  0.12412162
   0.35080300  0.87368763  0.77760136
   0.41182342  0.92250293  0.42724644
   0.65343586  0.81436620  0.45354349
   0.56689110  0.83343538  0.11999244
   0.51142175  0.89203209  0.76768160
   0.35682528  0.80433116  0.44307254
   0.43368025  0.84989737  0.11094642
   0.57953255  0.74168589  0.78533258
   0.50325960  0.79340608  0.45142895
   0.40388434  0.73770667  0.78536977
   0.50264914  0.71888292  0.11747478
   0.99399623  0.01371874  0.21881953
   0.95278572  0.04460362  0.89628068
   0.86578227  0.07067893  0.55262995
   0.78517862  0.12035656  0.22270182
   0.70373054  0.15511442  0.87498712
   0.64228872  0.20320807  0.55008963
   0.55655971  0.28783156  0.22101571
   0.50495776  0.26236664  0.90318022
   0.41849733  0.35357882  0.54207980
   0.37731835  0.36282096  0.20845279
   0.29817744  0.42190947  0.88677254
   0.19788760  0.46897257  0.57370482
   0.09004230  0.04438158  0.88273812
   0.00460055  0.09471177  0.53476023
   0.91082228  0.10449812  0.22288931
   0.86348260  0.14318294  0.90915308
   0.79034562  0.21083180  0.55913728
   0.71487204  0.25625513  0.23639757
   0.65357248  0.27622477  0.87235292
   0.57225231  0.37102726  0.56259436
   0.49413178  0.39869730  0.20720650
   0.43905588  0.42004852  0.87539371
   0.34094147  0.44939608  0.57070225
   0.30564302  0.50865585  0.23753627
   0.13970336  0.08630728  0.54933917
   0.07686666  0.14999280  0.24842960
   0.02246820  0.17989205  0.89367503
   0.92324204  0.22025182  0.55686539
   0.84880259  0.25632873  0.24341404
   0.78909624  0.27744927  0.89452504
   0.70279283  0.32917115  0.56715813
   0.65760127  0.38390020  0.21409748
   0.54992648  0.38687232  0.87013288
   0.50502664  0.47837990  0.55246491
   0.42520252  0.51822471  0.19289729
   0.36363120  0.55084275  0.88171248
   0.20969760  0.13797508  0.20988166
   0.14895977  0.17682688  0.89433749
   0.06510079  0.20922719  0.55327119
   0.99998515  0.22130405  0.23100919
   0.95764248  0.26255032  0.89942628
   0.84975006  0.33474251  0.56471697
   0.80041810  0.35990285  0.24170781
   0.71299180  0.38842735  0.88868922
   0.64986289  0.45208605  0.54353843
   0.56562089  0.51985030  0.21145450
   0.50856359  0.51656906  0.88983678
   0.42308982  0.59003542  0.54432663
   0.28855363  0.15748092  0.89382465
   0.21954971  0.20755066  0.54753620
   0.14621880  0.25708593  0.20680616
   0.10711710  0.32133002  0.89419810
   0.98380211  0.33939693  0.57126231
   0.94498450  0.36426676  0.23510001
   0.84953203  0.41101899  0.89788609
   0.77524822  0.45266633  0.56459485
   0.70977843  0.50739352  0.22446736
   0.64384910  0.51356546  0.89358317
   0.58270040  0.58688315  0.55538665
   0.49149982  0.64029499  0.22137444
   0.37277140  0.21324913  0.55705875
   0.29567589  0.24391908  0.23550723
   0.26321456  0.29432810  0.90208293
   0.13683961  0.32285531  0.54972545
   0.07318733  0.36939005  0.23816418
   0.98987393  0.40171117  0.89812992
   0.93069300  0.47768146  0.58024224
   0.86595477  0.49144342  0.23968692
   0.78552958  0.53429207  0.89467066
   0.71180380  0.58999217  0.55992388
   0.65860458  0.62381766  0.22888031
   0.56652545  0.63623767  0.90216090
   0.43248247  0.26373411  0.21744816
   0.38135718  0.30292022  0.90354211
   0.27324185  0.34649897  0.55011198
   0.22218329  0.38846567  0.21378267
   0.16885859  0.42534557  0.90869561
   0.05346925  0.46156800  0.55704763
   0.00491047  0.50245355  0.22046199
   0.93011660  0.52822955  0.90872614
   0.83704628  0.56412706  0.54972809
   0.79952350  0.63362541  0.21005347
   0.71062054  0.65073176  0.88642302
   0.62718318  0.68868504  0.55679051
   0.14540273  0.49145165  0.23534880
   0.09158450  0.52132668  0.90176197
   0.01215175  0.62031125  0.56490383
   0.93817019  0.63214580  0.23227012
   0.86004384  0.65126639  0.89253455
   0.77077045  0.68452818  0.54638105
   0.70139610  0.75545157  0.20816614
   0.21939479  0.55090302  0.88512737
   0.12448851  0.58024502  0.53692286
   0.07833441  0.62085813  0.20481765
   0.00710242  0.65058706  0.88815152
   0.92349578  0.72461970  0.55219416
   0.84514637  0.75326979  0.21333839
   0.77288078  0.77589880  0.89052393
   0.29088586  0.58523245  0.56032497
   0.20620514  0.60707123  0.24153022
   0.13994726  0.66403407  0.88144376
   0.06725857  0.73133898  0.53071849
   0.99804143  0.74840730  0.21880069
   0.92802688  0.76375133  0.88032782
   0.86344117  0.84181080  0.56283476
   0.35866399  0.66660395  0.22846210
   0.27979715  0.65171274  0.89792137
   0.22649155  0.70749716  0.56202273
   0.12678535  0.75860135  0.21628959
   0.05489210  0.78233923  0.89115840
   0.00825043  0.83851370  0.57442177
   0.92036235  0.86806527  0.20454055
   0.44230735  0.65698285  0.90560039
   0.37013767  0.69604398  0.55028157
   0.26356877  0.74098222  0.23266087
   0.20523884  0.78112684  0.89209670
   0.13724626  0.83335437  0.53273230
   0.05979763  0.89203506  0.21300296
   0.01212202  0.90573384  0.88241739
   0.93787153  0.96642265  0.57051327
   0.84080049  0.98741617  0.20833536
   0.79789266  0.04902067  0.87574644
   0.73039049  0.09274652  0.55070605
   0.64409135  0.12448590  0.21371139
   0.57220880  0.14381650  0.88571723
   0.51750236  0.21491136  0.52074557
   0.07600335  0.96833337  0.55463599
   0.13437036  0.00877151  0.22308013
   0.22999618  0.05017110  0.87277912
   0.27534037  0.08445958  0.54666044
   0.36911528  0.12434352  0.21880667
   0.41753440  0.16452098  0.86672356
   0.86596474  0.89319488  0.89709323
   0.79401474  0.94844028  0.57437207
   0.71288116  0.98956090  0.21930821
   0.63779669  0.04832795  0.89385194
   0.57609164  0.06376194  0.55088392
   0.49421873  0.13029596  0.21094059
   0.15633791  0.91524836  0.89580385
   0.20538669  0.95944061  0.55826377
   0.27694170  0.00855175  0.23981812
   0.35972228  0.03484498  0.88828558
   0.42565656  0.08310527  0.54535017
   0.78164025  0.87343389  0.23389407
   0.73524103  0.90495551  0.89528222
   0.66107920  0.92673124  0.56380100
   0.58090961  0.99546251  0.21040043
   0.51220935  0.01843575  0.88746488
   0.19790488  0.88172141  0.20881157
   0.27088431  0.90487393  0.88158174
   0.32861534  0.96345669  0.54925675
   0.42151731  0.01047956  0.20890275
   0.71604717  0.81074511  0.58199440
   0.64499553  0.86854794  0.20863673
   0.58472251  0.90764840  0.89174341
   0.50103276  0.93625197  0.53369809
   0.30726119  0.84382900  0.56658121
   0.35094692  0.89759276  0.22908412
   0.42269581  0.90666840  0.88421657
   0.65206661  0.78733615  0.89523003
   0.57149578  0.81937877  0.56625187
   0.50267579  0.89401312  0.23013218
   0.35302001  0.77507865  0.89927549
   0.41472536  0.81936012  0.55464947
   0.56623106  0.74919877  0.22417462
   0.49873485  0.79152196  0.88442665
   0.40451197  0.77693042  0.21795905
   0.48325001  0.70024791  0.55583038
