 running on   64 total cores
 distrk:  each k-point on   32 cores,    2 groups
 distr:  one band on   32 cores,    1 groups
 vasp.6.2.1 16May21 (build Nov 23 2021 15:40:41) complex                        
  
 POSCAR found type information on POSCAR Li
 POSCAR found :  1 types and     504 ions
 scaLAPACK will be used
 -----------------------------------------------------------------------------
|                                                                             |
|           W    W    AA    RRRRR   N    N  II  N    N   GGGG   !!!           |
|           W    W   A  A   R    R  NN   N  II  NN   N  G    G  !!!           |
|           W    W  A    A  R    R  N N  N  II  N N  N  G       !!!           |
|           W WW W  AAAAAA  RRRRR   N  N N  II  N  N N  G  GGG   !            |
|           WW  WW  A    A  R   R   N   NN  II  N   NN  G    G                |
|           W    W  A    A  R    R  N    N  II  N    N   GGGG   !!!           |
|                                                                             |
|     For optimal performance we recommend to set                             |
|       NCORE = 2 up to number-of-cores-per-socket                            |
|     NCORE specifies how many cores store one orbital (NPAR=cpu/NCORE).      |
|     This setting can greatly improve the performance of VASP for DFT.       |
|     The default, NCORE=1 might be grossly inefficient on modern             |
|     multi-core architectures or massively parallel machines. Do your        |
|     own testing! More info at https://www.vasp.at/wiki/index.php/NCORE      |
|     Unfortunately you need to use the default for GW and RPA                |
|     calculations (for HF NCORE is supported but not extensively tested      |
|     yet).                                                                   |
|                                                                             |
 -----------------------------------------------------------------------------

 -----------------------------------------------------------------------------
|                                                                             |
|               ----> ADVICE to this user running VASP <----                  |
|                                                                             |
|     You have a (more or less) 'large supercell' and for larger cells it     |
|     might be more efficient to use real-space projection operators.         |
|     Therefore, try LREAL= Auto in the INCAR file.                           |
|     Mind: If you want to do very accurate calculations, keep the            |
|     reciprocal projection scheme (i.e. LREAL=.FALSE.).                      |
|                                                                             |
 -----------------------------------------------------------------------------

 LDA part: xc-table for Pade appr. of Perdew
 POSCAR found type information on POSCAR Li
 POSCAR found :  1 types and     504 ions
 POSCAR, INCAR and KPOINTS ok, starting setup
 FFT: planning ...
 WAVECAR not read
 entering main loop
       N       E                     dE             d eps       ncg     rms          rms(c)
DAV:   1    -0.345565332761E+03   -0.34557E+03   -0.11787E+05  4040   0.644E+02
DAV:   2    -0.900369881164E+03   -0.55480E+03   -0.50872E+03  4652   0.635E+01
DAV:   3    -0.939930022145E+03   -0.39560E+02   -0.36121E+02  5160   0.134E+01
DAV:   4    -0.941330819250E+03   -0.14008E+01   -0.13768E+01  4656   0.274E+00
DAV:   5    -0.941362356522E+03   -0.31537E-01   -0.31470E-01  4840   0.443E-01    0.646E+00
DAV:   6    -0.937003204320E+03    0.43592E+01   -0.48141E+00  4480   0.218E+00    0.382E+00
DAV:   7    -0.937499074925E+03   -0.49587E+00   -0.34596E+00  4544   0.240E+00    0.381E+00
DAV:   8    -0.935650832378E+03    0.18482E+01   -0.24357E+00  4536   0.175E+00    0.201E+00
DAV:   9    -0.935368219186E+03    0.28261E+00   -0.12160E+00  4528   0.959E-01    0.123E+00
DAV:  10    -0.935388855644E+03   -0.20636E-01   -0.52128E-01  4624   0.726E-01    0.109E+00
DAV:  11    -0.935270201453E+03    0.11865E+00   -0.23188E-01  4560   0.461E-01    0.520E-01
DAV:  12    -0.935282207573E+03   -0.12006E-01   -0.50588E-02  4656   0.259E-01    0.469E-01
DAV:  13    -0.935259646182E+03    0.22561E-01   -0.32854E-02  4600   0.204E-01    0.227E-01
DAV:  14    -0.935258794724E+03    0.85146E-03   -0.99498E-03  4512   0.104E-01    0.141E-01
DAV:  15    -0.935258725633E+03    0.69091E-04   -0.46183E-03  4560   0.825E-02    0.116E-01
DAV:  16    -0.935256997018E+03    0.17286E-02   -0.19549E-03  4552   0.536E-02    0.501E-02
DAV:  17    -0.935257058439E+03   -0.61421E-04   -0.55567E-04  4584   0.289E-02    0.421E-02
DAV:  18    -0.935256827119E+03    0.23132E-03   -0.34486E-04  4528   0.225E-02    0.195E-02
DAV:  19    -0.935256798962E+03    0.28157E-04   -0.12373E-04  4408   0.108E-02    0.108E-02
DAV:  20    -0.935256789596E+03    0.93659E-05   -0.43012E-05  4296   0.624E-03
   1 F= -.93525679E+03 E0= -.93518262E+03  d E =-.148343E+00
