Li                                      
           1
   -11.179105   19.362778   -0.000000
   -19.164180  -11.064444   -0.000000
     0.000000   -0.000000   23.447950
   Li
   504
Direct configuration=     1
   0.00105429  0.99880941  0.99837926
   0.93890024  0.03735347  0.67205864
   0.85892079  0.08556268  0.33957512
   0.78198255  0.11424119  0.01186594
   0.72158145  0.16300979  0.65602143
   0.64514073  0.21358637  0.33035350
   0.57125883  0.23719397  0.98639546
   0.49107716  0.30773607  0.64273631
   0.42453112  0.33570845  0.31834518
   0.35639190  0.37445149  0.99814281
   0.28260575  0.41184750  0.64367348
   0.21705378  0.45409830  0.33578358
   0.07505711  0.02894984  0.67275723
   0.00257405  0.08599699  0.33742822
   0.92408094  0.12925520  0.99965752
   0.85505906  0.16373199  0.66800364
   0.77560219  0.21962440  0.34984797
   0.72162107  0.24278703  0.98444342
   0.64697145  0.29338525  0.65118835
   0.57134404  0.34498885  0.31715295
   0.50349021  0.38146533  0.99660668
   0.42651375  0.42174618  0.65548648
   0.35361523  0.46783150  0.33484795
   0.28580545  0.49137268  0.99523317
   0.14465580  0.07917414  0.34204524
   0.07314250  0.11628500  0.00639192
   0.01105883  0.16186216  0.68460213
   0.93569385  0.21812549  0.35005216
   0.85688388  0.23522491  0.99550335
   0.78628921  0.28723576  0.65086657
   0.71155746  0.34574976  0.33577241
   0.63993836  0.37059145  0.98595566
   0.56488905  0.41955767  0.66545420
   0.50227578  0.46670026  0.32946741
   0.43138054  0.49609978  0.98210226
   0.34783546  0.53982803  0.66406910
   0.20757745  0.12525713  0.01173697
   0.14978829  0.15763685  0.67759763
   0.07315214  0.21511630  0.33840022
   0.00418194  0.25001643  0.99363463
   0.92958089  0.29588925  0.66159809
   0.85979168  0.34536645  0.34412404
   0.79049806  0.37111022  0.98549444
   0.70927501  0.42757617  0.67471373
   0.64953149  0.46545046  0.32985464
   0.57388539  0.50027902  0.99039703
   0.49525304  0.53852894  0.65851441
   0.43096265  0.58455802  0.32709212
   0.28614072  0.16378801  0.66646372
   0.22028459  0.20698604  0.33361655
   0.15034379  0.24638901  0.01388937
   0.07248204  0.29145621  0.66116057
   0.99488855  0.33245450  0.34258799
   0.93622986  0.37909756  0.00165057
   0.85304218  0.42268467  0.65759740
   0.78895936  0.46049646  0.33118604
   0.72815105  0.49075184  0.99362565
   0.64520953  0.53961043  0.66766133
   0.56495030  0.59213331  0.31695409
   0.50864188  0.62348548  0.98325462
   0.36135339  0.21200300  0.33286738
   0.28413494  0.24782619  0.00131356
   0.21061848  0.28807757  0.67317153
   0.13891669  0.33714667  0.34411500
   0.07201980  0.36571253  0.99718747
   0.99375214  0.41695821  0.66835593
   0.93002899  0.45808649  0.33613960
   0.85848515  0.50038555  0.98488290
   0.78975546  0.54491178  0.66583467
   0.70530688  0.57986387  0.33750164
   0.64743196  0.62551576  0.99884964
   0.56806392  0.66641832  0.66911900
   0.41503721  0.25008509  0.99458393
   0.35486641  0.29783281  0.66098062
   0.28444288  0.33661597  0.33575390
   0.21215578  0.37117281  0.00765118
   0.14777537  0.41346230  0.67051734
   0.06799302  0.46293818  0.34130217
   0.00212693  0.50200188  0.00093772
   0.92930372  0.53653069  0.66637492
   0.86808942  0.57873868  0.33763360
   0.79221277  0.62070395  0.98380483
   0.70875241  0.66980079  0.66810798
   0.63661441  0.71267903  0.33453531
   0.14679138  0.48659240  0.00247103
   0.06647627  0.54395431  0.66316137
   0.99437793  0.58887323  0.32372732
   0.91895287  0.62274291  0.00294324
   0.85501238  0.67484707  0.67163744
   0.78920623  0.70365640  0.33771521
   0.72547931  0.75359405  0.99358317
   0.20727133  0.53629919  0.66734366
   0.14825413  0.58119970  0.33366839
   0.06093822  0.62336721  0.99783380
   0.00705118  0.66478346  0.66264215
   0.93567101  0.70635959  0.35916614
   0.85875288  0.74470957  0.00760220
   0.79508089  0.79393740  0.67349611
   0.28756422  0.58006593  0.33750735
   0.21478278  0.62826788  0.00138440
   0.14176933  0.66196632  0.67034250
   0.07189883  0.69716858  0.34032720
   0.00338829  0.73716428  0.01801539
   0.93300287  0.79427769  0.66645216
   0.85611627  0.83321299  0.34351770
   0.35606453  0.62549300  0.99575464
   0.28692727  0.65470577  0.66978406
   0.21172036  0.69690906  0.31642289
   0.13862421  0.74712469  0.00381097
   0.07631099  0.78602130  0.66821735
   0.99320531  0.82875886  0.34240294
   0.92832901  0.87211175  0.01763484
   0.41804485  0.65901592  0.65885600
   0.35268737  0.70043269  0.32437576
   0.28540959  0.75567086  0.99656535
   0.21311182  0.78557098  0.67648255
   0.14578733  0.82347766  0.33709311
   0.07639889  0.87071272  0.00161285
   0.00956691  0.91688719  0.66978498
   0.93639584  0.95991387  0.33317150
   0.85951729  0.00139389  0.01443774
   0.79709593  0.04179045  0.67533634
   0.69967054  0.09360200  0.32762027
   0.64836998  0.11908612  0.99295981
   0.56329056  0.16403699  0.65301847
   0.50546362  0.20935359  0.33547882
   0.07837271  0.95892117  0.33395591
   0.14408973  0.00187270  0.00190899
   0.21634178  0.03871384  0.67182846
   0.29336957  0.07958348  0.35155225
   0.34257560  0.12711134  0.00356349
   0.42413855  0.17012619  0.64912583
   0.86056712  0.91787926  0.67174561
   0.78195546  0.96628952  0.33241159
   0.71468544  0.99194303  0.00376896
   0.63835303  0.03766688  0.65028513
   0.56644624  0.07767820  0.32089507
   0.50213279  0.12641601  0.99796873
   0.14281010  0.91484630  0.66416221
   0.21673992  0.95447166  0.32153090
   0.28682094  0.99634204  0.00060416
   0.36718882  0.03898466  0.67579188
   0.42215300  0.08504770  0.32632485
   0.78310334  0.87160913  0.98659019
   0.70660993  0.91661891  0.66844618
   0.63920661  0.96081919  0.33397929
   0.57143076  0.00100767  0.99605059
   0.49874912  0.04340445  0.65929624
   0.21261917  0.87181251  0.00108365
   0.28871070  0.91306246  0.68100991
   0.35329592  0.94087176  0.33125619
   0.41961095  0.99985369  0.00825723
   0.71128434  0.84143658  0.33617691
   0.64979430  0.86621761  0.00256671
   0.57362263  0.91834175  0.66482242
   0.49241309  0.95530392  0.32251970
   0.28529019  0.82236978  0.32519059
   0.36014438  0.88646364  0.00844308
   0.43737548  0.90902447  0.65377378
   0.63675979  0.79801843  0.66945455
   0.56467279  0.83517169  0.32718765
   0.49835183  0.87803058  0.99413754
   0.35671742  0.78448722  0.66986230
   0.41934522  0.83907128  0.32250059
   0.57482973  0.75390132  0.99091052
   0.49555197  0.78417616  0.67230949
   0.43260236  0.75336398  0.98853118
   0.49259307  0.70412801  0.33426975
   0.01089900  0.99419794  0.78447269
   0.92083216  0.03187557  0.43225737
   0.84599187  0.07565197  0.11288544
   0.77353088  0.12655705  0.78751744
   0.71592886  0.16560579  0.44427148
   0.64543551  0.21861611  0.11147809
   0.57378014  0.24964954  0.75096794
   0.50016431  0.28555143  0.43088265
   0.42400925  0.33151970  0.10391611
   0.35465871  0.36809332  0.76807456
   0.28787120  0.41837034  0.43790067
   0.21854144  0.46768684  0.11287958
   0.07037991  0.05432226  0.44617923
   0.99576306  0.09343322  0.12033023
   0.93003482  0.12968530  0.79532770
   0.84001056  0.16163450  0.44547281
   0.78623977  0.21015215  0.10867112
   0.71588346  0.25250297  0.75714619
   0.63959361  0.29116442  0.43021740
   0.56670708  0.33655385  0.09586705
   0.51024000  0.37626583  0.76765150
   0.43427708  0.42075481  0.43860394
   0.35349137  0.46394956  0.10198296
   0.28241953  0.49440388  0.77703034
   0.14427589  0.08338296  0.12243798
   0.07326388  0.12712493  0.79054767
   0.99578380  0.16129840  0.45653176
   0.93168742  0.20317036  0.11418227
   0.85052526  0.26257982  0.76896673
   0.78048673  0.27174621  0.45389612
   0.72400941  0.34157684  0.08934726
   0.64458180  0.38129392  0.76207276
   0.57034311  0.41470084  0.44246158
   0.49669821  0.46193118  0.10660055
   0.42905988  0.49886679  0.76705770
   0.36241090  0.53573500  0.44354102
   0.20860526  0.13480845  0.78468254
   0.14549499  0.16860306  0.45568348
   0.07712922  0.20754659  0.11335025
   0.99536157  0.24856334  0.78455846
   0.93569138  0.28418696  0.45276088
   0.86976539  0.33666253  0.10916212
   0.79144078  0.38383119  0.76526104
   0.72024012  0.39728224  0.43198271
   0.63592412  0.45062034  0.11122026
   0.57460961  0.48757691  0.77444507
   0.49050247  0.53537513  0.44039072
   0.43112380  0.57928925  0.10093262
   0.28992252  0.15886524  0.43477705
   0.21265767  0.20651450  0.11175946
   0.13501029  0.26453817  0.79119184
   0.06881704  0.27662007  0.46240008
   0.00327727  0.33477650  0.11350069
   0.92513838  0.38782661  0.78159147
   0.86063356  0.40521111  0.44924133
   0.77167545  0.47129729  0.10657610
   0.71829035  0.49907908  0.77463161
   0.64297683  0.53788132  0.44193853
   0.57832734  0.57931278  0.11157524
   0.50194407  0.62304480  0.79292884
   0.36277581  0.21241309  0.10837028
   0.27891637  0.23864954  0.79760771
   0.20964374  0.28341102  0.43812855
   0.14470701  0.32900685  0.12099408
   0.06605682  0.36493055  0.78383367
   0.98548260  0.42468956  0.45684361
   0.92015710  0.46347272  0.10556722
   0.86973730  0.51040634  0.77678980
   0.77595297  0.53696778  0.43593393
   0.71480203  0.58764190  0.10409355
   0.64948205  0.61444027  0.78102627
   0.56495086  0.66846252  0.44555313
   0.43392797  0.25367958  0.76884653
   0.35413309  0.28970483  0.44376413
   0.28248633  0.33564052  0.11530761
   0.21745972  0.37169524  0.79366150
   0.13434957  0.41491359  0.45954165
   0.07698130  0.45429038  0.11389245
   0.00113291  0.51134511  0.77323370
   0.92412712  0.55004743  0.43665251
   0.84900995  0.58311875  0.11756436
   0.78955806  0.62440603  0.77259128
   0.71488424  0.66457815  0.44935254
   0.63684778  0.70076707  0.10764037
   0.13710162  0.49895585  0.78521704
   0.06320382  0.53835946  0.43861270
   0.99476151  0.58164533  0.11098366
   0.93687045  0.62789194  0.78052245
   0.86380005  0.66662234  0.44551821
   0.76999610  0.71445303  0.11391841
   0.71322405  0.75287425  0.78508855
   0.21666012  0.53806506  0.44061794
   0.13833750  0.58151414  0.11110625
   0.07749416  0.62607989  0.77696880
   0.99884370  0.67964097  0.45286169
   0.93007021  0.70212876  0.12089185
   0.86019457  0.75767554  0.78121097
   0.78818479  0.78903250  0.44349611
   0.28246285  0.57190625  0.10778108
   0.21943692  0.62363811  0.78862854
   0.13533471  0.66159794  0.44692832
   0.08045234  0.70199773  0.12043761
   0.01248053  0.74729996  0.77706057
   0.93585974  0.79515366  0.45315168
   0.86353976  0.82749421  0.11487210
   0.36192943  0.62473493  0.78063857
   0.27834960  0.66643456  0.42893891
   0.22041911  0.68474497  0.11757824
   0.14079493  0.74365659  0.77655205
   0.08277005  0.80707990  0.44559771
   0.01398558  0.83513810  0.13127337
   0.93578224  0.87578744  0.78260794
   0.42810711  0.67400097  0.43331623
   0.36036488  0.71133837  0.10844310
   0.28012668  0.74937365  0.77707639
   0.21682421  0.79471019  0.43877633
   0.15469139  0.82169411  0.11033862
   0.07477183  0.87457503  0.78752890
   0.99557392  0.93599281  0.43721586
   0.93271023  0.95030840  0.11742628
   0.86066201  0.00296697  0.79649309
   0.78820564  0.04323545  0.43574858
   0.71249857  0.08700753  0.10950294
   0.64284810  0.12064090  0.77860298
   0.56646251  0.15526836  0.44991047
   0.49613601  0.21734581  0.11225689
   0.07879486  0.94812590  0.11388751
   0.14244423  0.01389262  0.78074799
   0.21076039  0.03594319  0.45834981
   0.29187918  0.08390019  0.11383755
   0.35903797  0.11303519  0.77837270
   0.41898415  0.15826868  0.43683426
   0.85247432  0.91427922  0.45729766
   0.78854974  0.95690458  0.10693132
   0.71183057  0.00187014  0.77142623
   0.63620764  0.04314578  0.43637125
   0.56955017  0.08179249  0.09992490
   0.49480531  0.13005634  0.77608870
   0.14609036  0.91982088  0.44486988
   0.21978955  0.95767158  0.11031594
   0.27453995  0.00067533  0.79708492
   0.35539300  0.03807508  0.44667011
   0.43083582  0.08347087  0.11167739
   0.79132796  0.88113184  0.78617775
   0.71375056  0.92499714  0.44147199
   0.64491000  0.96451305  0.10819499
   0.56608074  0.00557980  0.77499671
   0.49738122  0.04492892  0.44430814
   0.20452080  0.86119408  0.78277179
   0.29363942  0.91999876  0.44356247
   0.36506445  0.94270508  0.10941661
   0.43000639  0.99650536  0.76761721
   0.71307290  0.84105768  0.10413889
   0.63420929  0.88290220  0.78264476
   0.57112133  0.91328358  0.44605295
   0.49147382  0.96058925  0.11479527
   0.28266096  0.82554501  0.10622210
   0.34458366  0.87108745  0.78185437
   0.41897376  0.91952083  0.44162219
   0.64175470  0.80352874  0.46004896
   0.57292871  0.82879199  0.10433615
   0.50416961  0.87488241  0.77867687
   0.36278621  0.79322253  0.45363615
   0.43412542  0.82700838  0.11875913
   0.56682249  0.74177114  0.78592595
   0.50888177  0.81147447  0.44039062
   0.43301806  0.76058257  0.78085746
   0.51438682  0.69469761  0.10276078
   0.00102896  0.99106163  0.23029579
   0.92187707  0.06249798  0.91038845
   0.86581703  0.08434508  0.56177406
   0.79297796  0.12998028  0.23876190
   0.71058185  0.16944446  0.86944634
   0.65355820  0.21311286  0.53954550
   0.56312029  0.25891053  0.21709218
   0.49642598  0.28557011  0.87242710
   0.42276787  0.33450218  0.52173707
   0.35706106  0.37349798  0.22241525
   0.28451068  0.42091829  0.87818032
   0.21859150  0.45845944  0.56818690
   0.07237135  0.05346731  0.90924481
   0.00575909  0.07921992  0.56455852
   0.92684853  0.11902508  0.23280703
   0.84790640  0.18247337  0.89726419
   0.77800342  0.20597635  0.55601732
   0.72214424  0.25099081  0.21701873
   0.63284854  0.28349002  0.87895692
   0.56740707  0.33429212  0.53462189
   0.51544117  0.37225583  0.20213082
   0.43241116  0.42198832  0.87109398
   0.35916257  0.46197523  0.53340595
   0.29522754  0.48778155  0.22538680
   0.14259668  0.09625413  0.56805003
   0.06576176  0.11945120  0.23075742
   0.98671647  0.16598712  0.89092290
   0.92346820  0.21599799  0.56041168
   0.86761653  0.24306754  0.21066156
   0.77832101  0.29747076  0.87940981
   0.72337283  0.33725616  0.54317696
   0.66622698  0.37539257  0.20873961
   0.56499766  0.41136236  0.88041876
   0.49343544  0.45723177  0.55586057
   0.44189876  0.48684051  0.22617098
   0.35715920  0.52960351  0.87270417
   0.21743208  0.12321763  0.22859525
   0.13748135  0.17269457  0.88959403
   0.07229045  0.21225595  0.56511306
   0.00631922  0.23093656  0.22578529
   0.92258160  0.30189881  0.88791459
   0.86873330  0.34979121  0.56354157
   0.79380057  0.36716360  0.21794432
   0.69180159  0.41353496  0.87324986
   0.63813774  0.45379288  0.55222599
   0.57044804  0.50265126  0.20938419
   0.49985191  0.53847844  0.88525973
   0.42838625  0.58819317  0.54904351
   0.28732376  0.16581672  0.89960925
   0.22173628  0.20899732  0.56437835
   0.14513818  0.24796688  0.22661892
   0.07052854  0.29441713  0.88772548
   0.00018321  0.33662444  0.55628258
   0.93898535  0.37319111  0.23201349
   0.84672165  0.42539534  0.88105688
   0.77692362  0.45991986  0.55611250
   0.71231117  0.50290088  0.22097750
   0.63473351  0.53821164  0.87500761
   0.56809957  0.58662321  0.54677502
   0.49452109  0.62696622  0.21880677
   0.35722965  0.20697193  0.54492017
   0.28958378  0.25635778  0.22057991
   0.21455711  0.29721807  0.89730909
   0.14613284  0.32827275  0.55971162
   0.06919536  0.37627608  0.21898505
   0.99419154  0.42603008  0.88925833
   0.93305823  0.47995259  0.56207692
   0.86392367  0.49877856  0.22946764
   0.77541826  0.54325606  0.87607226
   0.71146633  0.58889474  0.55751635
   0.64250477  0.62307739  0.22152663
   0.56322579  0.67439104  0.89272006
   0.42255462  0.26168933  0.21679674
   0.35917324  0.29843121  0.88487283
   0.28566344  0.32632251  0.54984045
   0.21346070  0.37515357  0.23694675
   0.14995731  0.42463415  0.88816891
   0.08035880  0.46825227  0.55506403
   0.00981084  0.49664910  0.21930936
   0.92707505  0.53793064  0.88480290
   0.85196218  0.58616471  0.54752841
   0.79356656  0.63077286  0.22563049
   0.70916021  0.66272792  0.87092306
   0.65400934  0.71283082  0.56467545
   0.15307988  0.50288637  0.23448792
   0.07239610  0.53586367  0.90074730
   0.00436820  0.59145891  0.55824887
   0.93262476  0.62664880  0.22699440
   0.86056452  0.66787495  0.89401692
   0.78268011  0.70819370  0.56593555
   0.70577126  0.74882071  0.23324275
   0.20846929  0.53376803  0.88483925
   0.14753832  0.58668835  0.54633231
   0.07118336  0.63441782  0.21523795
   0.00063601  0.66897603  0.89107145
   0.93040971  0.72514397  0.55241327
   0.85281596  0.74786877  0.23236129
   0.78099497  0.78506331  0.88718243
   0.28851802  0.58604840  0.54527393
   0.22163166  0.62833671  0.23024020
   0.14406589  0.68398769  0.88893738
   0.07505916  0.72145344  0.54978497
   0.99423103  0.75368600  0.22581096
   0.93980425  0.79514595  0.89519619
   0.86000478  0.83584387  0.55581289
   0.36913418  0.62592919  0.20997470
   0.28029593  0.65652035  0.89176958
   0.21889584  0.71285008  0.55853293
   0.13884671  0.75099195  0.22353414
   0.07359285  0.80846529  0.91066293
   0.99629181  0.85109605  0.54784146
   0.92401946  0.87073171  0.23669673
   0.42452099  0.66302810  0.89161896
   0.34885618  0.70554557  0.55347699
   0.28006114  0.74750633  0.22064524
   0.21663722  0.78665703  0.88177450
   0.14071912  0.84864945  0.54655781
   0.07338932  0.87003711  0.23646590
   0.00901441  0.93002347  0.89692736
   0.91994496  0.96264150  0.56618614
   0.87247054  0.00112757  0.21388008
   0.78212903  0.04511612  0.89933335
   0.71458411  0.07321465  0.55956898
   0.64037579  0.12255059  0.23003183
   0.56016985  0.15963171  0.88508549
   0.49007187  0.21362688  0.53917297
   0.07072469  0.97573458  0.54922273
   0.14125619  0.00576148  0.23532953
   0.21295229  0.04112996  0.90854443
   0.28323210  0.07761498  0.56077013
   0.36698372  0.13455839  0.22043385
   0.42134026  0.16653120  0.88845118
   0.86803305  0.91064631  0.91830997
   0.80190280  0.94339923  0.56233280
   0.70452376  0.99727356  0.22481644
   0.65138162  0.03526316  0.88219052
   0.56481650  0.09136198  0.54996552
   0.49970984  0.12831981  0.22017136
   0.14020794  0.91992707  0.89662654
   0.20737062  0.95559855  0.56954286
   0.28290158  0.99873447  0.21067475
   0.35418315  0.02279756  0.90159909
   0.42166387  0.07806131  0.55075102
   0.77811239  0.85862541  0.23076716
   0.71777688  0.91987357  0.88863659
   0.64879510  0.96658603  0.54662471
   0.56016951  0.99280602  0.22810901
   0.49580415  0.04673361  0.89846227
   0.21090671  0.86575545  0.21717408
   0.27698387  0.91258781  0.90930804
   0.34604547  0.95648998  0.56044846
   0.42002245  0.01067663  0.22408281
   0.71971925  0.82915837  0.56417436
   0.63741842  0.86827999  0.22407356
   0.57080737  0.92354526  0.88712060
   0.51423496  0.96543998  0.55061436
   0.28309372  0.84507164  0.56404267
   0.36063029  0.87087369  0.22353567
   0.43774754  0.90449025  0.89263741
   0.63178940  0.79367617  0.88300598
   0.57747445  0.84572389  0.57078363
   0.49823380  0.86585688  0.23052933
   0.34564153  0.79221512  0.88136635
   0.43051142  0.82752647  0.56904453
   0.57546254  0.74185860  0.21106779
   0.50497472  0.79168379  0.88100518
   0.43762743  0.75170093  0.21918966
   0.50782904  0.71569375  0.56220454
