 504 504   0   0
  0.2301818E+02  0.2235821E-08  0.2212889E-08  0.2344795E-08  0.5000000E-15
  1.000000000000000E-004
  CAR 
 Li                                      
      2.87474088     -3.57157132  301      0.08825643      1.00000000
     -3.572  0.0000E+00  0.0000E+00
     -3.550  0.0000E+00  0.0000E+00
     -3.529  0.0000E+00  0.0000E+00
     -3.507  0.0000E+00  0.0000E+00
     -3.486  0.0000E+00  0.0000E+00
     -3.464  0.0000E+00  0.0000E+00
     -3.443  0.3358E-13  0.7216E-15
     -3.421  0.8050E-10  0.1731E-11
     -3.400  0.7089E-07  0.1525E-08
     -3.378  0.2290E-04  0.4937E-06
     -3.357  0.2734E-02  0.5924E-04
     -3.335  0.1217E+00  0.2674E-02
     -3.314  0.2044E+01  0.4660E-01
     -3.292  0.1312E+02  0.3286E+00
     -3.271  0.3258E+02  0.1029E+01
     -3.249  0.3152E+02  0.1706E+01
     -3.228  0.1230E+02  0.1970E+01
     -3.206  0.7395E+01  0.2129E+01
     -3.185  0.3165E+02  0.2809E+01
     -3.163  0.7990E+02  0.4526E+01
     -3.142  0.9523E+02  0.6572E+01
     -3.120  0.5259E+02  0.7703E+01
     -3.099  0.1551E+02  0.8036E+01
     -3.077  0.2300E+02  0.8530E+01
     -3.056  0.6893E+02  0.1001E+02
     -3.034  0.9680E+02  0.1209E+02
     -3.013  0.6521E+02  0.1349E+02
     -2.991  0.2736E+02  0.1408E+02
     -2.970  0.3293E+02  0.1479E+02
     -2.948  0.7100E+02  0.1631E+02
     -2.927  0.1059E+03  0.1859E+02
     -2.905  0.9932E+02  0.2072E+02
     -2.884  0.5584E+02  0.2192E+02
     -2.862  0.4821E+02  0.2296E+02
     -2.841  0.8867E+02  0.2486E+02
     -2.820  0.1299E+03  0.2765E+02
     -2.798  0.1465E+03  0.3080E+02
     -2.777  0.1058E+03  0.3308E+02
     -2.755  0.4942E+02  0.3414E+02
     -2.734  0.4183E+02  0.3504E+02
     -2.712  0.6285E+02  0.3639E+02
     -2.691  0.8092E+02  0.3813E+02
     -2.669  0.7173E+02  0.3967E+02
     -2.648  0.5680E+02  0.4089E+02
     -2.626  0.6882E+02  0.4237E+02
     -2.605  0.9799E+02  0.4447E+02
     -2.583  0.1257E+03  0.4717E+02
     -2.562  0.1299E+03  0.4996E+02
     -2.540  0.1065E+03  0.5225E+02
     -2.519  0.1052E+03  0.5451E+02
     -2.497  0.1320E+03  0.5735E+02
     -2.476  0.1596E+03  0.6078E+02
     -2.454  0.1761E+03  0.6456E+02
     -2.433  0.1543E+03  0.6788E+02
     -2.411  0.9670E+02  0.6996E+02
     -2.390  0.5990E+02  0.7124E+02
     -2.368  0.5467E+02  0.7242E+02
     -2.347  0.6962E+02  0.7391E+02
     -2.325  0.7274E+02  0.7548E+02
     -2.304  0.6970E+02  0.7697E+02
     -2.282  0.9837E+02  0.7909E+02
     -2.261  0.1328E+03  0.8194E+02
     -2.239  0.1538E+03  0.8525E+02
     -2.218  0.1482E+03  0.8843E+02
     -2.196  0.1217E+03  0.9104E+02
     -2.175  0.1092E+03  0.9339E+02
     -2.153  0.1325E+03  0.9624E+02
     -2.132  0.1574E+03  0.9962E+02
     -2.110  0.1755E+03  0.1034E+03
     -2.089  0.1790E+03  0.1072E+03
     -2.067  0.1382E+03  0.1102E+03
     -2.046  0.7350E+02  0.1118E+03
     -2.024  0.5524E+02  0.1130E+03
     -2.003  0.9966E+02  0.1151E+03
     -1.981  0.1437E+03  0.1182E+03
     -1.960  0.1461E+03  0.1213E+03
     -1.939  0.1417E+03  0.1244E+03
     -1.917  0.1563E+03  0.1277E+03
     -1.896  0.1724E+03  0.1314E+03
     -1.874  0.1799E+03  0.1353E+03
     -1.853  0.1665E+03  0.1389E+03
     -1.831  0.1366E+03  0.1418E+03
     -1.810  0.1256E+03  0.1445E+03
     -1.788  0.1412E+03  0.1476E+03
     -1.767  0.1638E+03  0.1511E+03
     -1.745  0.1735E+03  0.1548E+03
     -1.724  0.1483E+03  0.1580E+03
     -1.702  0.1153E+03  0.1605E+03
     -1.681  0.1135E+03  0.1629E+03
     -1.659  0.1159E+03  0.1654E+03
     -1.638  0.1028E+03  0.1676E+03
     -1.616  0.9511E+02  0.1697E+03
     -1.595  0.1117E+03  0.1721E+03
     -1.573  0.1471E+03  0.1752E+03
     -1.552  0.1626E+03  0.1787E+03
     -1.530  0.1626E+03  0.1822E+03
     -1.509  0.1748E+03  0.1860E+03
     -1.487  0.1775E+03  0.1898E+03
     -1.466  0.1704E+03  0.1934E+03
     -1.444  0.1859E+03  0.1974E+03
     -1.423  0.2205E+03  0.2022E+03
     -1.401  0.2383E+03  0.2073E+03
     -1.380  0.2174E+03  0.2120E+03
     -1.358  0.1884E+03  0.2160E+03
     -1.337  0.1805E+03  0.2199E+03
     -1.315  0.1758E+03  0.2237E+03
     -1.294  0.1646E+03  0.2272E+03
     -1.272  0.1408E+03  0.2302E+03
     -1.251  0.1085E+03  0.2326E+03
     -1.229  0.1178E+03  0.2351E+03
     -1.208  0.1575E+03  0.2385E+03
     -1.186  0.1710E+03  0.2421E+03
     -1.165  0.1624E+03  0.2456E+03
     -1.143  0.1598E+03  0.2491E+03
     -1.122  0.1733E+03  0.2528E+03
     -1.100  0.2037E+03  0.2572E+03
     -1.079  0.2123E+03  0.2617E+03
     -1.058  0.1864E+03  0.2657E+03
     -1.036  0.1526E+03  0.2690E+03
     -1.015  0.1241E+03  0.2717E+03
     -0.993  0.1267E+03  0.2744E+03
     -0.972  0.1627E+03  0.2779E+03
     -0.950  0.1807E+03  0.2818E+03
     -0.929  0.1770E+03  0.2856E+03
     -0.907  0.1764E+03  0.2894E+03
     -0.886  0.1843E+03  0.2933E+03
     -0.864  0.2119E+03  0.2979E+03
     -0.843  0.2420E+03  0.3031E+03
     -0.821  0.2353E+03  0.3081E+03
     -0.800  0.2056E+03  0.3126E+03
     -0.778  0.2001E+03  0.3169E+03
     -0.757  0.2276E+03  0.3218E+03
     -0.735  0.2562E+03  0.3273E+03
     -0.714  0.2508E+03  0.3326E+03
     -0.692  0.2106E+03  0.3372E+03
     -0.671  0.1645E+03  0.3407E+03
     -0.649  0.1516E+03  0.3440E+03
     -0.628  0.1743E+03  0.3477E+03
     -0.606  0.1875E+03  0.3517E+03
     -0.585  0.1785E+03  0.3556E+03
     -0.563  0.1683E+03  0.3592E+03
     -0.542  0.1767E+03  0.3630E+03
     -0.520  0.1961E+03  0.3672E+03
     -0.499  0.2065E+03  0.3716E+03
     -0.477  0.1987E+03  0.3759E+03
     -0.456  0.1959E+03  0.3801E+03
     -0.434  0.2102E+03  0.3846E+03
     -0.413  0.2218E+03  0.3894E+03
     -0.391  0.2349E+03  0.3944E+03
     -0.370  0.2633E+03  0.4001E+03
     -0.348  0.2784E+03  0.4061E+03
     -0.327  0.2587E+03  0.4116E+03
     -0.305  0.2291E+03  0.4166E+03
     -0.284  0.2092E+03  0.4211E+03
     -0.262  0.2098E+03  0.4256E+03
     -0.241  0.2291E+03  0.4305E+03
     -0.219  0.2250E+03  0.4353E+03
     -0.198  0.2121E+03  0.4399E+03
     -0.177  0.2223E+03  0.4447E+03
     -0.155  0.2241E+03  0.4495E+03
     -0.134  0.2100E+03  0.4540E+03
     -0.112  0.1951E+03  0.4582E+03
     -0.091  0.1813E+03  0.4621E+03
     -0.069  0.1835E+03  0.4660E+03
     -0.048  0.2049E+03  0.4704E+03
     -0.026  0.2197E+03  0.4751E+03
     -0.005  0.2212E+03  0.4799E+03
      0.017  0.2282E+03  0.4848E+03
      0.038  0.2448E+03  0.4901E+03
      0.060  0.2691E+03  0.4958E+03
      0.081  0.2853E+03  0.5020E+03
      0.103  0.2970E+03  0.5084E+03
      0.124  0.3056E+03  0.5149E+03
      0.146  0.3083E+03  0.5215E+03
      0.167  0.3085E+03  0.5282E+03
      0.189  0.3084E+03  0.5348E+03
      0.210  0.3031E+03  0.5413E+03
      0.232  0.2866E+03  0.5475E+03
      0.253  0.2737E+03  0.5534E+03
      0.275  0.2753E+03  0.5593E+03
      0.296  0.2775E+03  0.5652E+03
      0.318  0.2697E+03  0.5710E+03
      0.339  0.2584E+03  0.5766E+03
      0.361  0.2467E+03  0.5819E+03
      0.382  0.2265E+03  0.5867E+03
      0.404  0.2092E+03  0.5912E+03
      0.425  0.2180E+03  0.5959E+03
      0.447  0.2358E+03  0.6010E+03
      0.468  0.2331E+03  0.6060E+03
      0.490  0.2133E+03  0.6106E+03
      0.511  0.1988E+03  0.6149E+03
      0.533  0.2044E+03  0.6192E+03
      0.554  0.2228E+03  0.6240E+03
      0.576  0.2317E+03  0.6290E+03
      0.597  0.2202E+03  0.6337E+03
      0.619  0.2116E+03  0.6383E+03
      0.640  0.2303E+03  0.6432E+03
      0.662  0.2594E+03  0.6488E+03
      0.683  0.2755E+03  0.6547E+03
      0.704  0.2779E+03  0.6607E+03
      0.726  0.2712E+03  0.6665E+03
      0.747  0.2657E+03  0.6722E+03
      0.769  0.2641E+03  0.6779E+03
      0.790  0.2554E+03  0.6834E+03
      0.812  0.2427E+03  0.6886E+03
      0.833  0.2371E+03  0.6937E+03
      0.855  0.2366E+03  0.6988E+03
      0.876  0.2417E+03  0.7040E+03
      0.898  0.2469E+03  0.7093E+03
      0.919  0.2383E+03  0.7144E+03
      0.941  0.2278E+03  0.7193E+03
      0.962  0.2252E+03  0.7242E+03
      0.984  0.2227E+03  0.7289E+03
      1.005  0.2240E+03  0.7338E+03
      1.027  0.2234E+03  0.7386E+03
      1.048  0.2163E+03  0.7432E+03
      1.070  0.2265E+03  0.7481E+03
      1.091  0.2466E+03  0.7534E+03
      1.113  0.2538E+03  0.7588E+03
      1.134  0.2503E+03  0.7642E+03
      1.156  0.2474E+03  0.7695E+03
      1.177  0.2433E+03  0.7747E+03
      1.199  0.2367E+03  0.7798E+03
      1.220  0.2344E+03  0.7849E+03
      1.242  0.2357E+03  0.7899E+03
      1.263  0.2360E+03  0.7950E+03
      1.285  0.2372E+03  0.8001E+03
      1.306  0.2329E+03  0.8051E+03
      1.328  0.2291E+03  0.8100E+03
      1.349  0.2373E+03  0.8151E+03
      1.371  0.2434E+03  0.8204E+03
      1.392  0.2387E+03  0.8255E+03
      1.414  0.2302E+03  0.8304E+03
      1.435  0.2225E+03  0.8352E+03
      1.457  0.2243E+03  0.8400E+03
      1.478  0.2331E+03  0.8450E+03
      1.500  0.2332E+03  0.8501E+03
      1.521  0.2185E+03  0.8547E+03
      1.543  0.2119E+03  0.8593E+03
      1.564  0.2121E+03  0.8639E+03
      1.585  0.2008E+03  0.8682E+03
      1.607  0.1908E+03  0.8723E+03
      1.628  0.1894E+03  0.8763E+03
      1.650  0.1928E+03  0.8805E+03
      1.671  0.1936E+03  0.8846E+03
      1.693  0.1944E+03  0.8888E+03
      1.714  0.1934E+03  0.8930E+03
      1.736  0.1860E+03  0.8970E+03
      1.757  0.1774E+03  0.9008E+03
      1.779  0.1759E+03  0.9046E+03
      1.800  0.1723E+03  0.9083E+03
      1.822  0.1627E+03  0.9118E+03
      1.843  0.1623E+03  0.9152E+03
      1.865  0.1667E+03  0.9188E+03
      1.886  0.1664E+03  0.9224E+03
      1.908  0.1707E+03  0.9261E+03
      1.929  0.1678E+03  0.9297E+03
      1.951  0.1537E+03  0.9330E+03
      1.972  0.1406E+03  0.9360E+03
      1.994  0.1359E+03  0.9389E+03
      2.015  0.1430E+03  0.9420E+03
      2.037  0.1501E+03  0.9452E+03
      2.058  0.1486E+03  0.9484E+03
      2.080  0.1436E+03  0.9515E+03
      2.101  0.1418E+03  0.9545E+03
      2.123  0.1435E+03  0.9576E+03
      2.144  0.1504E+03  0.9609E+03
      2.166  0.1583E+03  0.9643E+03
      2.187  0.1600E+03  0.9677E+03
      2.209  0.1574E+03  0.9711E+03
      2.230  0.1510E+03  0.9743E+03
      2.252  0.1408E+03  0.9774E+03
      2.273  0.1354E+03  0.9803E+03
      2.295  0.1344E+03  0.9832E+03
      2.316  0.1272E+03  0.9859E+03
      2.338  0.1171E+03  0.9884E+03
      2.359  0.1141E+03  0.9909E+03
      2.381  0.1149E+03  0.9933E+03
      2.402  0.1141E+03  0.9958E+03
      2.423  0.1118E+03  0.9982E+03
      2.445  0.1110E+03  0.1001E+04
      2.466  0.1015E+03  0.1003E+04
      2.488  0.8246E+02  0.1005E+04
      2.509  0.6488E+02  0.1006E+04
      2.531  0.5947E+02  0.1007E+04
      2.552  0.5538E+02  0.1008E+04
      2.574  0.4270E+02  0.1009E+04
      2.595  0.2432E+02  0.1010E+04
      2.617  0.7396E+01  0.1010E+04
      2.638  0.9707E+00  0.1010E+04
      2.660  0.5096E-01  0.1010E+04
      2.681  0.1038E-02  0.1010E+04
      2.703  0.8043E-05  0.1010E+04
      2.724  0.2341E-07  0.1010E+04
      2.746  0.2533E-10  0.1010E+04
      2.767  0.1033E-13  0.1010E+04
      2.789  0.0000E+00  0.1010E+04
      2.810  0.0000E+00  0.1010E+04
      2.832  0.0000E+00  0.1010E+04
      2.853  0.0000E+00  0.1010E+04
      2.875  0.0000E+00  0.1010E+04
