 running on   64 total cores
 distrk:  each k-point on   32 cores,    2 groups
 distr:  one band on   32 cores,    1 groups
 vasp.6.2.1 16May21 (build Nov 23 2021 15:40:41) complex                        
  
 POSCAR found type information on POSCAR Li
 POSCAR found :  1 types and     504 ions
 scaLAPACK will be used
 -----------------------------------------------------------------------------
|                                                                             |
|           W    W    AA    RRRRR   N    N  II  N    N   GGGG   !!!           |
|           W    W   A  A   R    R  NN   N  II  NN   N  G    G  !!!           |
|           W    W  A    A  R    R  N N  N  II  N N  N  G       !!!           |
|           W WW W  AAAAAA  RRRRR   N  N N  II  N  N N  G  GGG   !            |
|           WW  WW  A    A  R   R   N   NN  II  N   NN  G    G                |
|           W    W  A    A  R    R  N    N  II  N    N   GGGG   !!!           |
|                                                                             |
|     For optimal performance we recommend to set                             |
|       NCORE = 2 up to number-of-cores-per-socket                            |
|     NCORE specifies how many cores store one orbital (NPAR=cpu/NCORE).      |
|     This setting can greatly improve the performance of VASP for DFT.       |
|     The default, NCORE=1 might be grossly inefficient on modern             |
|     multi-core architectures or massively parallel machines. Do your        |
|     own testing! More info at https://www.vasp.at/wiki/index.php/NCORE      |
|     Unfortunately you need to use the default for GW and RPA                |
|     calculations (for HF NCORE is supported but not extensively tested      |
|     yet).                                                                   |
|                                                                             |
 -----------------------------------------------------------------------------

 -----------------------------------------------------------------------------
|                                                                             |
|               ----> ADVICE to this user running VASP <----                  |
|                                                                             |
|     You have a (more or less) 'large supercell' and for larger cells it     |
|     might be more efficient to use real-space projection operators.         |
|     Therefore, try LREAL= Auto in the INCAR file.                           |
|     Mind: If you want to do very accurate calculations, keep the            |
|     reciprocal projection scheme (i.e. LREAL=.FALSE.).                      |
|                                                                             |
 -----------------------------------------------------------------------------

 LDA part: xc-table for Pade appr. of Perdew
 POSCAR found type information on POSCAR Li
 POSCAR found :  1 types and     504 ions
 POSCAR, INCAR and KPOINTS ok, starting setup
 FFT: planning ...
 WAVECAR not read
 entering main loop
       N       E                     dE             d eps       ncg     rms          rms(c)
DAV:   1    -0.329544183943E+03   -0.32954E+03   -0.11795E+05  4040   0.644E+02
DAV:   2    -0.890315609435E+03   -0.56077E+03   -0.51374E+03  4628   0.638E+01
DAV:   3    -0.931307741313E+03   -0.40992E+02   -0.37445E+02  5200   0.136E+01
DAV:   4    -0.932777102683E+03   -0.14694E+01   -0.14453E+01  4736   0.280E+00
DAV:   5    -0.932810927355E+03   -0.33825E-01   -0.33756E-01  4904   0.454E-01    0.821E+00
DAV:   6    -0.928927795071E+03    0.38831E+01   -0.88852E+00  4672   0.363E+00    0.636E+00
DAV:   7    -0.925582686889E+03    0.33451E+01   -0.73279E+00  4800   0.375E+00    0.471E+00
DAV:   8    -0.922992348239E+03    0.25903E+01   -0.41717E+00  4616   0.224E+00    0.266E+00
DAV:   9    -0.922632850897E+03    0.35950E+00   -0.23894E+00  4632   0.151E+00    0.185E+00
DAV:  10    -0.922296097030E+03    0.33675E+00   -0.11194E+00  4560   0.102E+00    0.105E+00
DAV:  11    -0.922241948856E+03    0.54148E-01   -0.34084E-01  4360   0.475E-01    0.585E-01
DAV:  12    -0.922256970685E+03   -0.15022E-01   -0.70026E-02  4816   0.298E-01    0.512E-01
DAV:  13    -0.922230589488E+03    0.26381E-01   -0.38252E-02  4728   0.235E-01    0.276E-01
DAV:  14    -0.922230478711E+03    0.11078E-03   -0.12376E-02  4680   0.133E-01    0.195E-01
DAV:  15    -0.922227515860E+03    0.29629E-02   -0.73239E-03  4712   0.106E-01    0.119E-01
DAV:  16    -0.922226176030E+03    0.13398E-02   -0.28179E-03  4536   0.571E-02    0.552E-02
DAV:  17    -0.922226208657E+03   -0.32627E-04   -0.90173E-04  4528   0.307E-02    0.403E-02
DAV:  18    -0.922226039494E+03    0.16916E-03   -0.41446E-04  4536   0.223E-02    0.225E-02
DAV:  19    -0.922225998977E+03    0.40517E-04   -0.10800E-04  4496   0.111E-02    0.128E-02
DAV:  20    -0.922225982139E+03    0.16839E-04   -0.50501E-05  4360   0.650E-03    0.543E-03
DAV:  21    -0.922225979770E+03    0.23689E-05   -0.11496E-05  2176   0.309E-03
   1 F= -.92222598E+03 E0= -.92215962E+03  d E =-.132723E+00
