Li                                      
           1
   -11.179105   19.362778   -0.000000
   -19.164180  -11.064444   -0.000000
     0.000000   -0.000000   23.447950
   Li
   504
Direct configuration=     1
   0.99898709  0.98827788  0.02005203
   0.92199643  0.05130840  0.67326862
   0.85622868  0.08397280  0.33993234
   0.77591256  0.11932742  0.98404875
   0.71780899  0.17373524  0.66612634
   0.64000213  0.20843328  0.33513690
   0.56714871  0.25427825  0.00478602
   0.50212864  0.28957309  0.65808571
   0.43104726  0.33321532  0.34012486
   0.35996659  0.37770837  0.98592902
   0.29289090  0.41232365  0.67920349
   0.21996797  0.45715074  0.34109941
   0.06965757  0.03556203  0.65284500
   0.00329850  0.08251051  0.31148009
   0.92619200  0.11117481  0.00832430
   0.85762139  0.17168557  0.65614625
   0.79072921  0.21700245  0.35225870
   0.70825086  0.24116627  0.01086935
   0.63803635  0.28342499  0.66609490
   0.57532185  0.32527471  0.32206974
   0.50115682  0.37750162  0.99730698
   0.42983219  0.41114557  0.67262285
   0.35332638  0.45960086  0.33437145
   0.28076295  0.50811107  0.99702566
   0.13676758  0.08738463  0.32419128
   0.07269500  0.12713352  0.99835037
   0.99015887  0.16917926  0.67558210
   0.92911913  0.20561032  0.35854521
   0.85140942  0.24608357  0.00901759
   0.79073388  0.29026825  0.66973892
   0.70748440  0.33414761  0.32432710
   0.63521252  0.36891032  0.01256192
   0.57443004  0.40927520  0.68170228
   0.49666124  0.44815596  0.32810299
   0.44124740  0.51047561  0.99424184
   0.35728420  0.53878832  0.67566287
   0.21522165  0.12478561  0.99859617
   0.13354817  0.16599220  0.64559966
   0.05621785  0.20311053  0.33340203
   0.00286846  0.24169893  0.99828159
   0.93223662  0.28398642  0.66871125
   0.85611636  0.34306154  0.32676586
   0.77178405  0.37049162  0.00382755
   0.70838141  0.41968229  0.66363606
   0.64550401  0.46042227  0.34443612
   0.56892634  0.49695392  0.01253029
   0.49135684  0.54432242  0.69123033
   0.43168338  0.58280075  0.34137113
   0.28518953  0.14610886  0.67489516
   0.21078680  0.20351651  0.34427779
   0.14216002  0.24070623  0.01136409
   0.07926790  0.29860101  0.66858454
   0.99910934  0.32741925  0.33213203
   0.91675103  0.35875929  0.01404843
   0.84999194  0.41378061  0.66852137
   0.78377406  0.46270659  0.32685583
   0.69967233  0.48502423  0.00791656
   0.63222283  0.54395056  0.65816162
   0.57726573  0.58437066  0.33791099
   0.50530909  0.62006420  0.00755424
   0.36344412  0.22202840  0.34002053
   0.28691882  0.24388299  0.02317260
   0.22154206  0.29265599  0.66850572
   0.13899104  0.32447853  0.35623349
   0.07608706  0.37152970  0.00566478
   0.00024123  0.41147914  0.64757433
   0.91860939  0.45612079  0.33206503
   0.83960812  0.49148345  0.98684549
   0.79481796  0.54964156  0.68072036
   0.71555676  0.57673479  0.34215124
   0.64067428  0.61597211  0.01764101
   0.57890707  0.66297545  0.67511049
   0.42503706  0.25840729  0.98973911
   0.35851492  0.28846402  0.65107496
   0.29206362  0.33515889  0.33408463
   0.21139120  0.38110839  0.00811694
   0.15505992  0.40152687  0.67243113
   0.06750769  0.45805334  0.34527610
   0.99433966  0.49634632  0.00421768
   0.92740406  0.53825896  0.66464969
   0.85544222  0.58982300  0.32704383
   0.78287721  0.60848855  0.01691555
   0.71869937  0.66111393  0.67747074
   0.64051833  0.69327626  0.34081650
   0.13509331  0.50929219  0.99117669
   0.08027536  0.54730806  0.67714585
   0.99224236  0.57915685  0.32929712
   0.92268704  0.61494501  0.99414237
   0.86423440  0.67571379  0.68520819
   0.77963668  0.70755429  0.35578012
   0.70246934  0.73671932  0.99510346
   0.21584293  0.52954341  0.67231122
   0.13557431  0.58602665  0.32444504
   0.07012668  0.62617842  0.97964986
   0.00181340  0.67304906  0.66898847
   0.92223148  0.71069604  0.33078753
   0.84236896  0.72915799  0.99367587
   0.79277348  0.80748199  0.66747789
   0.28597472  0.57498040  0.32136700
   0.22521806  0.62801031  0.98708690
   0.14657544  0.66775441  0.65325904
   0.07213871  0.70088954  0.32287626
   0.00387207  0.73283317  0.99777570
   0.93817083  0.79957640  0.66436849
   0.86212688  0.83888997  0.31600855
   0.36661941  0.63730501  0.01416093
   0.28752021  0.66624775  0.65736281
   0.21393994  0.70905709  0.33934095
   0.14476774  0.75758807  0.97798319
   0.07493217  0.79764356  0.66055704
   0.00210927  0.82577669  0.32605403
   0.92498805  0.86085272  0.01352560
   0.42861870  0.67440573  0.68049111
   0.37262088  0.69813958  0.33167950
   0.29494291  0.75879178  0.01858183
   0.21939505  0.79743265  0.64429935
   0.14820244  0.82756476  0.31319240
   0.08545219  0.86565511  0.98580699
   0.99684996  0.92582466  0.66437591
   0.92745142  0.95399277  0.32184504
   0.85025830  0.98179300  0.00725116
   0.78190836  0.05616185  0.65964728
   0.71312871  0.08259757  0.31524169
   0.63863832  0.11981891  0.00228822
   0.58484610  0.15465962  0.66417492
   0.50982727  0.20806030  0.31770249
   0.07398471  0.95740545  0.29640137
   0.15309944  0.99002988  0.96448045
   0.20870481  0.03316380  0.66409922
   0.29212063  0.08636339  0.34108908
   0.35258466  0.13624203  0.00992157
   0.42535209  0.15345214  0.68304245
   0.86537418  0.92161338  0.64753032
   0.78400865  0.95732319  0.32838870
   0.71047252  0.98276955  0.99611513
   0.63830036  0.03470552  0.66122413
   0.57917215  0.06802995  0.33353497
   0.50159292  0.12655667  0.98961906
   0.13978160  0.91575386  0.65069776
   0.21972655  0.95881505  0.32543386
   0.29329214  0.00161876  0.99706272
   0.34830374  0.02402732  0.66472168
   0.43309468  0.07849751  0.31833258
   0.78255525  0.86404474  0.98383431
   0.72743338  0.92671323  0.66309686
   0.64647744  0.95711497  0.33592543
   0.55921181  0.00924176  0.99425569
   0.49385386  0.02435463  0.67889099
   0.22633381  0.87816987  0.99632430
   0.28287103  0.91843649  0.66029937
   0.36869668  0.95124269  0.33800283
   0.42818425  0.00536273  0.00724424
   0.71227563  0.83178759  0.33568576
   0.63980614  0.87755874  0.02327573
   0.56973186  0.91219634  0.67782159
   0.51555288  0.94880938  0.33275728
   0.29942886  0.82751065  0.33238225
   0.35741323  0.88581488  0.01012534
   0.42290562  0.90410873  0.67417509
   0.63482322  0.79834253  0.68439450
   0.57821585  0.82374577  0.33205765
   0.49696802  0.88321263  0.00101481
   0.35733179  0.79662567  0.66888210
   0.43429026  0.82502216  0.34030272
   0.57543113  0.74702698  0.01344020
   0.49656840  0.79273980  0.70538964
   0.42438490  0.75714011  0.04144397
   0.50704103  0.70448874  0.33207270
   0.98891956  0.99491580  0.80172067
   0.92572167  0.04405757  0.43002144
   0.84189553  0.08191582  0.10222292
   0.79368588  0.12918481  0.76566927
   0.71194031  0.15735000  0.43130760
   0.67194290  0.21542654  0.12570173
   0.57790647  0.25541845  0.76675573
   0.49422106  0.28399165  0.43696942
   0.43527708  0.32415623  0.11463905
   0.36207564  0.39427609  0.77218535
   0.27967685  0.40939190  0.45039945
   0.20523168  0.46576585  0.11670288
   0.06248577  0.06520722  0.43326805
   0.00125179  0.09147945  0.07942030
   0.91919930  0.11098047  0.76884900
   0.84524134  0.16070862  0.43577118
   0.78179420  0.21888456  0.10686712
   0.70925585  0.25113566  0.78101116
   0.62555595  0.27573971  0.44680302
   0.58092137  0.34028567  0.11720037
   0.49026911  0.37837748  0.78321940
   0.43472096  0.40632452  0.43540187
   0.35188410  0.47084019  0.09889381
   0.28135584  0.51169937  0.75570787
   0.13835778  0.08764569  0.08235827
   0.05809612  0.10673321  0.76040308
   0.98487064  0.16819034  0.44173757
   0.91598517  0.20741101  0.11507558
   0.86435995  0.22427224  0.78265293
   0.77637839  0.27923532  0.44962934
   0.71106617  0.33909242  0.11737026
   0.65465538  0.36850948  0.80624520
   0.57475250  0.42037933  0.43677990
   0.48997032  0.47408024  0.11962422
   0.41990509  0.50428142  0.78683918
   0.36715283  0.52219269  0.46197915
   0.22126590  0.13846718  0.77951482
   0.14408715  0.14052277  0.43742190
   0.08200003  0.21106796  0.10825896
   0.00644319  0.24101977  0.78153803
   0.92810599  0.29905849  0.44606327
   0.85264944  0.33297451  0.10534108
   0.79479920  0.37085070  0.77931665
   0.70755956  0.40014857  0.44722459
   0.64127568  0.47489190  0.12465844
   0.58104827  0.48310316  0.78658521
   0.51888817  0.53354466  0.44838142
   0.42606735  0.58580546  0.10932980
   0.26943758  0.15427713  0.45752890
   0.22243821  0.21686747  0.11773311
   0.13176514  0.25297811  0.78627419
   0.06810365  0.29013195  0.43167160
   0.00202768  0.32352447  0.11468728
   0.92011731  0.36531576  0.77555191
   0.86382869  0.40742338  0.46375689
   0.79027799  0.47955782  0.10677547
   0.71583592  0.48106416  0.78185649
   0.64393842  0.54606942  0.43737644
   0.57819261  0.58735163  0.11929075
   0.50379268  0.62315442  0.78830274
   0.33934491  0.20979227  0.12642945
   0.27282675  0.26942918  0.77291628
   0.20499848  0.28312157  0.46749965
   0.15338826  0.32775626  0.11980675
   0.06843616  0.36371304  0.76221012
   0.00147685  0.42037773  0.44782316
   0.93214084  0.45447545  0.09637462
   0.86444397  0.49249800  0.77164796
   0.78835073  0.54105930  0.45766677
   0.73048907  0.61848497  0.11735193
   0.65733157  0.61020796  0.78456301
   0.57405094  0.65076572  0.43087119
   0.42793093  0.26267280  0.77581619
   0.34521862  0.28560894  0.45368674
   0.28761691  0.33653677  0.11626913
   0.21337536  0.38728692  0.78930198
   0.13727679  0.42794968  0.45939330
   0.07685377  0.45469662  0.11602687
   0.98912977  0.49088434  0.76787386
   0.91981515  0.53839762  0.42914332
   0.86927956  0.60295978  0.11887276
   0.80110368  0.63018953  0.78266406
   0.71555067  0.65871686  0.44016315
   0.65497535  0.74212340  0.11299552
   0.13190731  0.48261429  0.76663195
   0.07262137  0.55870027  0.44459995
   0.01262037  0.56993300  0.11163585
   0.91642105  0.62024346  0.78408667
   0.86028193  0.67129854  0.44065612
   0.78016055  0.71823805  0.12703012
   0.72189900  0.75764792  0.77143923
   0.20864318  0.53580713  0.45615086
   0.15364810  0.58248293  0.10116334
   0.06182290  0.62620631  0.75996349
   0.00608742  0.68256834  0.42742429
   0.93459063  0.72101404  0.12859935
   0.86177465  0.74692272  0.78307824
   0.77872901  0.80544630  0.44309179
   0.28818071  0.58776647  0.12057743
   0.19489096  0.61927151  0.77951875
   0.14524429  0.67666192  0.46176883
   0.08099188  0.70731078  0.09514260
   0.99028338  0.73904736  0.77969289
   0.95173283  0.78392153  0.44000669
   0.84869966  0.84239476  0.11514306
   0.34839161  0.63451873  0.76386951
   0.28501008  0.65140826  0.44278275
   0.20177766  0.72288808  0.11965279
   0.14820284  0.75838403  0.77665502
   0.07487863  0.81123127  0.43189017
   0.99631778  0.84355837  0.10487763
   0.93794259  0.87581223  0.77564547
   0.43325294  0.65480549  0.44594619
   0.35481076  0.70113356  0.13261383
   0.28981406  0.73583030  0.77617368
   0.21511041  0.77160454  0.44722442
   0.14735233  0.84275303  0.10083200
   0.07226105  0.86925319  0.78071067
   0.98864037  0.93387531  0.41555343
   0.92617349  0.97585596  0.09784065
   0.84552626  0.98994050  0.78018958
   0.79147955  0.02575598  0.43403424
   0.72045021  0.07951003  0.10590829
   0.64346461  0.13393511  0.79117375
   0.55826536  0.14804700  0.44353342
   0.51828899  0.20864455  0.08719320
   0.07613803  0.95899249  0.09846491
   0.14096715  0.00802410  0.75958272
   0.19602766  0.03214512  0.41839625
   0.29338415  0.08382958  0.11269419
   0.36663326  0.14344359  0.77782363
   0.42283874  0.15887875  0.44909697
   0.86414829  0.92873331  0.42414720
   0.79685375  0.95850385  0.09357047
   0.71575605  0.99610596  0.77553476
   0.62777944  0.04491469  0.46731443
   0.57694975  0.07272523  0.10974351
   0.49912195  0.14326418  0.78588169
   0.13019251  0.91235848  0.42780981
   0.22293296  0.96671595  0.09643728
   0.27241516  0.00984431  0.75557206
   0.35135261  0.04921452  0.46004176
   0.44087291  0.09390491  0.09205225
   0.78489657  0.85835424  0.76499828
   0.70680437  0.91933605  0.43592148
   0.63669660  0.96726155  0.11768277
   0.57474286  0.01284822  0.78372592
   0.50049151  0.04247231  0.46122649
   0.21478515  0.88580208  0.75416374
   0.27198155  0.91940906  0.42618514
   0.35135905  0.97394303  0.12480333
   0.42739955  0.99897876  0.79671488
   0.72409851  0.85457361  0.10635317
   0.64270354  0.86847690  0.79098413
   0.56043464  0.91640252  0.45060060
   0.50598833  0.95505877  0.10196786
   0.28732611  0.83854201  0.11450450
   0.34284423  0.87575928  0.79107465
   0.42485633  0.90642135  0.46122923
   0.63954161  0.78427956  0.43954508
   0.57224239  0.83779691  0.11866100
   0.50023972  0.86843185  0.78690008
   0.34469161  0.76618178  0.41598615
   0.42072400  0.84662073  0.11997394
   0.56347854  0.74432395  0.79170097
   0.49124264  0.77680374  0.43075596
   0.43260945  0.76694914  0.78473012
   0.50619624  0.70929250  0.13439655
   0.99718862  0.00505193  0.21342687
   0.90809043  0.05285411  0.91839797
   0.85494383  0.08782069  0.54467710
   0.79335340  0.13505458  0.23423439
   0.72902833  0.18476001  0.88379104
   0.66119264  0.21231503  0.55427781
   0.56564119  0.25920061  0.19871590
   0.51948693  0.28282208  0.88827322
   0.43051914  0.33943528  0.55451131
   0.35997226  0.38500285  0.21569697
   0.26771940  0.40519456  0.88757176
   0.21082237  0.46708788  0.58067986
   0.07109245  0.03062649  0.89469417
   0.98046801  0.08268318  0.54149054
   0.93570228  0.12626691  0.23532319
   0.84763188  0.17726475  0.90601434
   0.78192906  0.21299410  0.53214837
   0.72070863  0.26530190  0.22786683
   0.65662689  0.29410362  0.88711457
   0.57384106  0.33495717  0.54785213
   0.49044058  0.39310369  0.23806177
   0.42637164  0.40350184  0.88304128
   0.37134573  0.44589117  0.55762853
   0.29245374  0.51384665  0.19203868
   0.14051965  0.06718025  0.54743301
   0.07732454  0.11518196  0.19898695
   0.99157601  0.16340916  0.90206137
   0.91875305  0.20697261  0.56554002
   0.85409999  0.26436168  0.24355199
   0.79395999  0.29982084  0.88003508
   0.72655471  0.33007797  0.55534230
   0.64336784  0.40370848  0.23496661
   0.57133267  0.40831197  0.90407958
   0.49212364  0.46537670  0.56463770
   0.42233688  0.50157729  0.23679512
   0.35858655  0.54103170  0.88515501
   0.22463879  0.11651449  0.22730372
   0.14006698  0.15733806  0.89764446
   0.06596929  0.20695419  0.53928510
   0.00304219  0.24238050  0.22852083
   0.92019473  0.30101196  0.87782733
   0.86003919  0.34115529  0.57240132
   0.79150777  0.38731356  0.22272711
   0.70684389  0.41207242  0.90552838
   0.64030007  0.45841248  0.54844704
   0.56224017  0.50459592  0.22404306
   0.50540601  0.52840310  0.89609829
   0.43231025  0.58225409  0.56690185
   0.29721171  0.17891535  0.89733547
   0.21259768  0.20912216  0.56068065
   0.15804922  0.25714447  0.22102040
   0.06379324  0.28054987  0.88673674
   0.99154820  0.33699695  0.55195071
   0.93820716  0.37197096  0.21931264
   0.85699736  0.43376438  0.88949825
   0.78289125  0.45660357  0.57108475
   0.71473237  0.50129563  0.21256151
   0.63344435  0.52562946  0.90124222
   0.57370025  0.58604863  0.54487043
   0.49512283  0.64159619  0.21556090
   0.34332915  0.19756627  0.54909433
   0.28602817  0.27316615  0.22772353
   0.21924117  0.28127030  0.90400650
   0.12725130  0.32256964  0.56191530
   0.08549238  0.37332487  0.23802287
   0.98974444  0.41651657  0.88781138
   0.91780436  0.46539321  0.55237059
   0.87470177  0.49482351  0.21091646
   0.78667617  0.55226164  0.88875089
   0.70045554  0.59750252  0.53893593
   0.65742022  0.63606582  0.22098196
   0.57451721  0.66112766  0.90970848
   0.43160010  0.26603374  0.22310054
   0.35733405  0.29285818  0.90762346
   0.27780165  0.34877816  0.56187478
   0.21045820  0.38760356  0.21619185
   0.12737932  0.41155188  0.88683430
   0.06421973  0.46018273  0.54656668
   0.00957802  0.49235432  0.22710500
   0.93528235  0.53520964  0.89954649
   0.86229199  0.58589387  0.57477800
   0.79475983  0.60414669  0.22451217
   0.71309153  0.66684058  0.88924462
   0.63184457  0.70404597  0.54183898
   0.17037453  0.51004384  0.23511299
   0.07159750  0.54221703  0.87468522
   0.99299826  0.57947924  0.54534035
   0.91492613  0.63069544  0.22558010
   0.84733153  0.66940182  0.88471498
   0.78431906  0.71766127  0.56107055
   0.73126487  0.75267242  0.22641673
   0.20361711  0.52521568  0.88204514
   0.13798881  0.59746743  0.55777035
   0.07592230  0.62644538  0.21296650
   0.99556253  0.66398567  0.87978474
   0.92703973  0.69909506  0.55838881
   0.85835161  0.74889191  0.21958472
   0.78446626  0.77490252  0.87533639
   0.30465186  0.58416896  0.56311781
   0.22668832  0.63679215  0.22118703
   0.13249154  0.67121095  0.89217016
   0.06806671  0.70826471  0.54828566
   0.01352642  0.75711179  0.21531988
   0.91784312  0.79058478  0.90567234
   0.86758896  0.83406307  0.53996870
   0.35846282  0.63974082  0.21551757
   0.29625375  0.65336294  0.89389863
   0.21678680  0.69977523  0.55736828
   0.16432185  0.74371501  0.21064068
   0.05485820  0.78709928  0.88340052
   0.97667381  0.83377300  0.52948675
   0.92950433  0.87227959  0.20379738
   0.43891943  0.64887385  0.89594954
   0.36602969  0.70132246  0.55445324
   0.29410532  0.76398020  0.22895807
   0.20966965  0.77637537  0.89546171
   0.15501204  0.84926617  0.54186542
   0.07851473  0.87268111  0.18969049
   0.97968946  0.91285400  0.89613894
   0.92955303  0.96252801  0.54216710
   0.85287274  0.97756385  0.21589450
   0.77468729  0.04194931  0.89114439
   0.71325578  0.08650370  0.55193970
   0.63164077  0.12864790  0.22159892
   0.56111829  0.16023762  0.88884160
   0.49929367  0.23115002  0.56005943
   0.05313731  0.95010753  0.53717226
   0.15015350  0.99453699  0.18472989
   0.22259194  0.03996740  0.89292997
   0.28992601  0.07871968  0.55735386
   0.35894440  0.14213686  0.22304516
   0.43888901  0.16940788  0.89342820
   0.85464259  0.92095447  0.88976422
   0.79800535  0.95619769  0.54423623
   0.71888641  0.99669729  0.21582882
   0.64426692  0.04060826  0.88624004
   0.56250238  0.09330647  0.55055760
   0.49969177  0.12899768  0.20204151
   0.14048016  0.90300854  0.86623591
   0.22077069  0.96045018  0.54316269
   0.30347632  0.01140838  0.23851151
   0.34237136  0.03902243  0.88597442
   0.43441924  0.07128799  0.56434832
   0.76902572  0.87497895  0.22203443
   0.73020689  0.90063398  0.87262421
   0.64036261  0.96998810  0.55833720
   0.57594379  0.01094092  0.23024856
   0.49701190  0.03750390  0.89399703
   0.22922301  0.89240847  0.20408917
   0.27896625  0.90717953  0.88200654
   0.35378367  0.94847536  0.55540022
   0.43243763  0.00535056  0.21041538
   0.72043807  0.82647670  0.54053376
   0.62966649  0.88928052  0.21185905
   0.57830410  0.91175631  0.88886862
   0.49604201  0.95840853  0.58847336
   0.29496855  0.84539420  0.54032281
   0.36820305  0.89673371  0.23431070
   0.42740671  0.91501505  0.90105039
   0.64542491  0.78612263  0.90632212
   0.57704664  0.84206165  0.55839585
   0.49749560  0.90102142  0.22675598
   0.36343495  0.78061455  0.92073254
   0.42412977  0.83150168  0.55943628
   0.58245813  0.74711868  0.22467919
   0.50819758  0.78993919  0.91092301
   0.43219004  0.77085518  0.23277695
   0.51536752  0.71900813  0.55536890
