 432 432   0   0
  0.2159961E+02  0.2105280E-08  0.2105280E-08  0.2105280E-08  0.5000000E-15
  1.000000000000000E-004
  CAR 
 Li                                      
      3.20156148     -3.50505553  301      0.23381547      1.00000000
     -3.505  0.0000E+00  0.0000E+00
     -3.483  0.0000E+00  0.0000E+00
     -3.460  0.0000E+00  0.0000E+00
     -3.438  0.0000E+00  0.0000E+00
     -3.416  0.0000E+00  0.0000E+00
     -3.393  0.0000E+00  0.0000E+00
     -3.371  0.3601E-13  0.8049E-15
     -3.349  0.1151E-09  0.2573E-11
     -3.326  0.1232E-06  0.2757E-08
     -3.304  0.4462E-04  0.1000E-05
     -3.282  0.5510E-02  0.1242E-03
     -3.259  0.2347E+00  0.5371E-02
     -3.237  0.3500E+01  0.8362E-01
     -3.214  0.1858E+02  0.4989E+00
     -3.192  0.3558E+02  0.1294E+01
     -3.170  0.2476E+02  0.1848E+01
     -3.147  0.6364E+01  0.1990E+01
     -3.125  0.3237E+01  0.2062E+01
     -3.103  0.2094E+02  0.2531E+01
     -3.080  0.6634E+02  0.4014E+01
     -3.058  0.9286E+02  0.6090E+01
     -3.036  0.6232E+02  0.7483E+01
     -3.013  0.2045E+02  0.7940E+01
     -2.991  0.7676E+01  0.8112E+01
     -2.969  0.2821E+02  0.8742E+01
     -2.946  0.7326E+02  0.1038E+02
     -2.924  0.9190E+02  0.1243E+02
     -2.901  0.5453E+02  0.1365E+02
     -2.879  0.1630E+02  0.1402E+02
     -2.857  0.1948E+02  0.1445E+02
     -2.834  0.6233E+02  0.1585E+02
     -2.812  0.1060E+03  0.1822E+02
     -2.790  0.1012E+03  0.2048E+02
     -2.767  0.5380E+02  0.2168E+02
     -2.745  0.2026E+02  0.2213E+02
     -2.723  0.3783E+02  0.2298E+02
     -2.700  0.9965E+02  0.2521E+02
     -2.678  0.1550E+03  0.2867E+02
     -2.656  0.1406E+03  0.3181E+02
     -2.633  0.7379E+02  0.3346E+02
     -2.611  0.2301E+02  0.3398E+02
     -2.588  0.1997E+02  0.3443E+02
     -2.566  0.5926E+02  0.3575E+02
     -2.544  0.9097E+02  0.3778E+02
     -2.521  0.6896E+02  0.3933E+02
     -2.499  0.3103E+02  0.4002E+02
     -2.477  0.3669E+02  0.4084E+02
     -2.454  0.8828E+02  0.4281E+02
     -2.432  0.1294E+03  0.4571E+02
     -2.410  0.1329E+03  0.4868E+02
     -2.387  0.9945E+02  0.5090E+02
     -2.365  0.5420E+02  0.5211E+02
     -2.343  0.6390E+02  0.5354E+02
     -2.320  0.1221E+03  0.5627E+02
     -2.298  0.1670E+03  0.6000E+02
     -2.276  0.1831E+03  0.6410E+02
     -2.253  0.1563E+03  0.6759E+02
     -2.231  0.8381E+02  0.6946E+02
     -2.208  0.3050E+02  0.7015E+02
     -2.186  0.4072E+02  0.7106E+02
     -2.164  0.8095E+02  0.7287E+02
     -2.141  0.8573E+02  0.7478E+02
     -2.119  0.4998E+02  0.7590E+02
     -2.097  0.4519E+02  0.7691E+02
     -2.074  0.8978E+02  0.7892E+02
     -2.052  0.1300E+03  0.8182E+02
     -2.030  0.1501E+03  0.8518E+02
     -2.007  0.1300E+03  0.8809E+02
     -1.985  0.7452E+02  0.8975E+02
     -1.963  0.6131E+02  0.9112E+02
     -1.940  0.1163E+03  0.9372E+02
     -1.918  0.1677E+03  0.9747E+02
     -1.895  0.1806E+03  0.1015E+03
     -1.873  0.1536E+03  0.1049E+03
     -1.851  0.9659E+02  0.1071E+03
     -1.828  0.6109E+02  0.1085E+03
     -1.806  0.8583E+02  0.1104E+03
     -1.784  0.1325E+03  0.1133E+03
     -1.761  0.1436E+03  0.1166E+03
     -1.739  0.1075E+03  0.1190E+03
     -1.717  0.7264E+02  0.1206E+03
     -1.694  0.9997E+02  0.1228E+03
     -1.672  0.1584E+03  0.1264E+03
     -1.650  0.1848E+03  0.1305E+03
     -1.627  0.1647E+03  0.1342E+03
     -1.605  0.1160E+03  0.1368E+03
     -1.582  0.7927E+02  0.1385E+03
     -1.560  0.1013E+03  0.1408E+03
     -1.538  0.1618E+03  0.1444E+03
     -1.515  0.1984E+03  0.1489E+03
     -1.493  0.1713E+03  0.1527E+03
     -1.471  0.1043E+03  0.1550E+03
     -1.448  0.6055E+02  0.1564E+03
     -1.426  0.7511E+02  0.1580E+03
     -1.404  0.1191E+03  0.1607E+03
     -1.381  0.1394E+03  0.1638E+03
     -1.359  0.1132E+03  0.1664E+03
     -1.337  0.6954E+02  0.1679E+03
     -1.314  0.6865E+02  0.1694E+03
     -1.292  0.1186E+03  0.1721E+03
     -1.270  0.1489E+03  0.1754E+03
     -1.247  0.1243E+03  0.1782E+03
     -1.225  0.9590E+02  0.1803E+03
     -1.202  0.1233E+03  0.1831E+03
     -1.180  0.1912E+03  0.1874E+03
     -1.158  0.2364E+03  0.1927E+03
     -1.135  0.2448E+03  0.1981E+03
     -1.113  0.2264E+03  0.2032E+03
     -1.091  0.1817E+03  0.2073E+03
     -1.068  0.1369E+03  0.2103E+03
     -1.046  0.1400E+03  0.2134E+03
     -1.024  0.1709E+03  0.2173E+03
     -1.001  0.1804E+03  0.2213E+03
     -0.979  0.1586E+03  0.2248E+03
     -0.957  0.1103E+03  0.2273E+03
     -0.934  0.8919E+02  0.2293E+03
     -0.912  0.1247E+03  0.2321E+03
     -0.889  0.1586E+03  0.2356E+03
     -0.867  0.1515E+03  0.2390E+03
     -0.845  0.1178E+03  0.2417E+03
     -0.822  0.1113E+03  0.2441E+03
     -0.800  0.1563E+03  0.2476E+03
     -0.778  0.1974E+03  0.2521E+03
     -0.755  0.2055E+03  0.2566E+03
     -0.733  0.1929E+03  0.2610E+03
     -0.711  0.1643E+03  0.2646E+03
     -0.688  0.1311E+03  0.2676E+03
     -0.666  0.1014E+03  0.2698E+03
     -0.644  0.6968E+02  0.2714E+03
     -0.621  0.6098E+02  0.2728E+03
     -0.599  0.1054E+03  0.2751E+03
     -0.576  0.1673E+03  0.2788E+03
     -0.554  0.2039E+03  0.2834E+03
     -0.532  0.2170E+03  0.2883E+03
     -0.509  0.2123E+03  0.2930E+03
     -0.487  0.1912E+03  0.2973E+03
     -0.465  0.1690E+03  0.3011E+03
     -0.442  0.1650E+03  0.3047E+03
     -0.420  0.1833E+03  0.3088E+03
     -0.398  0.2208E+03  0.3138E+03
     -0.375  0.2458E+03  0.3193E+03
     -0.353  0.2423E+03  0.3247E+03
     -0.331  0.2070E+03  0.3293E+03
     -0.308  0.1533E+03  0.3327E+03
     -0.286  0.1314E+03  0.3357E+03
     -0.264  0.1412E+03  0.3388E+03
     -0.241  0.1495E+03  0.3422E+03
     -0.219  0.1621E+03  0.3458E+03
     -0.196  0.1813E+03  0.3499E+03
     -0.174  0.2027E+03  0.3544E+03
     -0.152  0.2252E+03  0.3594E+03
     -0.129  0.2376E+03  0.3647E+03
     -0.107  0.2336E+03  0.3700E+03
     -0.085  0.2098E+03  0.3746E+03
     -0.062  0.1844E+03  0.3788E+03
     -0.040  0.1759E+03  0.3827E+03
     -0.018  0.1816E+03  0.3868E+03
      0.005  0.1953E+03  0.3911E+03
      0.027  0.1966E+03  0.3955E+03
      0.049  0.1771E+03  0.3995E+03
      0.072  0.1591E+03  0.4030E+03
      0.094  0.1507E+03  0.4064E+03
      0.117  0.1548E+03  0.4099E+03
      0.139  0.1692E+03  0.4136E+03
      0.161  0.1842E+03  0.4178E+03
      0.184  0.1991E+03  0.4222E+03
      0.206  0.2014E+03  0.4267E+03
      0.228  0.1895E+03  0.4310E+03
      0.251  0.1939E+03  0.4353E+03
      0.273  0.2020E+03  0.4398E+03
      0.295  0.1988E+03  0.4442E+03
      0.318  0.2007E+03  0.4487E+03
      0.340  0.2001E+03  0.4532E+03
      0.362  0.1967E+03  0.4576E+03
      0.385  0.2025E+03  0.4621E+03
      0.407  0.2001E+03  0.4666E+03
      0.429  0.1995E+03  0.4711E+03
      0.452  0.2159E+03  0.4759E+03
      0.474  0.2215E+03  0.4808E+03
      0.497  0.2185E+03  0.4857E+03
      0.519  0.2257E+03  0.4908E+03
      0.541  0.2341E+03  0.4960E+03
      0.564  0.2449E+03  0.5015E+03
      0.586  0.2542E+03  0.5072E+03
      0.608  0.2543E+03  0.5129E+03
      0.631  0.2463E+03  0.5184E+03
      0.653  0.2451E+03  0.5238E+03
      0.675  0.2457E+03  0.5293E+03
      0.698  0.2413E+03  0.5347E+03
      0.720  0.2386E+03  0.5401E+03
      0.742  0.2314E+03  0.5452E+03
      0.765  0.2227E+03  0.5502E+03
      0.787  0.2181E+03  0.5551E+03
      0.810  0.2154E+03  0.5599E+03
      0.832  0.2229E+03  0.5649E+03
      0.854  0.2310E+03  0.5700E+03
      0.877  0.2262E+03  0.5751E+03
      0.899  0.2248E+03  0.5801E+03
      0.921  0.2260E+03  0.5852E+03
      0.944  0.2300E+03  0.5903E+03
      0.966  0.2344E+03  0.5956E+03
      0.988  0.2285E+03  0.6007E+03
      1.011  0.2148E+03  0.6055E+03
      1.033  0.1997E+03  0.6099E+03
      1.055  0.1951E+03  0.6143E+03
      1.078  0.1926E+03  0.6186E+03
      1.100  0.1762E+03  0.6225E+03
      1.123  0.1657E+03  0.6262E+03
      1.145  0.1762E+03  0.6302E+03
      1.167  0.1925E+03  0.6345E+03
      1.190  0.1956E+03  0.6389E+03
      1.212  0.1917E+03  0.6431E+03
      1.234  0.1753E+03  0.6471E+03
      1.257  0.1495E+03  0.6504E+03
      1.279  0.1391E+03  0.6535E+03
      1.301  0.1496E+03  0.6569E+03
      1.324  0.1635E+03  0.6605E+03
      1.346  0.1701E+03  0.6643E+03
      1.368  0.1659E+03  0.6680E+03
      1.391  0.1595E+03  0.6716E+03
      1.413  0.1657E+03  0.6753E+03
      1.435  0.1797E+03  0.6793E+03
      1.458  0.1891E+03  0.6835E+03
      1.480  0.1883E+03  0.6878E+03
      1.503  0.1806E+03  0.6918E+03
      1.525  0.1737E+03  0.6957E+03
      1.547  0.1696E+03  0.6995E+03
      1.570  0.1706E+03  0.7033E+03
      1.592  0.1776E+03  0.7073E+03
      1.614  0.1823E+03  0.7113E+03
      1.637  0.1845E+03  0.7155E+03
      1.659  0.1856E+03  0.7196E+03
      1.681  0.1872E+03  0.7238E+03
      1.704  0.1904E+03  0.7280E+03
      1.726  0.1889E+03  0.7323E+03
      1.748  0.1834E+03  0.7364E+03
      1.771  0.1724E+03  0.7402E+03
      1.793  0.1704E+03  0.7440E+03
      1.816  0.1647E+03  0.7477E+03
      1.838  0.1606E+03  0.7513E+03
      1.860  0.1542E+03  0.7547E+03
      1.883  0.1385E+03  0.7578E+03
      1.905  0.1328E+03  0.7608E+03
      1.927  0.1317E+03  0.7638E+03
      1.950  0.1298E+03  0.7667E+03
      1.972  0.1276E+03  0.7695E+03
      1.994  0.1355E+03  0.7725E+03
      2.017  0.1390E+03  0.7756E+03
      2.039  0.1316E+03  0.7786E+03
      2.061  0.1232E+03  0.7813E+03
      2.084  0.1081E+03  0.7838E+03
      2.106  0.1008E+03  0.7860E+03
      2.129  0.1011E+03  0.7883E+03
      2.151  0.9259E+02  0.7903E+03
      2.173  0.8818E+02  0.7923E+03
      2.196  0.7942E+02  0.7941E+03
      2.218  0.5714E+02  0.7954E+03
      2.240  0.3842E+02  0.7962E+03
      2.263  0.4629E+02  0.7973E+03
      2.285  0.6651E+02  0.7987E+03
      2.307  0.6779E+02  0.8003E+03
      2.330  0.5667E+02  0.8015E+03
      2.352  0.5521E+02  0.8028E+03
      2.374  0.6942E+02  0.8043E+03
      2.397  0.8874E+02  0.8063E+03
      2.419  0.9893E+02  0.8085E+03
      2.441  0.1003E+03  0.8108E+03
      2.464  0.1051E+03  0.8131E+03
      2.486  0.1100E+03  0.8156E+03
      2.509  0.1141E+03  0.8181E+03
      2.531  0.1298E+03  0.8210E+03
      2.553  0.1395E+03  0.8241E+03
      2.576  0.1326E+03  0.8271E+03
      2.598  0.1347E+03  0.8301E+03
      2.620  0.1391E+03  0.8332E+03
      2.643  0.1389E+03  0.8363E+03
      2.665  0.1361E+03  0.8394E+03
      2.687  0.1264E+03  0.8422E+03
      2.710  0.1184E+03  0.8448E+03
      2.732  0.1142E+03  0.8474E+03
      2.754  0.1058E+03  0.8498E+03
      2.777  0.9886E+02  0.8520E+03
      2.799  0.1057E+03  0.8543E+03
      2.822  0.1224E+03  0.8571E+03
      2.844  0.1304E+03  0.8600E+03
      2.866  0.1216E+03  0.8627E+03
      2.889  0.9107E+02  0.8647E+03
      2.911  0.4381E+02  0.8657E+03
      2.933  0.1120E+02  0.8660E+03
      2.956  0.1371E+01  0.8660E+03
      2.978  0.7321E-01  0.8660E+03
      3.000  0.1544E-02  0.8660E+03
      3.023  0.1195E-04  0.8660E+03
      3.045  0.3244E-07  0.8660E+03
      3.067  0.3016E-10  0.8660E+03
      3.090  0.9932E-14  0.8660E+03
      3.112  0.0000E+00  0.8660E+03
      3.134  0.0000E+00  0.8660E+03
      3.157  0.0000E+00  0.8660E+03
      3.179  0.0000E+00  0.8660E+03
      3.202  0.0000E+00  0.8660E+03
