 running on   64 total cores
 distrk:  each k-point on   32 cores,    2 groups
 distr:  one band on   32 cores,    1 groups
 vasp.6.2.1 16May21 (build Nov 23 2021 15:40:41) complex                        
  
 POSCAR found type information on POSCAR Li
 POSCAR found :  1 types and     432 ions
 scaLAPACK will be used
 -----------------------------------------------------------------------------
|                                                                             |
|           W    W    AA    RRRRR   N    N  II  N    N   GGGG   !!!           |
|           W    W   A  A   R    R  NN   N  II  NN   N  G    G  !!!           |
|           W    W  A    A  R    R  N N  N  II  N N  N  G       !!!           |
|           W WW W  AAAAAA  RRRRR   N  N N  II  N  N N  G  GGG   !            |
|           WW  WW  A    A  R   R   N   NN  II  N   NN  G    G                |
|           W    W  A    A  R    R  N    N  II  N    N   GGGG   !!!           |
|                                                                             |
|     For optimal performance we recommend to set                             |
|       NCORE = 2 up to number-of-cores-per-socket                            |
|     NCORE specifies how many cores store one orbital (NPAR=cpu/NCORE).      |
|     This setting can greatly improve the performance of VASP for DFT.       |
|     The default, NCORE=1 might be grossly inefficient on modern             |
|     multi-core architectures or massively parallel machines. Do your        |
|     own testing! More info at https://www.vasp.at/wiki/index.php/NCORE      |
|     Unfortunately you need to use the default for GW and RPA                |
|     calculations (for HF NCORE is supported but not extensively tested      |
|     yet).                                                                   |
|                                                                             |
 -----------------------------------------------------------------------------

 -----------------------------------------------------------------------------
|                                                                             |
|               ----> ADVICE to this user running VASP <----                  |
|                                                                             |
|     You have a (more or less) 'large supercell' and for larger cells it     |
|     might be more efficient to use real-space projection operators.         |
|     Therefore, try LREAL= Auto in the INCAR file.                           |
|     Mind: If you want to do very accurate calculations, keep the            |
|     reciprocal projection scheme (i.e. LREAL=.FALSE.).                      |
|                                                                             |
 -----------------------------------------------------------------------------

 LDA part: xc-table for Pade appr. of Perdew
 POSCAR found type information on POSCAR Li
 POSCAR found :  1 types and     432 ions
 POSCAR, INCAR and KPOINTS ok, starting setup
 FFT: planning ...
 WAVECAR not read
 entering main loop
       N       E                     dE             d eps       ncg     rms          rms(c)
DAV:   1    -0.240137672021E+03   -0.24014E+03   -0.10295E+05  3464   0.649E+02
DAV:   2    -0.748079885578E+03   -0.50794E+03   -0.46289E+03  4004   0.657E+01
DAV:   3    -0.785879928471E+03   -0.37800E+02   -0.34673E+02  4456   0.142E+01
DAV:   4    -0.787199353525E+03   -0.13194E+01   -0.13010E+01  4048   0.291E+00
DAV:   5    -0.787231280111E+03   -0.31927E-01   -0.31877E-01  4200   0.475E-01    0.110E+01
DAV:   6    -0.786274268750E+03    0.95701E+00   -0.14680E+01  4224   0.674E+00    0.994E+00
DAV:   7    -0.770993139634E+03    0.15281E+02   -0.14170E+01  4208   0.562E+00    0.474E+00
DAV:   8    -0.768781323450E+03    0.22118E+01   -0.86113E+00  3944   0.271E+00    0.239E+00
DAV:   9    -0.768551460682E+03    0.22986E+00   -0.35619E+00  3888   0.159E+00    0.134E+00
DAV:  10    -0.768592373931E+03   -0.40913E-01   -0.59562E-01  4048   0.892E-01    0.115E+00
DAV:  11    -0.768447343692E+03    0.14503E+00   -0.22388E-01  4024   0.563E-01    0.554E-01
DAV:  12    -0.768442841122E+03    0.45026E-02   -0.92187E-02  3800   0.248E-01    0.273E-01
DAV:  13    -0.768443803891E+03   -0.96277E-03   -0.19257E-02  4176   0.159E-01    0.206E-01
DAV:  14    -0.768440302808E+03    0.35011E-02   -0.61183E-03  4040   0.103E-01    0.112E-01
DAV:  15    -0.768439600484E+03    0.70232E-03   -0.20836E-03  3952   0.502E-02    0.526E-02
DAV:  16    -0.768439610523E+03   -0.10039E-04   -0.91389E-04  3912   0.296E-02    0.290E-02
DAV:  17    -0.768439540409E+03    0.70114E-04   -0.27551E-04  3936   0.190E-02    0.176E-02
DAV:  18    -0.768439514748E+03    0.25661E-04   -0.57733E-05  3824   0.815E-03    0.852E-03
DAV:  19    -0.768439508732E+03    0.60158E-05   -0.19023E-05  2424   0.451E-03
   1 F= -.76843951E+03 E0= -.76839669E+03  d E =-.856314E-01
