Li                                      
           1
    21.052800    0.000000    0.000000
     0.000000   21.052800    0.000000
     0.000000    0.000000   21.052800
   Li
   432
Direct configuration=     1
   0.98954721  0.97360471  0.98124406
   0.91204778  0.06695915  0.06652217
   0.82446242  0.16728077  0.15643078
   0.75928931  0.23113456  0.25954685
   0.66955772  0.30451154  0.31475252
   0.61867468  0.38211424  0.41454339
   0.48506745  0.49084158  0.46567041
   0.41831720  0.56581750  0.58381202
   0.33591476  0.66458233  0.65896132
   0.26008868  0.75717398  0.71958267
   0.16937972  0.83354826  0.84116461
   0.09950096  0.90532482  0.90251508
   0.09040144  0.91163433  0.07852381
   0.00113515  0.98583609  0.17587616
   0.91897824  0.07893690  0.26801333
   0.84072687  0.15532929  0.36689403
   0.74238601  0.24357538  0.41911204
   0.68178290  0.34648486  0.51079089
   0.57082159  0.41431050  0.57907004
   0.51382101  0.51522079  0.68073455
   0.39778254  0.57491158  0.75517033
   0.33704777  0.66142076  0.85056540
   0.26751341  0.75580388  0.90312675
   0.18567163  0.82460743  0.00288622
   0.16871357  0.83669158  0.15557017
   0.07787810  0.92390579  0.27458949
   0.00858694  0.00155049  0.34487308
   0.93640019  0.08091371  0.41172914
   0.83218656  0.17661934  0.50040678
   0.74514838  0.24688094  0.60241883
   0.67333416  0.34199994  0.66295203
   0.57998240  0.40614359  0.75495959
   0.51020120  0.52611762  0.82273068
   0.42107448  0.58718891  0.93651474
   0.32351898  0.65724817  0.00291711
   0.25447745  0.73558218  0.11002533
   0.23740813  0.76591677  0.22540294
   0.17235001  0.85270302  0.34643151
   0.08259408  0.91845840  0.41838890
   0.99129252  0.02040183  0.50259324
   0.91418283  0.09755773  0.56069682
   0.79462762  0.14715503  0.67165009
   0.74028786  0.23795410  0.73807181
   0.64678936  0.32633104  0.82426912
   0.56716362  0.40920125  0.93584062
   0.47804963  0.49973704  0.99684025
   0.40693645  0.57076863  0.11203650
   0.33546033  0.68021763  0.18538010
   0.32036778  0.66923329  0.32483869
   0.24500075  0.77057050  0.42927983
   0.14318951  0.86686048  0.50703152
   0.05709309  0.93842998  0.58319852
   0.01386906  0.04890347  0.66415387
   0.92609129  0.10032858  0.76016466
   0.81793768  0.16635912  0.81491440
   0.76262982  0.23159957  0.91905565
   0.67844192  0.34284687  0.97835190
   0.58024711  0.39697248  0.08254024
   0.48240132  0.49727530  0.16788589
   0.41679951  0.57348731  0.26609064
   0.40915731  0.59869375  0.40165126
   0.33494854  0.64256695  0.48568162
   0.26031767  0.77053006  0.60990158
   0.14795823  0.85963552  0.61977592
   0.06199616  0.92919392  0.75128408
   0.00222262  0.97736133  0.83465387
   0.91913357  0.08150600  0.90770372
   0.83615326  0.15308962  0.99009443
   0.73493483  0.23906777  0.03971421
   0.68915505  0.34356725  0.16314892
   0.60655766  0.41180812  0.22048710
   0.50755862  0.48473752  0.35040600
   0.08409938  0.08035737  0.92821153
   0.00196220  0.16986633  0.97666787
   0.92192070  0.23679642  0.07630451
   0.82519728  0.31997006  0.15459566
   0.79169464  0.41189190  0.24276635
   0.68901412  0.50113306  0.30746889
   0.59352400  0.56509327  0.42615499
   0.50520435  0.64520899  0.47276490
   0.41058037  0.72207222  0.58732870
   0.33962479  0.84339307  0.65232086
   0.25882723  0.92849323  0.73463623
   0.16507194  0.00747435  0.82815642
   0.14423437  0.99001959  0.97789353
   0.07492707  0.04786099  0.07234743
   0.99417723  0.12636555  0.14921915
   0.88860207  0.22583267  0.26574237
   0.81960668  0.32339874  0.32297638
   0.75007137  0.41575846  0.41054004
   0.67617864  0.48818054  0.49765781
   0.58693962  0.56062579  0.57985653
   0.49905445  0.65659332  0.64889153
   0.41070365  0.74183656  0.72750473
   0.36145657  0.81215340  0.83636857
   0.25530460  0.92696938  0.89997088
   0.26342430  0.93327125  0.08503607
   0.15268375  0.97973681  0.17368862
   0.08358909  0.08340868  0.21925103
   0.00886227  0.15566668  0.33385200
   0.91875052  0.25347024  0.42369523
   0.81477554  0.32337902  0.49960924
   0.77264976  0.40571998  0.57398662
   0.66538957  0.48828754  0.65535163
   0.61073376  0.56622308  0.73093660
   0.48697184  0.64950046  0.80774633
   0.41828016  0.72863496  0.94431496
   0.33735462  0.82307048  0.01303239
   0.35132153  0.84452261  0.17892144
   0.23889314  0.93995220  0.23438047
   0.17735995  0.00975443  0.36772601
   0.10482375  0.09482925  0.42969488
   0.01321395  0.17498974  0.50135814
   0.91235172  0.22754806  0.61461356
   0.83003393  0.32056788  0.70221680
   0.71855007  0.41697900  0.74810839
   0.65892495  0.49608814  0.83991787
   0.57355034  0.59706843  0.93997861
   0.51592443  0.63923700  0.00804399
   0.43376188  0.72891585  0.08694269
   0.42167637  0.74107476  0.26811367
   0.30435959  0.84895017  0.31920317
   0.26029856  0.93872119  0.43498258
   0.16147755  0.01456086  0.49742299
   0.07584768  0.10505452  0.57799285
   0.01640098  0.16249195  0.64864598
   0.92503272  0.22971013  0.75105665
   0.83485982  0.30821047  0.84256400
   0.76269862  0.41678402  0.90660646
   0.65704146  0.52231692  0.99558258
   0.60020835  0.59880701  0.07331963
   0.50863013  0.66304298  0.16012063
   0.50877856  0.66536280  0.35053027
   0.40889544  0.74577847  0.41181087
   0.36652089  0.85504927  0.52126814
   0.26754323  0.93714644  0.55306930
   0.16103890  0.01094998  0.66124082
   0.08886053  0.06586147  0.75467866
   0.02646593  0.15086999  0.83947590
   0.91119408  0.20019877  0.88636173
   0.85092172  0.31683052  0.99897551
   0.76569429  0.40250719  0.05599535
   0.69901095  0.47656805  0.16009815
   0.58480684  0.58907501  0.22860189
   0.15057661  0.15306573  0.85146833
   0.11116111  0.23447908  0.94399794
   0.99974310  0.32668065  0.99223729
   0.92346546  0.40486443  0.07536053
   0.83931546  0.52737636  0.16428828
   0.77196066  0.58948094  0.25681453
   0.66827160  0.68081127  0.32784893
   0.57384372  0.74869817  0.43600845
   0.50178371  0.85056587  0.48548533
   0.41768817  0.95558388  0.60650790
   0.33890127  0.02896366  0.64115109
   0.25425807  0.07079818  0.78022182
   0.25396373  0.08469032  0.92543559
   0.16903927  0.13815972  0.02403427
   0.06009183  0.25025631  0.07332987
   0.96828611  0.31375806  0.16235276
   0.90454199  0.42440600  0.24963484
   0.83280691  0.50244017  0.33513235
   0.75062546  0.58464518  0.39989141
   0.68728459  0.65040524  0.51472119
   0.56233857  0.77467561  0.57899276
   0.48312591  0.84354779  0.66537882
   0.40503477  0.92564582  0.73918390
   0.37614186  0.99532219  0.84686970
   0.34137371  0.96796361  0.98882295
   0.27529993  0.05580984  0.08975684
   0.15065095  0.13479534  0.12671178
   0.07694826  0.22729665  0.23479255
   0.98792658  0.31469773  0.34322389
   0.91844417  0.38363698  0.41588374
   0.83068862  0.50474779  0.46780911
   0.76224339  0.55947514  0.58767521
   0.65171426  0.68531240  0.64377827
   0.57996413  0.75412690  0.76070659
   0.49385295  0.83894146  0.83310845
   0.44382506  0.91250607  0.92988518
   0.44753507  0.91705254  0.10526183
   0.36795135  0.98473023  0.17519276
   0.24205388  0.08180257  0.24765401
   0.17887300  0.17754156  0.34225096
   0.08063738  0.26758893  0.42523803
   0.00286888  0.31350484  0.53451625
   0.91477385  0.42411464  0.58795574
   0.81821879  0.48468926  0.67192854
   0.72747790  0.56357747  0.74913247
   0.64859071  0.68252755  0.83640187
   0.58259842  0.76117732  0.89152610
   0.53188001  0.81383447  0.00241818
   0.49895523  0.83229971  0.18330640
   0.44467159  0.91881731  0.27765386
   0.33914035  0.00118846  0.35366436
   0.28264101  0.10221950  0.45217678
   0.19775442  0.18178164  0.51456688
   0.09347432  0.23492715  0.58822231
   0.00829013  0.31539853  0.67492976
   0.92390718  0.40561230  0.73864551
   0.82020529  0.51323699  0.81465206
   0.72368462  0.56079801  0.91010491
   0.67918103  0.68723501  0.97890010
   0.61554042  0.74351113  0.09585386
   0.55174583  0.76090244  0.26277908
   0.49721743  0.84507889  0.33942194
   0.42682892  0.89865945  0.42267149
   0.37376923  0.01945133  0.49752809
   0.24763610  0.07635027  0.56926000
   0.15562342  0.14644512  0.69696424
   0.09146138  0.24427911  0.74841974
   0.02284850  0.31972816  0.85907000
   0.90243435  0.42480601  0.90424397
   0.85142257  0.50396908  0.99490835
   0.76314479  0.60743919  0.08183132
   0.68473365  0.66234671  0.17812598
   0.23909688  0.24110865  0.73722260
   0.14521106  0.33732822  0.84507961
   0.08004909  0.43923406  0.94864155
   0.98351179  0.49810828  0.00925247
   0.90140597  0.61539822  0.07593332
   0.83697885  0.69805554  0.18452663
   0.75919926  0.76997484  0.26858841
   0.67250805  0.83395339  0.32703828
   0.60081624  0.92167678  0.42085094
   0.50352190  0.98742729  0.51246160
   0.43434613  0.09150041  0.57062352
   0.36205456  0.15911596  0.64425599
   0.33350294  0.15566052  0.82072088
   0.25115030  0.24210639  0.92538855
   0.15065242  0.32824272  0.01320341
   0.06739914  0.41327755  0.07285857
   0.96858690  0.50779840  0.16943577
   0.91104099  0.58540532  0.26731904
   0.84732794  0.67466745  0.34176539
   0.75548128  0.74554054  0.42781791
   0.67347342  0.83790044  0.50232105
   0.61218403  0.92143047  0.58046188
   0.52482172  0.00608098  0.66353826
   0.42978037  0.09709105  0.74983734
   0.41771245  0.08732569  0.91841058
   0.33714055  0.15492163  0.00574204
   0.27208376  0.25785530  0.06570607
   0.15473332  0.32234558  0.17782522
   0.05684474  0.38890115  0.25796940
   0.99552369  0.49683396  0.36538297
   0.91196139  0.58320747  0.41823975
   0.83537977  0.66557034  0.50373932
   0.76561786  0.76292180  0.56954290
   0.67389902  0.84375476  0.68227447
   0.57554964  0.90947205  0.72902225
   0.48836138  0.98595710  0.82551796
   0.49145792  0.98755726  0.01138555
   0.41897314  0.07614496  0.09510562
   0.33376053  0.17052192  0.16518706
   0.19970585  0.23189089  0.25069528
   0.16197220  0.33027364  0.31860134
   0.07213280  0.36465780  0.38711213
   0.99349525  0.49058761  0.48675788
   0.93240398  0.58349887  0.58480206
   0.80754397  0.66819249  0.67117701
   0.74699139  0.72775896  0.75248982
   0.66447394  0.84127134  0.81699942
   0.57539553  0.90857166  0.91265590
   0.57738759  0.92888915  0.10658824
   0.49405485  0.00951041  0.18451707
   0.40722711  0.09344934  0.26351941
   0.32891349  0.17518332  0.33338021
   0.26558471  0.27708763  0.43887042
   0.17124574  0.32724248  0.50201909
   0.05933580  0.40004438  0.57650045
   0.01110328  0.51177605  0.67587956
   0.89555931  0.58263035  0.74840123
   0.80734724  0.66219773  0.82613711
   0.74377859  0.76988732  0.89409452
   0.64844560  0.85049441  0.02678967
   0.66626818  0.85626089  0.17988477
   0.58087398  0.90893522  0.25872922
   0.49559854  0.00237618  0.34362870
   0.42416203  0.12075690  0.42361698
   0.35813466  0.20528187  0.49765758
   0.24180630  0.24878924  0.60140822
   0.13474231  0.33731707  0.67591994
   0.06452281  0.42028137  0.75432887
   0.00536527  0.50755405  0.82844286
   0.92157488  0.59945307  0.89547137
   0.81823205  0.65217108  0.97730528
   0.73829825  0.76563429  0.07721622
   0.33745061  0.32071369  0.67232376
   0.23780506  0.41974657  0.75166613
   0.16198504  0.50409137  0.83668691
   0.08151738  0.57575910  0.92470285
   0.99466240  0.68853922  0.98901952
   0.93171645  0.73389904  0.06484953
   0.83658166  0.85522579  0.17642730
   0.76911292  0.90148559  0.26134749
   0.67426951  0.00497838  0.34506377
   0.57046130  0.09039465  0.41627749
   0.50662772  0.17369356  0.49796910
   0.43940564  0.26115797  0.58612315
   0.42437149  0.25701166  0.73981740
   0.32114173  0.34305512  0.82941222
   0.24486896  0.40813151  0.90496958
   0.14176796  0.50620269  0.00354636
   0.05918002  0.56774251  0.07756860
   0.01137799  0.67929315  0.16810853
   0.93730478  0.75695142  0.25223193
   0.84757259  0.85684348  0.33834643
   0.78712851  0.94206536  0.40566472
   0.67334153  0.02727216  0.46902162
   0.56947002  0.09121523  0.56523925
   0.51837976  0.15655739  0.64158113
   0.50741108  0.16781498  0.83799304
   0.42691272  0.23855820  0.90086385
   0.33212909  0.33905776  0.99732116
   0.24082532  0.41988316  0.08763249
   0.16114425  0.47842221  0.18517901
   0.06292551  0.58755017  0.26417439
   0.96916728  0.67273428  0.34262954
   0.92185471  0.76240551  0.44338513
   0.83044703  0.84037337  0.49982624
   0.73247784  0.95003343  0.57001100
   0.64444014  0.03953947  0.67361595
   0.55769562  0.06892716  0.74656960
   0.57145258  0.05176420  0.92092100
   0.51050080  0.16885264  0.04596261
   0.39008103  0.26388246  0.08251846
   0.31867022  0.34887099  0.18158241
   0.24436729  0.39350227  0.24464726
   0.16167093  0.49923720  0.36187880
   0.09515265  0.59355656  0.41521640
   0.99715347  0.68292943  0.49322142
   0.92819737  0.76443371  0.62519523
   0.81767019  0.87432897  0.68771508
   0.73706461  0.96835341  0.75200579
   0.62601968  0.99287199  0.85082498
   0.68432796  0.96804064  0.97775818
   0.59653370  0.06801109  0.07546608
   0.49729334  0.15154229  0.14307395
   0.40562447  0.26156784  0.24484841
   0.33362826  0.34456538  0.30821882
   0.23798402  0.37565406  0.39843802
   0.14834148  0.47681250  0.49639896
   0.09126611  0.57332063  0.59490367
   0.00068801  0.66395506  0.68917606
   0.89035026  0.77418949  0.76610813
   0.84175158  0.84005489  0.82629211
   0.74053222  0.91125484  0.91777435
   0.74165086  0.90616750  0.06700186
   0.69910897  0.97766321  0.16208380
   0.57131993  0.06713692  0.23255736
   0.50581326  0.20539748  0.30740911
   0.39694606  0.28684582  0.38589543
   0.35359867  0.35872650  0.55465550
   0.23212028  0.43543775  0.58959239
   0.17552606  0.49965257  0.66748815
   0.10239004  0.57272931  0.74089359
   0.00518646  0.68330658  0.81832714
   0.92712055  0.74611911  0.90283967
   0.82441308  0.81938437  0.98599873
   0.43501867  0.41058805  0.58527336
   0.33591202  0.47466600  0.67213972
   0.26689009  0.60276947  0.72838431
   0.16000786  0.67814810  0.81372578
   0.09818741  0.79492246  0.89619930
   0.01094683  0.84249436  0.00686971
   0.91050268  0.89305951  0.06699399
   0.80768098  0.00188550  0.17006419
   0.76395614  0.06136266  0.26704748
   0.64674551  0.16228797  0.33212524
   0.57165134  0.27640653  0.39282933
   0.48583043  0.34735567  0.49987762
   0.49071964  0.32955638  0.67828452
   0.43657657  0.43203660  0.75873285
   0.31310324  0.52208958  0.84227293
   0.23739181  0.57655714  0.90787986
   0.15518196  0.66950865  0.98888475
   0.08554439  0.73704683  0.09474574
   0.02185786  0.83109122  0.18323512
   0.91923349  0.89202751  0.24413313
   0.85173735  0.99874071  0.33009993
   0.76139796  0.09690644  0.39726182
   0.66561528  0.19560869  0.48332235
   0.61350459  0.23546676  0.59460325
   0.56201123  0.25007657  0.73377609
   0.48169302  0.32769133  0.84570349
   0.40121995  0.43917289  0.90559963
   0.32986410  0.52673126  0.00934047
   0.23119858  0.58658486  0.12357319
   0.13895985  0.64415717  0.16401533
   0.09587991  0.74980812  0.26377884
   0.00208409  0.83338906  0.35811584
   0.91164347  0.93478331  0.42658282
   0.84109623  0.02012626  0.51228208
   0.73596348  0.09744538  0.57574157
   0.67658408  0.17001609  0.69438735
   0.64357809  0.13353397  0.84231011
   0.56957110  0.23701150  0.92911206
   0.47393912  0.33069054  0.99793492
   0.41042684  0.42855260  0.07054018
   0.31616497  0.50766828  0.17933938
   0.25234415  0.57602905  0.24269832
   0.18541336  0.66251341  0.35088545
   0.07772908  0.75440530  0.41621011
   0.98572313  0.84494005  0.49731845
   0.93336419  0.93360997  0.59121968
   0.84108798  0.04169422  0.65706990
   0.73894856  0.07331671  0.77254496
   0.73278025  0.06294626  0.90595664
   0.67296231  0.15186296  0.99124290
   0.58761365  0.24951982  0.08372659
   0.50469343  0.34479318  0.18894026
   0.40390389  0.42344738  0.24917132
   0.31574332  0.49290889  0.34284480
   0.24156172  0.58416136  0.41360110
   0.17617238  0.67338547  0.51335571
   0.07922443  0.74585779  0.59820278
   0.99077776  0.84124990  0.69664571
   0.92844978  0.93333522  0.76308220
   0.84911759  0.00044383  0.82343015
   0.83540562  0.98471823  0.99789829
   0.75059452  0.06153606  0.05951900
   0.68321813  0.17259256  0.14413632
   0.58840105  0.23872486  0.21963904
   0.50420025  0.35455696  0.29746166
   0.41164168  0.39083036  0.40827153
   0.32129684  0.49448588  0.47706807
   0.26334430  0.56828507  0.57824633
   0.17279121  0.67216870  0.65574782
   0.08076986  0.77956385  0.73818882
   0.00655315  0.86775312  0.80630183
   0.88578229  0.90143597  0.91125347
