 500 500   0   0
  0.2349479E+02  0.2273250E-08  0.2273250E-08  0.2273250E-08  0.5000000E-15
  1.000000000000000E-004
  CAR 
 Li                                      
      2.71293953     -3.58614811  301      0.02263437      1.00000000
     -3.586  0.0000E+00  0.0000E+00
     -3.565  0.0000E+00  0.0000E+00
     -3.544  0.0000E+00  0.0000E+00
     -3.523  0.0000E+00  0.0000E+00
     -3.502  0.0000E+00  0.0000E+00
     -3.481  0.0000E+00  0.0000E+00
     -3.460  0.1058E-13  0.2220E-15
     -3.439  0.2550E-10  0.5356E-12
     -3.418  0.2274E-07  0.4781E-09
     -3.397  0.7779E-05  0.1638E-06
     -3.376  0.1026E-02  0.2171E-04
     -3.355  0.5264E-01  0.1127E-02
     -3.334  0.1061E+01  0.2340E-01
     -3.313  0.8485E+01  0.2016E+00
     -3.292  0.2726E+02  0.7739E+00
     -3.271  0.3543E+02  0.1518E+01
     -3.250  0.1888E+02  0.1914E+01
     -3.229  0.7371E+01  0.2069E+01
     -3.208  0.2218E+02  0.2535E+01
     -3.187  0.6315E+02  0.3861E+01
     -3.166  0.9014E+02  0.5753E+01
     -3.145  0.7022E+02  0.7228E+01
     -3.124  0.3165E+02  0.7893E+01
     -3.103  0.1985E+02  0.8309E+01
     -3.082  0.4900E+02  0.9338E+01
     -3.061  0.8636E+02  0.1115E+02
     -3.040  0.8249E+02  0.1288E+02
     -3.019  0.4350E+02  0.1380E+02
     -2.998  0.2400E+02  0.1430E+02
     -2.977  0.5033E+02  0.1536E+02
     -2.956  0.9458E+02  0.1734E+02
     -2.935  0.1093E+03  0.1964E+02
     -2.914  0.7907E+02  0.2130E+02
     -2.893  0.4491E+02  0.2224E+02
     -2.872  0.6108E+02  0.2353E+02
     -2.851  0.1130E+03  0.2590E+02
     -2.830  0.1468E+03  0.2898E+02
     -2.809  0.1336E+03  0.3179E+02
     -2.788  0.7861E+02  0.3344E+02
     -2.767  0.3578E+02  0.3419E+02
     -2.746  0.4890E+02  0.3522E+02
     -2.725  0.8607E+02  0.3702E+02
     -2.704  0.8514E+02  0.3881E+02
     -2.683  0.4886E+02  0.3984E+02
     -2.662  0.4066E+02  0.4069E+02
     -2.641  0.8705E+02  0.4252E+02
     -2.620  0.1362E+03  0.4538E+02
     -2.599  0.1457E+03  0.4844E+02
     -2.578  0.1150E+03  0.5085E+02
     -2.557  0.7961E+02  0.5252E+02
     -2.536  0.1025E+03  0.5468E+02
     -2.515  0.1545E+03  0.5792E+02
     -2.494  0.1772E+03  0.6164E+02
     -2.473  0.1703E+03  0.6522E+02
     -2.452  0.1349E+03  0.6805E+02
     -2.431  0.7899E+02  0.6971E+02
     -2.410  0.5753E+02  0.7092E+02
     -2.389  0.8258E+02  0.7265E+02
     -2.368  0.8964E+02  0.7453E+02
     -2.347  0.6046E+02  0.7580E+02
     -2.326  0.5092E+02  0.7687E+02
     -2.305  0.8986E+02  0.7876E+02
     -2.284  0.1426E+03  0.8175E+02
     -2.263  0.1631E+03  0.8517E+02
     -2.242  0.1381E+03  0.8808E+02
     -2.221  0.1026E+03  0.9023E+02
     -2.200  0.1100E+03  0.9254E+02
     -2.179  0.1508E+03  0.9571E+02
     -2.158  0.1747E+03  0.9937E+02
     -2.137  0.1728E+03  0.1030E+03
     -2.116  0.1428E+03  0.1060E+03
     -2.095  0.1004E+03  0.1081E+03
     -2.074  0.9654E+02  0.1101E+03
     -2.053  0.1304E+03  0.1129E+03
     -2.032  0.1454E+03  0.1159E+03
     -2.011  0.1250E+03  0.1186E+03
     -1.990  0.1074E+03  0.1208E+03
     -1.969  0.1325E+03  0.1236E+03
     -1.948  0.1736E+03  0.1272E+03
     -1.927  0.1875E+03  0.1312E+03
     -1.906  0.1669E+03  0.1347E+03
     -1.885  0.1257E+03  0.1373E+03
     -1.864  0.1121E+03  0.1397E+03
     -1.843  0.1507E+03  0.1428E+03
     -1.822  0.1870E+03  0.1468E+03
     -1.801  0.1832E+03  0.1506E+03
     -1.780  0.1487E+03  0.1537E+03
     -1.759  0.1078E+03  0.1560E+03
     -1.738  0.9944E+02  0.1581E+03
     -1.717  0.1248E+03  0.1607E+03
     -1.696  0.1398E+03  0.1636E+03
     -1.675  0.1250E+03  0.1663E+03
     -1.654  0.9921E+02  0.1683E+03
     -1.633  0.1038E+03  0.1705E+03
     -1.612  0.1364E+03  0.1734E+03
     -1.591  0.1479E+03  0.1765E+03
     -1.570  0.1305E+03  0.1792E+03
     -1.549  0.1327E+03  0.1820E+03
     -1.528  0.1788E+03  0.1858E+03
     -1.507  0.2293E+03  0.1906E+03
     -1.486  0.2496E+03  0.1958E+03
     -1.465  0.2459E+03  0.2010E+03
     -1.444  0.2222E+03  0.2057E+03
     -1.423  0.1814E+03  0.2095E+03
     -1.402  0.1682E+03  0.2130E+03
     -1.381  0.1863E+03  0.2169E+03
     -1.360  0.1918E+03  0.2209E+03
     -1.339  0.1767E+03  0.2246E+03
     -1.318  0.1389E+03  0.2276E+03
     -1.297  0.1182E+03  0.2300E+03
     -1.276  0.1392E+03  0.2330E+03
     -1.255  0.1644E+03  0.2364E+03
     -1.234  0.1676E+03  0.2399E+03
     -1.213  0.1581E+03  0.2433E+03
     -1.192  0.1710E+03  0.2469E+03
     -1.171  0.2045E+03  0.2511E+03
     -1.151  0.2156E+03  0.2557E+03
     -1.130  0.2002E+03  0.2599E+03
     -1.109  0.1643E+03  0.2633E+03
     -1.088  0.1159E+03  0.2658E+03
     -1.067  0.9413E+02  0.2677E+03
     -1.046  0.9610E+02  0.2698E+03
     -1.025  0.9465E+02  0.2717E+03
     -1.004  0.1161E+03  0.2742E+03
     -0.983  0.1725E+03  0.2778E+03
     -0.962  0.2194E+03  0.2824E+03
     -0.941  0.2464E+03  0.2876E+03
     -0.920  0.2654E+03  0.2932E+03
     -0.899  0.2654E+03  0.2987E+03
     -0.878  0.2487E+03  0.3039E+03
     -0.857  0.2343E+03  0.3089E+03
     -0.836  0.2386E+03  0.3139E+03
     -0.815  0.2570E+03  0.3193E+03
     -0.794  0.2570E+03  0.3247E+03
     -0.773  0.2306E+03  0.3295E+03
     -0.752  0.1916E+03  0.3335E+03
     -0.731  0.1572E+03  0.3368E+03
     -0.710  0.1488E+03  0.3400E+03
     -0.689  0.1521E+03  0.3432E+03
     -0.668  0.1566E+03  0.3464E+03
     -0.647  0.1799E+03  0.3502E+03
     -0.626  0.2148E+03  0.3547E+03
     -0.605  0.2290E+03  0.3595E+03
     -0.584  0.2087E+03  0.3639E+03
     -0.563  0.1826E+03  0.3678E+03
     -0.542  0.1838E+03  0.3716E+03
     -0.521  0.2100E+03  0.3760E+03
     -0.500  0.2298E+03  0.3809E+03
     -0.479  0.2389E+03  0.3859E+03
     -0.458  0.2441E+03  0.3910E+03
     -0.437  0.2324E+03  0.3959E+03
     -0.416  0.2117E+03  0.4003E+03
     -0.395  0.2070E+03  0.4047E+03
     -0.374  0.2062E+03  0.4090E+03
     -0.353  0.1935E+03  0.4131E+03
     -0.332  0.1880E+03  0.4170E+03
     -0.311  0.2042E+03  0.4213E+03
     -0.290  0.2245E+03  0.4260E+03
     -0.269  0.2398E+03  0.4310E+03
     -0.248  0.2431E+03  0.4361E+03
     -0.227  0.2343E+03  0.4411E+03
     -0.206  0.2305E+03  0.4459E+03
     -0.185  0.2324E+03  0.4508E+03
     -0.164  0.2372E+03  0.4558E+03
     -0.143  0.2377E+03  0.4608E+03
     -0.122  0.2183E+03  0.4653E+03
     -0.101  0.2058E+03  0.4697E+03
     -0.080  0.2222E+03  0.4743E+03
     -0.059  0.2393E+03  0.4793E+03
     -0.038  0.2441E+03  0.4845E+03
     -0.017  0.2539E+03  0.4898E+03
      0.004  0.2622E+03  0.4953E+03
      0.025  0.2555E+03  0.5007E+03
      0.046  0.2485E+03  0.5059E+03
      0.067  0.2483E+03  0.5111E+03
      0.088  0.2484E+03  0.5163E+03
      0.109  0.2517E+03  0.5216E+03
      0.130  0.2567E+03  0.5270E+03
      0.151  0.2703E+03  0.5327E+03
      0.172  0.2951E+03  0.5389E+03
      0.193  0.3093E+03  0.5454E+03
      0.214  0.3080E+03  0.5518E+03
      0.235  0.3040E+03  0.5582E+03
      0.256  0.2977E+03  0.5645E+03
      0.277  0.2886E+03  0.5705E+03
      0.298  0.2810E+03  0.5764E+03
      0.319  0.2732E+03  0.5822E+03
      0.340  0.2563E+03  0.5875E+03
      0.361  0.2347E+03  0.5925E+03
      0.382  0.2251E+03  0.5972E+03
      0.403  0.2252E+03  0.6019E+03
      0.424  0.2285E+03  0.6067E+03
      0.445  0.2273E+03  0.6115E+03
      0.466  0.2213E+03  0.6161E+03
      0.487  0.2240E+03  0.6208E+03
      0.508  0.2249E+03  0.6256E+03
      0.529  0.2190E+03  0.6302E+03
      0.550  0.2137E+03  0.6347E+03
      0.571  0.2093E+03  0.6390E+03
      0.592  0.2082E+03  0.6434E+03
      0.613  0.2162E+03  0.6480E+03
      0.634  0.2259E+03  0.6527E+03
      0.655  0.2271E+03  0.6575E+03
      0.676  0.2288E+03  0.6623E+03
      0.697  0.2375E+03  0.6673E+03
      0.718  0.2415E+03  0.6723E+03
      0.739  0.2463E+03  0.6775E+03
      0.760  0.2589E+03  0.6829E+03
      0.781  0.2634E+03  0.6885E+03
      0.802  0.2563E+03  0.6939E+03
      0.823  0.2539E+03  0.6992E+03
      0.844  0.2499E+03  0.7044E+03
      0.865  0.2349E+03  0.7094E+03
      0.886  0.2243E+03  0.7141E+03
      0.907  0.2238E+03  0.7188E+03
      0.928  0.2312E+03  0.7236E+03
      0.949  0.2320E+03  0.7285E+03
      0.970  0.2197E+03  0.7331E+03
      0.991  0.2156E+03  0.7376E+03
      1.012  0.2208E+03  0.7423E+03
      1.033  0.2228E+03  0.7470E+03
      1.054  0.2186E+03  0.7515E+03
      1.075  0.2090E+03  0.7559E+03
      1.096  0.2058E+03  0.7603E+03
      1.117  0.2027E+03  0.7645E+03
      1.138  0.1928E+03  0.7686E+03
      1.159  0.1846E+03  0.7724E+03
      1.180  0.1765E+03  0.7761E+03
      1.201  0.1819E+03  0.7800E+03
      1.222  0.1887E+03  0.7839E+03
      1.243  0.1783E+03  0.7877E+03
      1.264  0.1693E+03  0.7912E+03
      1.285  0.1741E+03  0.7949E+03
      1.306  0.1812E+03  0.7987E+03
      1.327  0.1960E+03  0.8028E+03
      1.348  0.2121E+03  0.8072E+03
      1.369  0.2102E+03  0.8117E+03
      1.390  0.2122E+03  0.8161E+03
      1.411  0.2249E+03  0.8208E+03
      1.432  0.2178E+03  0.8254E+03
      1.453  0.2064E+03  0.8297E+03
      1.474  0.2071E+03  0.8341E+03
      1.495  0.2048E+03  0.8384E+03
      1.516  0.2012E+03  0.8426E+03
      1.537  0.1991E+03  0.8468E+03
      1.558  0.1943E+03  0.8509E+03
      1.579  0.1850E+03  0.8548E+03
      1.600  0.1778E+03  0.8585E+03
      1.621  0.1797E+03  0.8623E+03
      1.642  0.1750E+03  0.8659E+03
      1.663  0.1597E+03  0.8693E+03
      1.684  0.1574E+03  0.8726E+03
      1.705  0.1696E+03  0.8762E+03
      1.726  0.1748E+03  0.8798E+03
      1.747  0.1730E+03  0.8835E+03
      1.768  0.1790E+03  0.8872E+03
      1.789  0.1794E+03  0.8910E+03
      1.810  0.1696E+03  0.8945E+03
      1.831  0.1693E+03  0.8981E+03
      1.852  0.1724E+03  0.9017E+03
      1.873  0.1760E+03  0.9054E+03
      1.894  0.1773E+03  0.9091E+03
      1.915  0.1683E+03  0.9127E+03
      1.936  0.1648E+03  0.9161E+03
      1.957  0.1719E+03  0.9197E+03
      1.978  0.1701E+03  0.9233E+03
      1.999  0.1649E+03  0.9268E+03
      2.020  0.1697E+03  0.9303E+03
      2.041  0.1811E+03  0.9341E+03
      2.062  0.1889E+03  0.9381E+03
      2.083  0.1862E+03  0.9420E+03
      2.104  0.1800E+03  0.9458E+03
      2.125  0.1836E+03  0.9497E+03
      2.146  0.1918E+03  0.9537E+03
      2.167  0.1909E+03  0.9577E+03
      2.188  0.1881E+03  0.9616E+03
      2.209  0.1883E+03  0.9656E+03
      2.230  0.1925E+03  0.9696E+03
      2.251  0.2001E+03  0.9738E+03
      2.272  0.2032E+03  0.9781E+03
      2.293  0.1986E+03  0.9823E+03
      2.314  0.1968E+03  0.9864E+03
      2.335  0.1987E+03  0.9906E+03
      2.356  0.1875E+03  0.9945E+03
      2.377  0.1568E+03  0.9978E+03
      2.398  0.1114E+03  0.1000E+04
      2.419  0.6114E+02  0.1001E+04
      2.440  0.2247E+02  0.1002E+04
      2.461  0.4588E+01  0.1002E+04
      2.482  0.4453E+00  0.1002E+04
      2.503  0.1878E-01  0.1002E+04
      2.524  0.3279E-03  0.1002E+04
      2.545  0.2307E-05  0.1002E+04
      2.566  0.6415E-08  0.1002E+04
      2.587  0.6958E-11  0.1002E+04
      2.608  0.2644E-14  0.1002E+04
      2.629  0.0000E+00  0.1002E+04
      2.650  0.0000E+00  0.1002E+04
      2.671  0.0000E+00  0.1002E+04
      2.692  0.0000E+00  0.1002E+04
      2.713  0.0000E+00  0.1002E+04
