 running on   64 total cores
 distrk:  each k-point on   32 cores,    2 groups
 distr:  one band on   32 cores,    1 groups
 vasp.6.2.1 16May21 (build Nov 23 2021 15:40:41) complex                        
  
 POSCAR found type information on POSCAR Li
 POSCAR found :  1 types and     500 ions
 scaLAPACK will be used
 -----------------------------------------------------------------------------
|                                                                             |
|           W    W    AA    RRRRR   N    N  II  N    N   GGGG   !!!           |
|           W    W   A  A   R    R  NN   N  II  NN   N  G    G  !!!           |
|           W    W  A    A  R    R  N N  N  II  N N  N  G       !!!           |
|           W WW W  AAAAAA  RRRRR   N  N N  II  N  N N  G  GGG   !            |
|           WW  WW  A    A  R   R   N   NN  II  N   NN  G    G                |
|           W    W  A    A  R    R  N    N  II  N    N   GGGG   !!!           |
|                                                                             |
|     For optimal performance we recommend to set                             |
|       NCORE = 2 up to number-of-cores-per-socket                            |
|     NCORE specifies how many cores store one orbital (NPAR=cpu/NCORE).      |
|     This setting can greatly improve the performance of VASP for DFT.       |
|     The default, NCORE=1 might be grossly inefficient on modern             |
|     multi-core architectures or massively parallel machines. Do your        |
|     own testing! More info at https://www.vasp.at/wiki/index.php/NCORE      |
|     Unfortunately you need to use the default for GW and RPA                |
|     calculations (for HF NCORE is supported but not extensively tested      |
|     yet).                                                                   |
|                                                                             |
 -----------------------------------------------------------------------------

 -----------------------------------------------------------------------------
|                                                                             |
|               ----> ADVICE to this user running VASP <----                  |
|                                                                             |
|     You have a (more or less) 'large supercell' and for larger cells it     |
|     might be more efficient to use real-space projection operators.         |
|     Therefore, try LREAL= Auto in the INCAR file.                           |
|     Mind: If you want to do very accurate calculations, keep the            |
|     reciprocal projection scheme (i.e. LREAL=.FALSE.).                      |
|                                                                             |
 -----------------------------------------------------------------------------

 LDA part: xc-table for Pade appr. of Perdew
 POSCAR found type information on POSCAR Li
 POSCAR found :  1 types and     500 ions
 POSCAR, INCAR and KPOINTS ok, starting setup
 FFT: planning ...
 WAVECAR not read
 entering main loop
       N       E                     dE             d eps       ncg     rms          rms(c)
DAV:   1    -0.293310975294E+03   -0.29331E+03   -0.11634E+05  4008   0.642E+02
DAV:   2    -0.854459044187E+03   -0.56115E+03   -0.51259E+03  4620   0.635E+01
DAV:   3    -0.897117655186E+03   -0.42659E+02   -0.39204E+02  5264   0.138E+01
DAV:   4    -0.898658182014E+03   -0.15405E+01   -0.15184E+01  4776   0.287E+00
DAV:   5    -0.898697002957E+03   -0.38821E-01   -0.38743E-01  4952   0.472E-01    0.107E+01
DAV:   6    -0.891030255204E+03    0.76667E+01   -0.13543E+01  4888   0.477E+00    0.794E+00
DAV:   7    -0.885457240014E+03    0.55730E+01   -0.12684E+01  5112   0.482E+00    0.575E+00
DAV:   8    -0.881453399915E+03    0.40038E+01   -0.79773E+00  4912   0.291E+00    0.305E+00
DAV:   9    -0.880642411302E+03    0.81099E+00   -0.46401E+00  4608   0.166E+00    0.142E+00
DAV:  10    -0.880811096583E+03   -0.16869E+00   -0.10646E+00  4832   0.103E+00    0.140E+00
DAV:  11    -0.880577930522E+03    0.23317E+00   -0.44497E-01  4824   0.678E-01    0.628E-01
DAV:  12    -0.880573066742E+03    0.48638E-02   -0.12034E-01  4640   0.271E-01    0.348E-01
DAV:  13    -0.880576731734E+03   -0.36650E-02   -0.29776E-02  5056   0.192E-01    0.285E-01
DAV:  14    -0.880569188436E+03    0.75433E-02   -0.11870E-02  5056   0.136E-01    0.154E-01
DAV:  15    -0.880567403985E+03    0.17845E-02   -0.41650E-03  4744   0.697E-02    0.747E-02
DAV:  16    -0.880567933791E+03   -0.52981E-03   -0.16906E-03  4904   0.480E-02    0.700E-02
DAV:  17    -0.880567219680E+03    0.71411E-03   -0.10333E-03  4968   0.361E-02    0.248E-02
DAV:  18    -0.880567209199E+03    0.10481E-04   -0.31342E-04  4592   0.144E-02    0.135E-02
DAV:  19    -0.880567207968E+03    0.12308E-05   -0.50338E-05  4744   0.774E-03
   1 F= -.88056721E+03 E0= -.88051061E+03  d E =-.113193E+00
