Li                                      
           1
    22.732500   -0.000000    0.000000
    -0.000000   22.732500    0.000000
     0.000000    0.000000   22.732500
   Li
   500
Direct configuration=     1
   0.02877189  0.98603179  0.98790933
   0.01234435  0.10196223  0.09620025
   0.04768699  0.20515908  0.19750098
   0.01816984  0.28262592  0.30303803
   0.98200909  0.40011784  0.37965106
   0.97266021  0.49814485  0.48807710
   0.97503413  0.59881714  0.58383030
   0.00688219  0.70959547  0.68131500
   0.00329013  0.80545158  0.79743362
   0.99880437  0.87489021  0.90440518
   0.12720235  0.98480904  0.09985760
   0.11347257  0.09932830  0.19939432
   0.11662718  0.18290114  0.30595739
   0.10688184  0.31084682  0.41654090
   0.10021298  0.39524754  0.49778360
   0.09941119  0.48331984  0.56963911
   0.08939224  0.61960216  0.67149920
   0.08313391  0.69826702  0.81126693
   0.08748728  0.77822667  0.92562496
   0.11880579  0.86694924  0.01994131
   0.18151725  0.95627595  0.22494109
   0.21712604  0.07229705  0.27180304
   0.24543877  0.19680781  0.38198098
   0.22287012  0.30220928  0.46962752
   0.20963202  0.41260968  0.58314458
   0.18349643  0.52029837  0.66775621
   0.17075792  0.62030515  0.79702187
   0.19803317  0.69041821  0.92881694
   0.22511247  0.80014072  0.99515473
   0.18393019  0.91011070  0.12628708
   0.29763019  0.98920261  0.29880036
   0.30783765  0.08963801  0.42615175
   0.29150269  0.20912116  0.52075918
   0.28176235  0.27623102  0.58371383
   0.28122524  0.42656702  0.69081616
   0.30894303  0.51226248  0.80709891
   0.33007674  0.60903658  0.91199071
   0.30809643  0.69618476  0.02051017
   0.29225317  0.80510643  0.10627076
   0.30925048  0.88299812  0.19062198
   0.39071695  0.01796094  0.39560879
   0.40113607  0.10423238  0.49864678
   0.40772436  0.20372352  0.60507125
   0.37227497  0.28426933  0.71746593
   0.37508102  0.39831219  0.76899098
   0.39829787  0.51114266  0.87332174
   0.40652958  0.59683472  0.99698666
   0.40361222  0.68242990  0.09507647
   0.41415215  0.78826285  0.18219285
   0.41458153  0.88028669  0.27192560
   0.51953705  0.01392711  0.49782342
   0.50715060  0.10364894  0.58121108
   0.48230059  0.20252756  0.70278278
   0.50448956  0.30802484  0.80339627
   0.48079630  0.41662325  0.89995325
   0.48351300  0.54119403  0.01573251
   0.48909800  0.62391880  0.08800015
   0.50827853  0.69487503  0.20983237
   0.49534532  0.80010629  0.28685551
   0.49399499  0.90898453  0.38044956
   0.60512746  0.99603841  0.59194397
   0.57584405  0.09715069  0.70990852
   0.57733847  0.18472487  0.78155089
   0.56028135  0.32832463  0.88785299
   0.57441715  0.42225296  0.01809249
   0.60270277  0.53477955  0.11459648
   0.58888082  0.59177421  0.22186346
   0.58288947  0.69024386  0.33391942
   0.59505458  0.81320870  0.39344366
   0.61753823  0.91039561  0.50350820
   0.70699835  0.00703204  0.70728341
   0.71677565  0.08557320  0.79650518
   0.68859724  0.20780733  0.87466633
   0.69256817  0.30282144  0.97733933
   0.68985308  0.41369780  0.09199559
   0.69028574  0.47480955  0.22652050
   0.69188931  0.58471020  0.28924121
   0.71740382  0.68409104  0.38808972
   0.69173387  0.78984853  0.51775864
   0.68729593  0.91231096  0.58425477
   0.83483094  0.00085426  0.79292325
   0.82986872  0.11802895  0.90963539
   0.81639590  0.21608401  0.96799299
   0.81107326  0.30143352  0.09046487
   0.81527125  0.39685299  0.20366595
   0.80711626  0.48669159  0.31118456
   0.78722490  0.61537986  0.38581425
   0.77791993  0.71000230  0.51961338
   0.78710220  0.81915919  0.61364044
   0.79511094  0.90090419  0.70445960
   0.90321966  0.99349077  0.89871423
   0.92978924  0.10829678  0.97635224
   0.94210152  0.20906162  0.08098414
   0.89240266  0.26580155  0.18208547
   0.91487175  0.39471119  0.29050719
   0.89322510  0.48862258  0.37734893
   0.86299835  0.59875191  0.51072353
   0.90688271  0.71809013  0.58621740
   0.91044782  0.80589209  0.67956222
   0.91013193  0.87098531  0.79662218
   0.12124914  0.09672144  0.00581001
   0.12087310  0.21958650  0.08167178
   0.11361968  0.31699805  0.23164330
   0.07252840  0.41885896  0.31009949
   0.08216538  0.51033975  0.40849659
   0.08650382  0.58112879  0.49630357
   0.10469874  0.72128432  0.57093994
   0.11584913  0.78228513  0.68548560
   0.09799605  0.89928182  0.79004258
   0.11012502  0.97442998  0.89974087
   0.20249927  0.09091690  0.11403307
   0.19988199  0.20359714  0.20974049
   0.21672108  0.32221727  0.31855620
   0.19692911  0.42552518  0.41182979
   0.21047908  0.49300161  0.50589877
   0.20520799  0.60487790  0.57912944
   0.19918376  0.69957105  0.68829961
   0.18712891  0.77558171  0.82875488
   0.21531254  0.89065482  0.88396753
   0.20737349  0.98894195  0.98222657
   0.30940818  0.08757636  0.18472157
   0.29100437  0.20670142  0.29920962
   0.30862629  0.29854822  0.39785846
   0.31449127  0.40477064  0.47925206
   0.34165088  0.50599148  0.58755809
   0.29889050  0.58449023  0.68106308
   0.28428173  0.67419654  0.77470106
   0.31165159  0.78460865  0.87491160
   0.31035014  0.87836377  0.02460595
   0.28405444  0.97526281  0.10031552
   0.37290137  0.11776478  0.30141505
   0.39806287  0.19956351  0.40837742
   0.39013053  0.29010933  0.50113104
   0.37814986  0.38629817  0.61828512
   0.41847146  0.49262790  0.68468005
   0.41001327  0.59970924  0.78651394
   0.39876729  0.71415408  0.90015796
   0.40252360  0.79496899  0.99552949
   0.39373532  0.90059979  0.09915356
   0.39748262  0.99945545  0.21351891
   0.51202361  0.10528108  0.39894677
   0.49201328  0.20252809  0.51475124
   0.49039181  0.28521250  0.62981007
   0.52946712  0.37408787  0.69009172
   0.50330872  0.48387268  0.78531510
   0.50044297  0.61421752  0.88878486
   0.49664189  0.70512826  0.96381845
   0.51033390  0.80252129  0.11127747
   0.51138492  0.90881534  0.18509168
   0.50374158  0.99482899  0.31515793
   0.60714018  0.09538589  0.50460182
   0.58885175  0.17711619  0.62791239
   0.62697079  0.29275341  0.70318878
   0.60055898  0.40360913  0.82219558
   0.57571996  0.50455592  0.92325870
   0.62241594  0.62474713  0.02607093
   0.57976219  0.68418942  0.08331825
   0.59796163  0.80650008  0.19361630
   0.59501633  0.92065182  0.28647364
   0.61574365  0.99527056  0.42033568
   0.69862709  0.09134792  0.60556144
   0.70917013  0.15839115  0.70234362
   0.68519311  0.28519411  0.79659876
   0.68166551  0.39325817  0.89773966
   0.68451117  0.51823913  0.98357262
   0.68652961  0.59216439  0.12023137
   0.68065825  0.70053322  0.21071890
   0.66790563  0.80507264  0.30662453
   0.70112610  0.89962455  0.38510940
   0.71343248  0.01929307  0.48748538
   0.81515011  0.10530043  0.71245302
   0.82579335  0.21773637  0.81010263
   0.81212589  0.30161426  0.89677029
   0.78733019  0.40457189  0.97342003
   0.76946475  0.49886265  0.11346248
   0.78393761  0.59184309  0.22769887
   0.78321544  0.72131630  0.29696460
   0.78810336  0.79480282  0.38899338
   0.77975549  0.91390418  0.50811473
   0.78647828  0.97267822  0.61129499
   0.93331698  0.10373612  0.82005069
   0.93811787  0.22357590  0.89775541
   0.90652296  0.31009760  0.98306529
   0.89545632  0.40710956  0.09406003
   0.90165522  0.50721305  0.20768291
   0.90461427  0.59936561  0.32213806
   0.87669620  0.71380742  0.41877420
   0.88698503  0.79736177  0.48745056
   0.89287385  0.88731603  0.60539220
   0.92069763  0.01015835  0.69787664
   0.02283350  0.07047791  0.89299197
   0.01810488  0.21551403  0.99244821
   0.02017010  0.29356515  0.09887166
   0.98867949  0.40274872  0.21988097
   0.99698992  0.52415625  0.32495596
   0.97287897  0.59375192  0.44539327
   0.98306663  0.69193531  0.48586922
   0.01205025  0.82194222  0.59312645
   0.01131473  0.87876569  0.70569855
   0.98839317  0.99135696  0.82141731
   0.20006700  0.22261663  0.98256878
   0.20555834  0.32742380  0.10350589
   0.17531021  0.43137320  0.20801741
   0.17120061  0.50843466  0.31280048
   0.19945056  0.62131035  0.41256589
   0.22242561  0.70367179  0.50373118
   0.20949809  0.77309884  0.59652195
   0.21250408  0.87233036  0.71326845
   0.18826428  0.98358500  0.78402903
   0.20691009  0.10761337  0.90930005
   0.26758912  0.22037040  0.08719571
   0.29105936  0.33450470  0.21286845
   0.28338463  0.40764741  0.31245749
   0.32005006  0.53307964  0.37882743
   0.32233344  0.62846167  0.48680373
   0.33769254  0.70918536  0.61917465
   0.31064379  0.77707756  0.70556572
   0.28685912  0.87336313  0.79350202
   0.27998286  0.96180096  0.90129489
   0.28195147  0.08765671  0.99512657
   0.38842521  0.21648815  0.17029237
   0.40828856  0.29164144  0.29615182
   0.39238364  0.42348081  0.39482050
   0.40411205  0.49728882  0.50908434
   0.42424732  0.60873786  0.61861328
   0.42162919  0.72052731  0.70688826
   0.38541242  0.84564450  0.80607593
   0.39688782  0.90904246  0.91994381
   0.39326305  0.02258642  0.99822980
   0.37435358  0.11586800  0.09270117
   0.50376665  0.22521492  0.28106857
   0.50947036  0.29661268  0.38639870
   0.48313983  0.39948606  0.50857219
   0.50408240  0.49300337  0.58102711
   0.52030044  0.59497045  0.72045316
   0.51122198  0.71419986  0.82930691
   0.52166727  0.80520592  0.89674877
   0.51165107  0.91557207  0.01064639
   0.50689104  0.00241973  0.10010212
   0.50096866  0.07188523  0.19618149
   0.62331384  0.20066645  0.41113810
   0.62323471  0.29766047  0.51291861
   0.62076294  0.38835317  0.59387691
   0.58823824  0.50096828  0.68743341
   0.61329276  0.59472277  0.80241048
   0.61064164  0.68942140  0.90079776
   0.63857763  0.80183455  0.00492145
   0.61539484  0.91428389  0.10200358
   0.60754494  0.02564576  0.19134101
   0.60012518  0.10035058  0.31647693
   0.69885370  0.15961095  0.52316961
   0.71067845  0.25236648  0.60385250
   0.68690010  0.38198841  0.71496945
   0.69556166  0.50196480  0.79198494
   0.66601885  0.59469305  0.90805609
   0.72174844  0.68615861  0.00311306
   0.68635254  0.77924391  0.09541294
   0.71974201  0.90085927  0.20597612
   0.70433061  0.00708351  0.29263490
   0.70382991  0.11110439  0.40343530
   0.83335590  0.18122488  0.62279071
   0.79704202  0.28297238  0.70865956
   0.78732976  0.37144370  0.80096051
   0.79567913  0.50611209  0.87489051
   0.78335810  0.57475457  0.99957319
   0.77501678  0.71172788  0.11559350
   0.78150435  0.82241408  0.19810230
   0.81794722  0.89388259  0.28791494
   0.79817549  0.99061386  0.39970638
   0.80044754  0.06720751  0.52034052
   0.93564023  0.19378398  0.70573574
   0.92475004  0.31440132  0.82717016
   0.89402360  0.41064526  0.88937709
   0.89070123  0.50354397  0.01714093
   0.87615564  0.59515466  0.10985537
   0.87436590  0.70133329  0.20601041
   0.90142091  0.78091706  0.28297346
   0.88534241  0.90789655  0.40080491
   0.88392651  0.00211389  0.53786531
   0.92131431  0.07515871  0.60403912
   0.02615405  0.20574861  0.77502239
   0.99639215  0.32555441  0.89722576
   0.99111862  0.41243977  0.00067841
   0.98674534  0.50823399  0.12155642
   0.98592238  0.58723920  0.19178224
   0.00355912  0.69786577  0.32890191
   0.97020923  0.80412600  0.43228148
   0.98071313  0.88908292  0.49867344
   0.99709174  0.96125201  0.60436288
   0.02128360  0.09233204  0.70153736
   0.08475296  0.19914477  0.90265900
   0.11431642  0.33426322  0.99168637
   0.10936703  0.39135443  0.10283876
   0.09013437  0.51309805  0.19373840
   0.07904036  0.60878180  0.31152410
   0.11873059  0.71777546  0.42931041
   0.10496071  0.81801479  0.49905418
   0.11071831  0.89071727  0.61347822
   0.11253007  0.02677877  0.68740992
   0.10947015  0.09438320  0.82113483
   0.30925480  0.30802833  0.98847929
   0.28400050  0.42407847  0.11200074
   0.28706728  0.49769874  0.21392217
   0.29872739  0.61580928  0.29374845
   0.30880020  0.71040385  0.37215447
   0.29280837  0.81531760  0.51393742
   0.29380429  0.91933403  0.58978054
   0.27257962  0.02085756  0.70209348
   0.30427838  0.07988237  0.82472781
   0.31802909  0.20923996  0.89972828
   0.37435722  0.31412229  0.10759078
   0.42332800  0.42816133  0.20244331
   0.41478631  0.51038159  0.29866193
   0.43656402  0.60810514  0.38286241
   0.41889201  0.71767628  0.50273791
   0.40611551  0.82711372  0.59626130
   0.40240174  0.91487680  0.69668833
   0.39880119  0.97314411  0.78559491
   0.37343998  0.07520525  0.90792674
   0.39735051  0.19601726  0.99702225
   0.48612472  0.32605421  0.18108169
   0.47474012  0.40273852  0.29835478
   0.51003383  0.48166388  0.42744893
   0.49905225  0.58692334  0.48294484
   0.50553972  0.72079409  0.61501124
   0.49980022  0.82563546  0.74278277
   0.48356594  0.91024668  0.79609976
   0.50668451  0.99108216  0.90236042
   0.50322742  0.10818000  0.98370810
   0.51793316  0.19153224  0.12165124
   0.59135560  0.29551533  0.27043597
   0.58112898  0.39365141  0.41293218
   0.60208031  0.48432910  0.49790593
   0.58363685  0.56610417  0.60621722
   0.59365266  0.69768187  0.71629115
   0.61874061  0.82016439  0.79436828
   0.61404669  0.91212293  0.87605574
   0.60092414  0.00367860  0.00533446
   0.60805510  0.08783576  0.08099329
   0.58112830  0.19662468  0.16206556
   0.70061053  0.28966551  0.38434681
   0.72055855  0.36545509  0.47944671
   0.71501058  0.47026767  0.59020882
   0.68511939  0.58739120  0.69335230
   0.72335860  0.68891092  0.77148685
   0.71418089  0.77794739  0.88955379
   0.69684815  0.91062879  0.98114035
   0.70910126  0.00981669  0.09162877
   0.69834669  0.10881899  0.18068735
   0.67207565  0.19191818  0.25745029
   0.79184245  0.29719907  0.49149006
   0.77889806  0.38144941  0.60335344
   0.79674441  0.51552042  0.71503715
   0.78746753  0.63668281  0.79463601
   0.75904420  0.70162357  0.91440501
   0.78122349  0.80664205  0.01305934
   0.79191697  0.92565184  0.08190087
   0.81970178  0.00850772  0.21794227
   0.80518706  0.09618528  0.28426331
   0.78558762  0.18413938  0.38482939
   0.90022126  0.28872410  0.58548397
   0.87825473  0.38461897  0.70724021
   0.88839711  0.54216010  0.78576437
   0.86674624  0.62198909  0.90903370
   0.86174037  0.69620645  0.99476414
   0.87851124  0.79033007  0.11073917
   0.88489152  0.88027016  0.19108261
   0.91195522  0.99432127  0.30304038
   0.87129156  0.07514230  0.41226086
   0.91338772  0.15569078  0.48726600
   0.02232914  0.32199336  0.69805101
   0.99532077  0.42074083  0.80081525
   0.99052954  0.52529671  0.90477534
   0.98361015  0.59209238  0.00443382
   0.98482158  0.69285217  0.07616050
   0.99341087  0.77464046  0.17962384
   0.95136717  0.87497330  0.30989787
   0.99397753  0.00662533  0.43551945
   0.99918796  0.10056264  0.48913394
   0.02744964  0.22359779  0.61008334
   0.11093981  0.30060113  0.79470598
   0.10275189  0.41947120  0.86592342
   0.07832358  0.49898417  0.01872901
   0.09982369  0.60035760  0.09908293
   0.06634033  0.71474028  0.19361533
   0.08613949  0.78743329  0.31432655
   0.09446564  0.88571660  0.39441639
   0.10499824  0.97681719  0.49141261
   0.10495331  0.11116884  0.59295041
   0.12564254  0.21250094  0.71478125
   0.18063848  0.30291189  0.90959988
   0.20303678  0.42697116  0.99384142
   0.19791007  0.51273085  0.11827700
   0.17794958  0.62779313  0.22104637
   0.18035153  0.71777834  0.29118108
   0.20942336  0.79692280  0.38586604
   0.20445031  0.90589912  0.49559827
   0.21213184  0.99475441  0.60916387
   0.19029489  0.11382995  0.70755522
   0.20636903  0.18947224  0.82197348
   0.43635329  0.41138966  0.00334471
   0.35156954  0.51173823  0.11740280
   0.42646995  0.60965530  0.22666670
   0.44450231  0.68583927  0.30721105
   0.41203187  0.78920836  0.41126212
   0.41470965  0.90290511  0.49179178
   0.39574355  0.02138872  0.59465270
   0.39288929  0.09626286  0.68742118
   0.38036193  0.21675497  0.80796035
   0.40322905  0.30563471  0.89542373
   0.49613303  0.41161030  0.11578751
   0.51016685  0.51256507  0.20020350
   0.52822790  0.59229104  0.32343967
   0.51050922  0.69736784  0.41708359
   0.53073686  0.79728356  0.50192248
   0.49765900  0.91162807  0.58989827
   0.49066993  0.99674232  0.67809560
   0.47096827  0.10468136  0.81453692
   0.47892132  0.21974820  0.90364819
   0.50021809  0.29523492  0.03164838
   0.59520746  0.37192850  0.17925117
   0.59797945  0.49182402  0.31610977
   0.62435067  0.60174959  0.41490676
   0.60974282  0.71623865  0.51714073
   0.59472689  0.83317528  0.63085217
   0.60756633  0.92297442  0.75140080
   0.59439907  0.01658215  0.78884882
   0.57182720  0.10654233  0.88975528
   0.60020861  0.19739551  0.98055586
   0.58844623  0.29975264  0.09188005
   0.70241968  0.37178459  0.31162117
   0.70637164  0.48628427  0.41154672
   0.71138597  0.58551772  0.51627711
   0.67009854  0.67729953  0.62039618
   0.70257554  0.80499732  0.70126677
   0.71994900  0.90816721  0.81990582
   0.69187693  0.00287168  0.88416406
   0.71179702  0.06032302  0.97684015
   0.70465926  0.19697980  0.06333971
   0.70136308  0.29176434  0.18406582
   0.79713893  0.35085302  0.39758345
   0.80249786  0.48290358  0.47444772
   0.79054997  0.59037926  0.58050309
   0.79641301  0.69607719  0.66728295
   0.81709004  0.76860926  0.78611790
   0.80792675  0.88326231  0.87602049
   0.79733460  0.99392329  0.98720089
   0.82015001  0.09857621  0.05670454
   0.80287060  0.14176987  0.16304424
   0.78955601  0.26637010  0.27798429
   0.88721219  0.38592050  0.48645157
   0.87359343  0.49583859  0.60245847
   0.89482754  0.61138138  0.68865530
   0.88956202  0.71015471  0.77146559
   0.87738251  0.76752911  0.90483090
   0.91144310  0.87510337  0.99182429
   0.89745464  0.99112137  0.05801261
   0.91879421  0.11674109  0.20181163
   0.90701141  0.16605907  0.30803741
   0.91670725  0.28404885  0.39130286
   0.99565661  0.36764188  0.58108696
   0.00454408  0.49974913  0.68032986
   0.98574761  0.59657332  0.77985441
   0.99321821  0.69691717  0.90406578
   0.98420301  0.76359227  0.99842361
   0.01275767  0.89112876  0.09739753
   0.99726164  0.00803487  0.17843113
   0.03854057  0.10046349  0.31316604
   0.99130004  0.18236298  0.39433015
   0.98861039  0.30441699  0.49944454
   0.10803879  0.39340219  0.69934759
   0.10523729  0.53048888  0.80047708
   0.08081755  0.58465474  0.94608695
   0.11058682  0.70176194  0.00555287
   0.10877777  0.77404583  0.07499065
   0.09549732  0.88111986  0.21086558
   0.08086235  0.98444205  0.31808953
   0.11355917  0.08412669  0.41474649
   0.10350813  0.19406540  0.47730007
   0.12346373  0.30269876  0.58995622
   0.20449129  0.43739933  0.81504047
   0.21761403  0.54324801  0.92163852
   0.21051755  0.60494474  0.01700523
   0.21193963  0.70847981  0.10902877
   0.19410286  0.81601956  0.22076663
   0.19542643  0.91006502  0.29114948
   0.20658666  0.02181665  0.39106168
   0.19753106  0.09707830  0.52720857
   0.17462651  0.20992848  0.60666803
   0.21960399  0.29973386  0.70706882
   0.31350534  0.40671211  0.91319287
   0.30392722  0.49328714  0.00702947
   0.29109986  0.59087322  0.12623608
   0.31230031  0.72021419  0.21261384
   0.31772003  0.81410190  0.29384182
   0.30819828  0.92179957  0.41273955
   0.29518049  0.00741537  0.51547819
   0.29585795  0.12525705  0.61691345
   0.28344472  0.19799474  0.71788533
   0.26755334  0.31554019  0.79755375
