 500 500   0   0
  0.1852332E+02  0.2100050E-08  0.2100050E-08  0.2100050E-08  0.5000000E-15
  1.000000000000000E-004
  CAR 
 Li                                      
      3.82366892     -3.30788415  301      0.63539580      1.00000000
     -3.308  0.0000E+00  0.0000E+00
     -3.284  0.0000E+00  0.0000E+00
     -3.260  0.0000E+00  0.0000E+00
     -3.237  0.0000E+00  0.0000E+00
     -3.213  0.0000E+00  0.0000E+00
     -3.189  0.0000E+00  0.0000E+00
     -3.165  0.0000E+00  0.0000E+00
     -3.141  0.4027E-11  0.9573E-13
     -3.118  0.1057E-07  0.2514E-09
     -3.094  0.8128E-05  0.1935E-06
     -3.070  0.1847E-02  0.4409E-04
     -3.046  0.1258E+00  0.3033E-02
     -3.023  0.2616E+01  0.6522E-01
     -2.999  0.1701E+02  0.4696E+00
     -2.975  0.3531E+02  0.1309E+01
     -2.951  0.2366E+02  0.1871E+01
     -2.928  0.5787E+01  0.2009E+01
     -2.904  0.9814E+01  0.2242E+01
     -2.880  0.4602E+02  0.3336E+01
     -2.856  0.8992E+02  0.5474E+01
     -2.832  0.7562E+02  0.7271E+01
     -2.809  0.2725E+02  0.7919E+01
     -2.785  0.1041E+02  0.8167E+01
     -2.761  0.3804E+02  0.9071E+01
     -2.737  0.8536E+02  0.1110E+02
     -2.714  0.8273E+02  0.1307E+02
     -2.690  0.3417E+02  0.1388E+02
     -2.666  0.1264E+02  0.1418E+02
     -2.642  0.4221E+02  0.1518E+02
     -2.619  0.1011E+03  0.1759E+02
     -2.595  0.1131E+03  0.2028E+02
     -2.571  0.5932E+02  0.2169E+02
     -2.547  0.2152E+02  0.2220E+02
     -2.523  0.5058E+02  0.2340E+02
     -2.500  0.1272E+03  0.2642E+02
     -2.476  0.1665E+03  0.3038E+02
     -2.452  0.1112E+03  0.3302E+02
     -2.428  0.3665E+02  0.3390E+02
     -2.405  0.1912E+02  0.3435E+02
     -2.381  0.6335E+02  0.3586E+02
     -2.357  0.1011E+03  0.3826E+02
     -2.333  0.5951E+02  0.3968E+02
     -2.309  0.1609E+02  0.4006E+02
     -2.286  0.3049E+02  0.4078E+02
     -2.262  0.1033E+03  0.4324E+02
     -2.238  0.1659E+03  0.4718E+02
     -2.214  0.1372E+03  0.5044E+02
     -2.191  0.6096E+02  0.5189E+02
     -2.167  0.4980E+02  0.5308E+02
     -2.143  0.1290E+03  0.5614E+02
     -2.119  0.2112E+03  0.6116E+02
     -2.096  0.2048E+03  0.6603E+02
     -2.072  0.1214E+03  0.6892E+02
     -2.048  0.4443E+02  0.6997E+02
     -2.024  0.3599E+02  0.7083E+02
     -2.000  0.7593E+02  0.7263E+02
     -1.977  0.8687E+02  0.7470E+02
     -1.953  0.4589E+02  0.7579E+02
     -1.929  0.2349E+02  0.7635E+02
     -1.905  0.7538E+02  0.7814E+02
     -1.882  0.1657E+03  0.8208E+02
     -1.858  0.1848E+03  0.8647E+02
     -1.834  0.1132E+03  0.8916E+02
     -1.810  0.4761E+02  0.9029E+02
     -1.786  0.7897E+02  0.9217E+02
     -1.763  0.1722E+03  0.9626E+02
     -1.739  0.2209E+03  0.1015E+03
     -1.715  0.1762E+03  0.1057E+03
     -1.691  0.8089E+02  0.1076E+03
     -1.668  0.3810E+02  0.1085E+03
     -1.644  0.9063E+02  0.1107E+03
     -1.620  0.1608E+03  0.1145E+03
     -1.596  0.1470E+03  0.1180E+03
     -1.573  0.7652E+02  0.1198E+03
     -1.549  0.6711E+02  0.1214E+03
     -1.525  0.1537E+03  0.1251E+03
     -1.501  0.2227E+03  0.1304E+03
     -1.477  0.1959E+03  0.1350E+03
     -1.454  0.1043E+03  0.1375E+03
     -1.430  0.6006E+02  0.1389E+03
     -1.406  0.1185E+03  0.1417E+03
     -1.382  0.1975E+03  0.1464E+03
     -1.359  0.2052E+03  0.1513E+03
     -1.335  0.1349E+03  0.1545E+03
     -1.311  0.6403E+02  0.1561E+03
     -1.287  0.7278E+02  0.1578E+03
     -1.264  0.1365E+03  0.1610E+03
     -1.240  0.1511E+03  0.1646E+03
     -1.216  0.1029E+03  0.1671E+03
     -1.192  0.6324E+02  0.1686E+03
     -1.168  0.9412E+02  0.1708E+03
     -1.145  0.1315E+03  0.1739E+03
     -1.121  0.1259E+03  0.1769E+03
     -1.097  0.9458E+02  0.1792E+03
     -1.073  0.8566E+02  0.1812E+03
     -1.050  0.1656E+03  0.1851E+03
     -1.026  0.2656E+03  0.1915E+03
     -1.002  0.3047E+03  0.1987E+03
     -0.978  0.2647E+03  0.2050E+03
     -0.954  0.1643E+03  0.2089E+03
     -0.931  0.1094E+03  0.2115E+03
     -0.907  0.1578E+03  0.2153E+03
     -0.883  0.2108E+03  0.2203E+03
     -0.859  0.1911E+03  0.2248E+03
     -0.836  0.1152E+03  0.2275E+03
     -0.812  0.6972E+02  0.2292E+03
     -0.788  0.9833E+02  0.2315E+03
     -0.764  0.1572E+03  0.2353E+03
     -0.741  0.1687E+03  0.2393E+03
     -0.717  0.1430E+03  0.2427E+03
     -0.693  0.1635E+03  0.2466E+03
     -0.669  0.2110E+03  0.2516E+03
     -0.645  0.2277E+03  0.2570E+03
     -0.622  0.2055E+03  0.2619E+03
     -0.598  0.1282E+03  0.2649E+03
     -0.574  0.5304E+02  0.2662E+03
     -0.550  0.5699E+02  0.2676E+03
     -0.527  0.8882E+02  0.2697E+03
     -0.503  0.7851E+02  0.2715E+03
     -0.479  0.8059E+02  0.2734E+03
     -0.455  0.1599E+03  0.2772E+03
     -0.431  0.2441E+03  0.2830E+03
     -0.408  0.2702E+03  0.2895E+03
     -0.384  0.2659E+03  0.2958E+03
     -0.360  0.2391E+03  0.3015E+03
     -0.336  0.2148E+03  0.3066E+03
     -0.313  0.2063E+03  0.3115E+03
     -0.289  0.2217E+03  0.3168E+03
     -0.265  0.2470E+03  0.3226E+03
     -0.241  0.2330E+03  0.3282E+03
     -0.218  0.1861E+03  0.3326E+03
     -0.194  0.1438E+03  0.3360E+03
     -0.170  0.1350E+03  0.3392E+03
     -0.146  0.1430E+03  0.3426E+03
     -0.122  0.1489E+03  0.3462E+03
     -0.099  0.1665E+03  0.3501E+03
     -0.075  0.1740E+03  0.3542E+03
     -0.051  0.1666E+03  0.3582E+03
     -0.027  0.1644E+03  0.3621E+03
     -0.004  0.1725E+03  0.3662E+03
      0.020  0.1892E+03  0.3707E+03
      0.044  0.2152E+03  0.3758E+03
      0.068  0.2387E+03  0.3815E+03
      0.091  0.2531E+03  0.3875E+03
      0.115  0.2412E+03  0.3933E+03
      0.139  0.2078E+03  0.3982E+03
      0.163  0.1947E+03  0.4028E+03
      0.187  0.1942E+03  0.4074E+03
      0.210  0.1803E+03  0.4117E+03
      0.234  0.1514E+03  0.4153E+03
      0.258  0.1551E+03  0.4190E+03
      0.282  0.2013E+03  0.4238E+03
      0.305  0.2252E+03  0.4292E+03
      0.329  0.2223E+03  0.4344E+03
      0.353  0.2166E+03  0.4396E+03
      0.377  0.2111E+03  0.4446E+03
      0.401  0.1991E+03  0.4493E+03
      0.424  0.1875E+03  0.4538E+03
      0.448  0.1894E+03  0.4583E+03
      0.472  0.2027E+03  0.4631E+03
      0.496  0.2074E+03  0.4681E+03
      0.519  0.2164E+03  0.4732E+03
      0.543  0.2267E+03  0.4786E+03
      0.567  0.2303E+03  0.4841E+03
      0.591  0.2306E+03  0.4895E+03
      0.614  0.2345E+03  0.4951E+03
      0.638  0.2329E+03  0.5007E+03
      0.662  0.2238E+03  0.5060E+03
      0.686  0.2166E+03  0.5111E+03
      0.710  0.2169E+03  0.5163E+03
      0.733  0.2319E+03  0.5218E+03
      0.757  0.2540E+03  0.5278E+03
      0.781  0.2606E+03  0.5340E+03
      0.805  0.2567E+03  0.5401E+03
      0.828  0.2706E+03  0.5466E+03
      0.852  0.2794E+03  0.5532E+03
      0.876  0.2656E+03  0.5595E+03
      0.900  0.2590E+03  0.5657E+03
      0.924  0.2576E+03  0.5718E+03
      0.947  0.2516E+03  0.5778E+03
      0.971  0.2424E+03  0.5835E+03
      0.995  0.2352E+03  0.5891E+03
      1.019  0.2244E+03  0.5945E+03
      1.042  0.2062E+03  0.5994E+03
      1.066  0.1969E+03  0.6040E+03
      1.090  0.1951E+03  0.6087E+03
      1.114  0.1838E+03  0.6131E+03
      1.137  0.1696E+03  0.6171E+03
      1.161  0.1761E+03  0.6213E+03
      1.185  0.1905E+03  0.6258E+03
      1.209  0.1951E+03  0.6304E+03
      1.233  0.1804E+03  0.6347E+03
      1.256  0.1726E+03  0.6388E+03
      1.280  0.1878E+03  0.6433E+03
      1.304  0.2039E+03  0.6481E+03
      1.328  0.2158E+03  0.6533E+03
      1.351  0.2256E+03  0.6586E+03
      1.375  0.2293E+03  0.6641E+03
      1.399  0.2245E+03  0.6694E+03
      1.423  0.2164E+03  0.6746E+03
      1.446  0.2270E+03  0.6800E+03
      1.470  0.2352E+03  0.6856E+03
      1.494  0.2299E+03  0.6910E+03
      1.518  0.2214E+03  0.6963E+03
      1.542  0.2203E+03  0.7015E+03
      1.565  0.2201E+03  0.7067E+03
      1.589  0.2094E+03  0.7117E+03
      1.613  0.1989E+03  0.7165E+03
      1.637  0.1901E+03  0.7210E+03
      1.660  0.1834E+03  0.7253E+03
      1.684  0.1894E+03  0.7298E+03
      1.708  0.1917E+03  0.7344E+03
      1.732  0.1806E+03  0.7387E+03
      1.756  0.1776E+03  0.7429E+03
      1.779  0.1880E+03  0.7474E+03
      1.803  0.1920E+03  0.7519E+03
      1.827  0.1860E+03  0.7564E+03
      1.851  0.1774E+03  0.7606E+03
      1.874  0.1698E+03  0.7646E+03
      1.898  0.1651E+03  0.7685E+03
      1.922  0.1697E+03  0.7726E+03
      1.946  0.1711E+03  0.7766E+03
      1.969  0.1543E+03  0.7803E+03
      1.993  0.1417E+03  0.7837E+03
      2.017  0.1462E+03  0.7872E+03
      2.041  0.1569E+03  0.7909E+03
      2.065  0.1638E+03  0.7948E+03
      2.088  0.1642E+03  0.7987E+03
      2.112  0.1665E+03  0.8026E+03
      2.136  0.1795E+03  0.8069E+03
      2.160  0.1875E+03  0.8114E+03
      2.183  0.1838E+03  0.8157E+03
      2.207  0.1846E+03  0.8201E+03
      2.231  0.1892E+03  0.8246E+03
      2.255  0.1897E+03  0.8291E+03
      2.278  0.1831E+03  0.8335E+03
      2.302  0.1819E+03  0.8378E+03
      2.326  0.1737E+03  0.8419E+03
      2.350  0.1704E+03  0.8460E+03
      2.374  0.1724E+03  0.8501E+03
      2.397  0.1592E+03  0.8539E+03
      2.421  0.1387E+03  0.8572E+03
      2.445  0.1294E+03  0.8602E+03
      2.469  0.1370E+03  0.8635E+03
      2.492  0.1420E+03  0.8669E+03
      2.516  0.1331E+03  0.8700E+03
      2.540  0.1402E+03  0.8734E+03
      2.564  0.1521E+03  0.8770E+03
      2.588  0.1562E+03  0.8807E+03
      2.611  0.1508E+03  0.8843E+03
      2.635  0.1562E+03  0.8880E+03
      2.659  0.1648E+03  0.8919E+03
      2.683  0.1619E+03  0.8958E+03
      2.706  0.1488E+03  0.8993E+03
      2.730  0.1343E+03  0.9025E+03
      2.754  0.1278E+03  0.9055E+03
      2.778  0.1250E+03  0.9085E+03
      2.801  0.1291E+03  0.9116E+03
      2.825  0.1320E+03  0.9147E+03
      2.849  0.1329E+03  0.9179E+03
      2.873  0.1479E+03  0.9214E+03
      2.897  0.1615E+03  0.9252E+03
      2.920  0.1534E+03  0.9289E+03
      2.944  0.1467E+03  0.9324E+03
      2.968  0.1438E+03  0.9358E+03
      2.992  0.1413E+03  0.9391E+03
      3.015  0.1428E+03  0.9425E+03
      3.039  0.1402E+03  0.9459E+03
      3.063  0.1366E+03  0.9491E+03
      3.087  0.1352E+03  0.9523E+03
      3.111  0.1388E+03  0.9556E+03
      3.134  0.1393E+03  0.9589E+03
      3.158  0.1430E+03  0.9623E+03
      3.182  0.1420E+03  0.9657E+03
      3.206  0.1465E+03  0.9692E+03
      3.229  0.1544E+03  0.9729E+03
      3.253  0.1479E+03  0.9764E+03
      3.277  0.1304E+03  0.9795E+03
      3.301  0.1095E+03  0.9821E+03
      3.324  0.1043E+03  0.9846E+03
      3.348  0.9517E+02  0.9868E+03
      3.372  0.7522E+02  0.9886E+03
      3.396  0.8346E+02  0.9906E+03
      3.420  0.9835E+02  0.9929E+03
      3.443  0.1027E+03  0.9954E+03
      3.467  0.1024E+03  0.9978E+03
      3.491  0.9211E+02  0.1000E+04
      3.515  0.6081E+02  0.1001E+04
      3.538  0.2067E+02  0.1002E+04
      3.562  0.2750E+01  0.1002E+04
      3.586  0.1238E+00  0.1002E+04
      3.610  0.1756E-02  0.1002E+04
      3.633  0.7559E-05  0.1002E+04
      3.657  0.9672E-08  0.1002E+04
      3.681  0.3634E-11  0.1002E+04
      3.705  0.0000E+00  0.1002E+04
      3.729  0.0000E+00  0.1002E+04
      3.752  0.0000E+00  0.1002E+04
      3.776  0.0000E+00  0.1002E+04
      3.800  0.0000E+00  0.1002E+04
      3.824  0.0000E+00  0.1002E+04
