       N       E                     dE             d eps       ncg     rms          rms(c)
DAV:   1    -0.221830408757E+03   -0.22183E+03   -0.12463E+05  4008   0.665E+02
DAV:   2    -0.856832839946E+03   -0.63500E+03   -0.58094E+03  4596   0.702E+01
DAV:   3    -0.902094647464E+03   -0.45262E+02   -0.41235E+02  5216   0.148E+01
DAV:   4    -0.903608574806E+03   -0.15139E+01   -0.14911E+01  4704   0.295E+00
DAV:   5    -0.903644814310E+03   -0.36240E-01   -0.36171E-01  4872   0.477E-01    0.109E+01
DAV:   6    -0.899142055925E+03    0.45028E+01   -0.15324E+01  4776   0.564E+00    0.916E+00
DAV:   7    -0.889996552841E+03    0.91455E+01   -0.11529E+01  4984   0.509E+00    0.581E+00
DAV:   8    -0.886143216650E+03    0.38533E+01   -0.64350E+00  4696   0.277E+00    0.294E+00
DAV:   9    -0.885591292896E+03    0.55192E+00   -0.35684E+00  4552   0.155E+00    0.161E+00
DAV:  10    -0.885715782440E+03   -0.12449E+00   -0.84897E-01  4744   0.984E-01    0.154E+00
DAV:  11    -0.885447406452E+03    0.26838E+00   -0.37964E-01  4608   0.678E-01    0.687E-01
DAV:  12    -0.885433677818E+03    0.13729E-01   -0.11621E-01  4392   0.268E-01    0.338E-01
DAV:  13    -0.885433836368E+03   -0.15855E-03   -0.25448E-02  4752   0.166E-01    0.240E-01
DAV:  14    -0.885431170303E+03    0.26661E-02   -0.94379E-03  4664   0.119E-01    0.166E-01
DAV:  15    -0.885428622174E+03    0.25481E-02   -0.30827E-03  4600   0.677E-02    0.688E-02
DAV:  16    -0.885428593536E+03    0.28638E-04   -0.15444E-03  4448   0.340E-02    0.359E-02
DAV:  17    -0.885428517729E+03    0.75808E-04   -0.40792E-04  4872   0.215E-02    0.245E-02
DAV:  18    -0.885428455612E+03    0.62117E-04   -0.92580E-05  4584   0.105E-02    0.122E-02
DAV:  19    -0.885428437694E+03    0.17918E-04   -0.33698E-05  3888   0.596E-03    0.634E-03
DAV:  20    -0.885428432063E+03    0.56309E-05   -0.12861E-05  2480   0.393E-03
   1 F= -.88542843E+03 E0= -.88537676E+03  d E =-.103338E+00
