Li                                      
           1
    21.000500    0.000000    0.000000
     0.000000   21.000500    0.000000
     0.000000    0.000000   21.000500
   Li
   500
Direct configuration=     1
   0.99252733  0.00400234  0.00643410
   0.98378510  0.06867568  0.09747449
   0.01281582  0.19216336  0.20008437
   0.99958443  0.28320231  0.27499797
   0.99471998  0.38698007  0.39618101
   0.97103911  0.50718208  0.47329685
   0.98294174  0.58715425  0.57406853
   0.01512470  0.70223879  0.69450644
   0.02366986  0.82211208  0.79249218
   0.02377277  0.92592818  0.89473113
   0.11312829  0.97008899  0.10166079
   0.07969503  0.06888602  0.17788674
   0.09552356  0.17581205  0.31237102
   0.07945043  0.30690153  0.37441728
   0.07856419  0.39725173  0.47665066
   0.09541260  0.49327549  0.60368275
   0.11437377  0.57068282  0.67885269
   0.11221866  0.70950586  0.78054269
   0.11916412  0.82567954  0.89921817
   0.11762791  0.88936730  0.00738583
   0.21530898  0.97200553  0.21059943
   0.18600950  0.08880364  0.26110055
   0.19824555  0.21541099  0.39008496
   0.18387560  0.31308834  0.48547827
   0.19442391  0.40676121  0.60191431
   0.20971861  0.47420675  0.70513854
   0.20857822  0.59985495  0.82483726
   0.19208393  0.72406439  0.93036542
   0.19755276  0.81780939  0.99784010
   0.21025118  0.88617293  0.12483382
   0.31775626  0.01058447  0.32595668
   0.26358620  0.08137470  0.39225272
   0.29516448  0.20243037  0.48168332
   0.29256185  0.30357468  0.58009741
   0.31769096  0.37685658  0.70738618
   0.31193180  0.50902502  0.80920770
   0.26011050  0.58619591  0.92438024
   0.28716697  0.72267694  0.99135221
   0.29075364  0.79368957  0.12595965
   0.28943525  0.88440106  0.21266811
   0.40039344  0.99175954  0.40541564
   0.38409037  0.10525576  0.48421529
   0.41775804  0.20944255  0.58624510
   0.41356196  0.30602478  0.68604044
   0.41133795  0.38514415  0.80520880
   0.38359173  0.49839551  0.88964138
   0.38695433  0.59435263  0.98670092
   0.39163015  0.70878241  0.10763470
   0.38314596  0.79899400  0.20161714
   0.40070573  0.90812890  0.31006559
   0.49997896  0.00473947  0.49796063
   0.50373770  0.10901204  0.54945632
   0.49186108  0.19673445  0.70558693
   0.51103804  0.30571204  0.78135124
   0.51166731  0.38485914  0.90243505
   0.49995362  0.49838538  0.98815123
   0.48126577  0.60541949  0.09864502
   0.48319566  0.69011533  0.20822969
   0.48420410  0.77759463  0.29884824
   0.48904239  0.89937423  0.41198786
   0.59207839  0.00562304  0.59387060
   0.57763092  0.10587355  0.68290723
   0.59299549  0.18207485  0.80203993
   0.62003629  0.28117531  0.91840396
   0.59775091  0.38576232  0.98341523
   0.59827223  0.51374341  0.09013710
   0.59910777  0.60386508  0.17879304
   0.60359998  0.68478289  0.28399378
   0.57665486  0.78212394  0.42422065
   0.59314027  0.89380795  0.51190328
   0.70063996  0.01433673  0.68514966
   0.68502723  0.10293060  0.79449084
   0.68470521  0.20634020  0.89841740
   0.72269847  0.28411500  0.98720331
   0.74197014  0.42371221  0.07153224
   0.71585803  0.49861661  0.17079826
   0.70618635  0.60360599  0.29999946
   0.69252173  0.71546671  0.40755647
   0.66995335  0.79901227  0.53091750
   0.70860974  0.91292723  0.59343872
   0.79574115  0.00835871  0.79953504
   0.79949390  0.09946762  0.89329926
   0.81887678  0.18073230  0.01489885
   0.79842251  0.30413025  0.09264080
   0.80124871  0.40934679  0.19548589
   0.82971817  0.51428582  0.29120590
   0.79661366  0.60277940  0.39992769
   0.77090969  0.71868934  0.49662758
   0.78310846  0.79258498  0.58001811
   0.78199680  0.90414175  0.69966986
   0.91327192  0.00174050  0.89436838
   0.87948250  0.07813168  0.02892690
   0.90592687  0.19949118  0.10417790
   0.90411448  0.29811080  0.17542069
   0.89686343  0.40784895  0.27303704
   0.91079246  0.51243147  0.38850354
   0.87599187  0.61303907  0.50307280
   0.90347046  0.71181523  0.60966905
   0.90620543  0.81334236  0.69708643
   0.89407521  0.91646789  0.79441995
   0.10473434  0.08820833  0.00554231
   0.10393606  0.19980861  0.10184723
   0.10284426  0.31302447  0.20048954
   0.07162605  0.39390185  0.30415565
   0.10167377  0.52935519  0.40685200
   0.09213910  0.59331541  0.49682460
   0.11904479  0.70000803  0.58360552
   0.10921028  0.80516461  0.70811371
   0.11947477  0.90165505  0.77553898
   0.12947894  0.00198601  0.89924758
   0.20641712  0.09086968  0.11703578
   0.19558569  0.21248374  0.17913257
   0.18835011  0.30824825  0.29165609
   0.18705767  0.39165564  0.39169388
   0.19465268  0.48807363  0.50761352
   0.21219579  0.58875386  0.60224690
   0.23196970  0.69796675  0.67452890
   0.21553082  0.79687116  0.79632703
   0.21063270  0.92356970  0.88554679
   0.20820963  0.97739665  0.01489943
   0.30925426  0.12215771  0.20655227
   0.27262544  0.19871707  0.31950835
   0.30531195  0.31892295  0.40696281
   0.28518820  0.40309517  0.49854385
   0.31359267  0.47077421  0.61070822
   0.31705082  0.58676975  0.70648892
   0.29123053  0.69617559  0.79534616
   0.29762943  0.83945411  0.89289925
   0.26965084  0.89181269  0.03367831
   0.32115880  0.00133084  0.13631821
   0.40971228  0.09227004  0.29267130
   0.39823618  0.19495507  0.38482121
   0.38704687  0.31584591  0.48275586
   0.41837730  0.36872562  0.60626007
   0.41633112  0.49677767  0.74082877
   0.39595192  0.59771352  0.83127050
   0.37884540  0.71474611  0.89761771
   0.36618676  0.79425141  0.00521704
   0.40466189  0.89246083  0.11491348
   0.39334642  0.00770905  0.19974599
   0.50401741  0.10115503  0.39033910
   0.48949067  0.20684067  0.47093902
   0.54389111  0.29261628  0.60693083
   0.53643820  0.40200054  0.70260808
   0.51849061  0.48222154  0.81457125
   0.51104671  0.60635152  0.91442488
   0.49473324  0.71762813  0.99768573
   0.47787835  0.79504810  0.11679017
   0.48527883  0.89362630  0.22677692
   0.49313408  0.97970525  0.30868363
   0.60239270  0.10436172  0.46065536
   0.58262776  0.19531803  0.59372181
   0.60898643  0.29698090  0.70087673
   0.62988464  0.41245949  0.81388396
   0.62601964  0.48753247  0.89574885
   0.58106847  0.59690534  0.00557095
   0.57710037  0.71161349  0.11607119
   0.58438004  0.78902523  0.20011797
   0.59534476  0.86351070  0.31820287
   0.59930688  0.00112993  0.37178663
   0.67307728  0.08744967  0.59908845
   0.71124372  0.16994079  0.68999659
   0.69465821  0.27948721  0.80588512
   0.72808908  0.38821674  0.90645511
   0.71825515  0.50404952  0.00776527
   0.69200201  0.61686488  0.08999917
   0.71684339  0.68990478  0.19058859
   0.68112750  0.79853156  0.29027797
   0.67217984  0.88673577  0.42457066
   0.67267641  0.00480281  0.49846692
   0.78890929  0.09766301  0.68394511
   0.80117342  0.19468548  0.79338895
   0.81253680  0.27649417  0.89300025
   0.83215495  0.37363973  0.98941345
   0.81649648  0.50933064  0.10064587
   0.78287365  0.60098801  0.19735602
   0.78127777  0.69989485  0.29154688
   0.79788440  0.80609330  0.39829393
   0.78907982  0.89296753  0.48263261
   0.81295432  0.01531172  0.59811758
   0.90267973  0.08273127  0.81116278
   0.91526837  0.17733686  0.91798937
   0.91756512  0.28736651  0.01738673
   0.91564805  0.42564784  0.11042022
   0.91166836  0.52193551  0.20834681
   0.89772990  0.62098109  0.28956884
   0.89290506  0.68333034  0.39923471
   0.88639309  0.79057575  0.50829606
   0.90329461  0.90940510  0.58271467
   0.91398454  0.00878296  0.70292463
   0.00809679  0.09173578  0.92294198
   0.99938577  0.18368341  0.03002747
   0.01338739  0.31368443  0.10199234
   0.99648587  0.40086646  0.20615249
   0.00473154  0.51499929  0.30255070
   0.99007231  0.60162876  0.40903018
   0.97794081  0.72022725  0.52221579
   0.02644833  0.81637610  0.60549416
   0.01143278  0.89464593  0.69912913
   0.02663175  0.00634815  0.78818280
   0.19973892  0.18663859  0.00563316
   0.19677878  0.30059526  0.10326758
   0.20860824  0.41456665  0.20224170
   0.16949891  0.49928909  0.28375335
   0.18906053  0.61109844  0.40628391
   0.21018817  0.69935403  0.53006269
   0.20987841  0.82744370  0.60291287
   0.20326060  0.89544595  0.70240303
   0.21661818  0.02370875  0.76466942
   0.19329399  0.08686611  0.89888761
   0.31807898  0.20323309  0.10725576
   0.29363630  0.31132875  0.19706785
   0.29662904  0.40135762  0.29732643
   0.25953870  0.51151605  0.40226978
   0.30902823  0.56742638  0.52642330
   0.30743277  0.70293707  0.60704342
   0.32383950  0.82626709  0.69591377
   0.30203748  0.91224198  0.78133139
   0.29922102  0.99230901  0.91947720
   0.30643372  0.09705636  0.00519900
   0.39070171  0.18297863  0.21283303
   0.39774106  0.31265920  0.30708688
   0.42936720  0.42747245  0.39877845
   0.41745700  0.50331479  0.48297490
   0.41295058  0.59783973  0.61814042
   0.41111814  0.66379474  0.70380392
   0.40760871  0.80036073  0.79850802
   0.39192564  0.92289188  0.92593487
   0.40401197  0.97918778  0.01993166
   0.42793643  0.13283925  0.09399706
   0.50515491  0.19619835  0.30059333
   0.50681033  0.32137781  0.39150252
   0.50056611  0.40645146  0.51634135
   0.49406725  0.49312679  0.60859442
   0.50210914  0.59580352  0.74943168
   0.49910618  0.68951685  0.80512737
   0.49083747  0.80598094  0.89184970
   0.48782132  0.87656322  0.99834073
   0.50050888  0.99999219  0.10304590
   0.49544016  0.10319715  0.18605098
   0.59082425  0.22284975  0.39525484
   0.58962819  0.30049471  0.48202571
   0.61580197  0.41111677  0.59112791
   0.60624969  0.52027951  0.71535594
   0.63370934  0.60837728  0.83581520
   0.63179226  0.69712968  0.89554630
   0.60322772  0.80030767  0.99734129
   0.57188131  0.86843859  0.10658951
   0.58494444  0.98653938  0.19273214
   0.59578520  0.09420236  0.30397879
   0.67562772  0.20226918  0.50207625
   0.68750347  0.29139132  0.59197196
   0.71861127  0.39195641  0.69861484
   0.73171564  0.49605899  0.79926795
   0.73168124  0.59959488  0.91093420
   0.69808406  0.68096942  0.98341172
   0.67912481  0.80715488  0.06543521
   0.66379332  0.88213562  0.20203402
   0.68206726  0.96840509  0.30166272
   0.69319440  0.12355482  0.37859636
   0.79093881  0.19345278  0.58720655
   0.82819908  0.29914217  0.68734087
   0.80586626  0.36291468  0.80733402
   0.81649813  0.49027402  0.89504833
   0.81327365  0.62337678  0.00082302
   0.78558446  0.71768085  0.09159168
   0.76858734  0.80631025  0.18888722
   0.80496380  0.88425190  0.31737786
   0.76966557  0.99272296  0.40748828
   0.76600804  0.08981470  0.50522418
   0.90201266  0.18158036  0.69690860
   0.90805662  0.28307390  0.80555647
   0.91819031  0.36662766  0.89609105
   0.93335392  0.51848879  0.00212222
   0.90697380  0.62254415  0.10571712
   0.87234191  0.72403927  0.21261410
   0.89667696  0.78873536  0.32525907
   0.89181300  0.90951727  0.41173550
   0.87998987  0.00651844  0.49299384
   0.89331610  0.10573181  0.59382349
   0.97730428  0.18965280  0.81242701
   0.00529549  0.27598465  0.91384746
   0.98836618  0.37198717  0.02409697
   0.01859497  0.49928690  0.10949824
   0.00514841  0.61287918  0.19255439
   0.00471667  0.71309491  0.30791140
   0.98391820  0.79802155  0.40281244
   0.00473386  0.90731545  0.50433383
   0.00933141  0.02922817  0.59350091
   0.01763288  0.12550236  0.69408523
   0.09134367  0.19577047  0.92344790
   0.10861544  0.31604910  0.99722428
   0.10614442  0.40031837  0.11769995
   0.07462235  0.50142922  0.20583917
   0.08806502  0.61931873  0.31665978
   0.09412223  0.72091529  0.41970199
   0.10589526  0.82765155  0.49178977
   0.11465602  0.90210720  0.62867403
   0.10404596  0.02127474  0.69220067
   0.10443983  0.12221404  0.80592112
   0.29931571  0.27073889  0.00765365
   0.31843270  0.41221448  0.11428276
   0.28970627  0.51206148  0.18555425
   0.26632012  0.59827022  0.28684614
   0.28472513  0.69551436  0.42660356
   0.31243037  0.79080196  0.51870786
   0.32222219  0.92357538  0.61104237
   0.31655347  0.04167875  0.68950865
   0.30144172  0.09166730  0.80311598
   0.28543497  0.20123176  0.89834636
   0.39994633  0.30804699  0.10153659
   0.39642400  0.42546139  0.19915553
   0.40092711  0.51159288  0.28941844
   0.36256718  0.58780213  0.41832462
   0.40826095  0.69083597  0.49539824
   0.41203875  0.78879084  0.63375918
   0.41260073  0.93565317  0.72174836
   0.41598520  0.03050279  0.82687116
   0.39327851  0.10316529  0.92453025
   0.41251026  0.20320430  0.00114985
   0.50133253  0.31525658  0.18738398
   0.50099443  0.41816206  0.27682601
   0.50850323  0.51595225  0.38207121
   0.51180584  0.57705601  0.49392749
   0.51505890  0.68386869  0.61411763
   0.52327666  0.80274440  0.70425632
   0.51692453  0.91032432  0.78671041
   0.53817151  0.97023806  0.91237513
   0.52141106  0.10094999  0.99242224
   0.50337061  0.19244959  0.08443803
   0.61968999  0.33462863  0.29150131
   0.60959338  0.40068242  0.39737525
   0.59027463  0.51528664  0.49326148
   0.60180021  0.59647320  0.63562457
   0.59766165  0.68944920  0.72537154
   0.62411063  0.77515636  0.79556257
   0.61193257  0.87670225  0.88020876
   0.60697478  0.97441546  0.98993057
   0.58561112  0.07211289  0.09213860
   0.57797185  0.19565025  0.20346438
   0.70938625  0.32249826  0.40065989
   0.69483060  0.39422908  0.48379255
   0.72391715  0.49887747  0.59446528
   0.72821689  0.58952779  0.70236167
   0.72323094  0.71055973  0.78539290
   0.71160225  0.80848403  0.91540080
   0.71688976  0.89047089  0.00302632
   0.69610053  0.96538148  0.08228789
   0.66533305  0.08415237  0.20236997
   0.69658793  0.21435017  0.28242898
   0.80505259  0.30202841  0.48684224
   0.77853466  0.39155603  0.59793271
   0.78338857  0.49814340  0.70484753
   0.82742897  0.60476639  0.79499132
   0.83951863  0.70499630  0.89984924
   0.82662149  0.78836074  0.01479417
   0.79057578  0.90255047  0.10402213
   0.75140318  0.96506965  0.20732332
   0.78814717  0.10403405  0.26474285
   0.79811991  0.20623689  0.39050101
   0.90088205  0.29330792  0.59415676
   0.87671727  0.38618908  0.70126487
   0.89146593  0.48448785  0.78787086
   0.92798634  0.64289761  0.89342336
   0.93118109  0.71044557  0.00179576
   0.91414854  0.79961186  0.11941148
   0.87772043  0.87315066  0.21803930
   0.87144660  0.98787454  0.27496712
   0.86949444  0.10299507  0.40680032
   0.88922563  0.16942844  0.49458856
   0.99694013  0.28949506  0.70534378
   0.98136170  0.39450313  0.77675279
   0.98699860  0.48164177  0.90245438
   0.00172392  0.62635589  0.99838947
   0.01728899  0.71691528  0.12482084
   0.00646656  0.80506867  0.23318381
   0.00581380  0.88229841  0.30701841
   0.99603719  0.00148016  0.39879213
   0.02456602  0.10145011  0.49010781
   0.99200644  0.22013561  0.59433217
   0.12563433  0.28846839  0.80751414
   0.07069301  0.38405415  0.90457141
   0.09445268  0.49854701  0.01447343
   0.09398148  0.60642170  0.08706275
   0.11120870  0.73230221  0.21147636
   0.09885903  0.79093513  0.32204991
   0.09683129  0.88550131  0.40253919
   0.10575604  0.96700993  0.48361128
   0.11083118  0.11066643  0.59251065
   0.08949586  0.20704715  0.72234581
   0.21280134  0.30128443  0.90070498
   0.20611334  0.40734695  0.99899988
   0.19771381  0.50597745  0.07811548
   0.17782681  0.62195397  0.17646538
   0.19896113  0.68614579  0.31459862
   0.22483998  0.79962637  0.42655561
   0.21563515  0.90534812  0.50977919
   0.20776411  0.98297486  0.61600211
   0.18319944  0.11338441  0.68203217
   0.21164053  0.20023538  0.79149192
   0.39181474  0.40407586  0.99780278
   0.39292274  0.50806928  0.07034925
   0.37501335  0.60515440  0.19019083
   0.35680177  0.67911466  0.30755754
   0.41219894  0.78106040  0.40633452
   0.39230420  0.88039715  0.51313956
   0.41721665  0.00573286  0.59922694
   0.40670351  0.12695401  0.69582418
   0.40030621  0.20459058  0.79999228
   0.39569809  0.29673934  0.89858043
   0.48647114  0.38304553  0.08213067
   0.47595855  0.49497706  0.17001449
   0.50767862  0.58021520  0.29794905
   0.48793152  0.66420839  0.38424964
   0.51112143  0.79779557  0.49471849
   0.49029429  0.89171971  0.61423184
   0.49907819  0.01788806  0.70371709
   0.47720889  0.11306852  0.82824778
   0.49840305  0.21610768  0.89825924
   0.48712609  0.28524299  0.00935984
   0.60264946  0.41192226  0.15367811
   0.59064085  0.49489115  0.26321327
   0.61908856  0.60296444  0.37640870
   0.59625265  0.66219875  0.50404243
   0.59242998  0.79675663  0.59584423
   0.60384057  0.89418495  0.69118299
   0.59628620  0.01455285  0.78222314
   0.59317512  0.08563842  0.91342460
   0.60356003  0.18332808  0.00306668
   0.60351838  0.30871472  0.09948228
   0.69001959  0.43087834  0.29211844
   0.69499890  0.50905791  0.39435741
   0.69477962  0.59297289  0.48709652
   0.67853769  0.68780549  0.61300625
   0.71230551  0.79953224  0.67644476
   0.69987438  0.89403871  0.78647029
   0.70217754  0.97810470  0.89001553
   0.71026780  0.08270839  0.98113369
   0.67692961  0.17663701  0.10328297
   0.68873486  0.31085892  0.17946334
   0.80409200  0.39264623  0.37106538
   0.79155564  0.48025009  0.48257745
   0.81650312  0.61202054  0.58076051
   0.80368225  0.70720558  0.70995960
   0.77795356  0.79826595  0.78893708
   0.81105152  0.89747093  0.90627518
   0.80544084  0.99475528  0.00932806
   0.79339438  0.09396953  0.12059638
   0.77918546  0.20275731  0.19005653
   0.79513231  0.32388171  0.27053236
   0.87333127  0.40143495  0.48526301
   0.88357004  0.48798163  0.60517404
   0.90385144  0.60645896  0.69012554
   0.92213768  0.70450127  0.78768303
   0.93076023  0.82610060  0.86714533
   0.89160658  0.89886041  0.99449955
   0.89124132  0.96950232  0.14328960
   0.87110345  0.09244931  0.19870011
   0.87510594  0.20379221  0.27914617
   0.89282284  0.31221439  0.39034622
   0.98814868  0.40439956  0.59175373
   0.99720388  0.48958327  0.69192603
   0.99600207  0.61103363  0.78086975
   0.03262021  0.71648477  0.88722556
   0.01416159  0.81725247  0.99900142
   0.01442611  0.89701055  0.13442212
   0.01674333  0.98394706  0.24058722
   0.98200149  0.09896020  0.31558526
   0.98773290  0.20962526  0.39214576
   0.98031864  0.31018357  0.49000544
   0.09599624  0.40311722  0.72270742
   0.08526558  0.50600646  0.80830436
   0.10023682  0.63036678  0.90938657
   0.08301357  0.73758347  0.02976299
   0.11261076  0.81627279  0.11633881
   0.12266241  0.90906879  0.23247822
   0.09432102  0.00200519  0.33998140
   0.11704208  0.11363974  0.40655097
   0.11942687  0.23086956  0.48254742
   0.10094151  0.30775976  0.61303875
   0.20815001  0.39866352  0.81196834
   0.17841047  0.48224459  0.89845565
   0.16563155  0.60460901  0.99836054
   0.20303798  0.71564247  0.06284834
   0.20547321  0.79579336  0.22291070
   0.22217313  0.88956394  0.31758354
   0.19106846  0.98959433  0.39523536
   0.17314565  0.10481782  0.50650924
   0.18932542  0.22675533  0.58389330
   0.24001395  0.29043597  0.70654177
   0.30938707  0.41564744  0.90983861
   0.29522420  0.49990206  0.98690372
   0.29155234  0.61416128  0.07316165
   0.25913515  0.68479434  0.18250906
   0.31271622  0.78955168  0.31411660
   0.30891109  0.90121643  0.39970269
   0.31736873  0.99976201  0.49811735
   0.30942212  0.11184594  0.59381329
   0.30425404  0.20768253  0.70942119
   0.30497265  0.30837203  0.81351642
