 500 500   0   0
  0.1910214E+02  0.2121700E-08  0.2121700E-08  0.2121700E-08  0.5000000E-15
  1.000000000000000E-004
  CAR 
 Li                                      
      3.69344780     -3.35152278  301      0.54828898      1.00000000
     -3.352  0.0000E+00  0.0000E+00
     -3.328  0.0000E+00  0.0000E+00
     -3.305  0.0000E+00  0.0000E+00
     -3.281  0.0000E+00  0.0000E+00
     -3.258  0.0000E+00  0.0000E+00
     -3.234  0.0000E+00  0.0000E+00
     -3.211  0.0000E+00  0.0000E+00
     -3.187  0.8414E-11  0.1976E-12
     -3.164  0.1822E-07  0.4281E-09
     -3.140  0.1191E-04  0.2800E-06
     -3.117  0.2369E-02  0.5592E-04
     -3.093  0.1455E+00  0.3473E-02
     -3.070  0.2810E+01  0.6946E-01
     -3.046  0.1743E+02  0.4787E+00
     -3.023  0.3539E+02  0.1310E+01
     -2.999  0.2377E+02  0.1868E+01
     -2.976  0.5720E+01  0.2002E+01
     -2.952  0.7951E+01  0.2189E+01
     -2.929  0.4377E+02  0.3217E+01
     -2.905  0.9523E+02  0.5453E+01
     -2.882  0.7972E+02  0.7325E+01
     -2.858  0.2586E+02  0.7932E+01
     -2.835  0.8386E+01  0.8129E+01
     -2.811  0.3524E+02  0.8957E+01
     -2.788  0.8924E+02  0.1105E+02
     -2.764  0.8798E+02  0.1312E+02
     -2.741  0.3320E+02  0.1390E+02
     -2.717  0.1060E+02  0.1415E+02
     -2.694  0.4048E+02  0.1510E+02
     -2.671  0.1049E+03  0.1756E+02
     -2.647  0.1174E+03  0.2032E+02
     -2.624  0.5877E+02  0.2170E+02
     -2.600  0.1984E+02  0.2216E+02
     -2.577  0.4955E+02  0.2333E+02
     -2.553  0.1313E+03  0.2641E+02
     -2.530  0.1705E+03  0.3042E+02
     -2.506  0.1129E+03  0.3307E+02
     -2.483  0.3623E+02  0.3392E+02
     -2.459  0.1777E+02  0.3433E+02
     -2.436  0.5715E+02  0.3568E+02
     -2.412  0.9604E+02  0.3793E+02
     -2.389  0.6699E+02  0.3951E+02
     -2.365  0.2238E+02  0.4003E+02
     -2.342  0.3189E+02  0.4078E+02
     -2.318  0.1055E+03  0.4326E+02
     -2.295  0.1695E+03  0.4724E+02
     -2.271  0.1377E+03  0.5047E+02
     -2.248  0.5976E+02  0.5188E+02
     -2.224  0.4664E+02  0.5297E+02
     -2.201  0.1242E+03  0.5589E+02
     -2.177  0.2108E+03  0.6084E+02
     -2.154  0.2129E+03  0.6584E+02
     -2.130  0.1300E+03  0.6889E+02
     -2.107  0.4476E+02  0.6994E+02
     -2.083  0.3001E+02  0.7065E+02
     -2.060  0.7353E+02  0.7237E+02
     -2.036  0.9405E+02  0.7458E+02
     -2.013  0.5099E+02  0.7578E+02
     -1.989  0.2601E+02  0.7639E+02
     -1.966  0.7544E+02  0.7816E+02
     -1.943  0.1624E+03  0.8198E+02
     -1.919  0.1868E+03  0.8636E+02
     -1.896  0.1167E+03  0.8910E+02
     -1.872  0.4713E+02  0.9021E+02
     -1.849  0.7197E+02  0.9190E+02
     -1.825  0.1676E+03  0.9584E+02
     -1.802  0.2272E+03  0.1012E+03
     -1.778  0.1866E+03  0.1056E+03
     -1.755  0.8697E+02  0.1076E+03
     -1.731  0.3934E+02  0.1085E+03
     -1.708  0.8837E+02  0.1106E+03
     -1.684  0.1589E+03  0.1143E+03
     -1.661  0.1506E+03  0.1179E+03
     -1.637  0.8177E+02  0.1198E+03
     -1.614  0.6894E+02  0.1214E+03
     -1.590  0.1476E+03  0.1249E+03
     -1.567  0.2168E+03  0.1300E+03
     -1.543  0.1978E+03  0.1346E+03
     -1.520  0.1116E+03  0.1372E+03
     -1.496  0.5881E+02  0.1386E+03
     -1.473  0.1100E+03  0.1412E+03
     -1.449  0.2037E+03  0.1460E+03
     -1.426  0.2202E+03  0.1511E+03
     -1.402  0.1433E+03  0.1545E+03
     -1.379  0.6427E+02  0.1560E+03
     -1.355  0.6662E+02  0.1576E+03
     -1.332  0.1318E+03  0.1607E+03
     -1.308  0.1583E+03  0.1644E+03
     -1.285  0.1101E+03  0.1670E+03
     -1.262  0.6108E+02  0.1684E+03
     -1.238  0.8628E+02  0.1704E+03
     -1.215  0.1394E+03  0.1737E+03
     -1.191  0.1459E+03  0.1771E+03
     -1.168  0.9644E+02  0.1794E+03
     -1.144  0.7002E+02  0.1811E+03
     -1.121  0.1465E+03  0.1845E+03
     -1.097  0.2552E+03  0.1905E+03
     -1.074  0.3059E+03  0.1977E+03
     -1.050  0.2762E+03  0.2042E+03
     -1.027  0.1779E+03  0.2083E+03
     -1.003  0.1121E+03  0.2110E+03
     -0.980  0.1588E+03  0.2147E+03
     -0.956  0.2200E+03  0.2199E+03
     -0.933  0.1912E+03  0.2244E+03
     -0.909  0.1179E+03  0.2271E+03
     -0.886  0.7432E+02  0.2289E+03
     -0.862  0.9514E+02  0.2311E+03
     -0.839  0.1583E+03  0.2348E+03
     -0.815  0.1809E+03  0.2391E+03
     -0.792  0.1417E+03  0.2424E+03
     -0.768  0.1556E+03  0.2460E+03
     -0.745  0.2162E+03  0.2511E+03
     -0.721  0.2310E+03  0.2565E+03
     -0.698  0.2005E+03  0.2613E+03
     -0.674  0.1369E+03  0.2645E+03
     -0.651  0.6566E+02  0.2660E+03
     -0.627  0.5554E+02  0.2673E+03
     -0.604  0.8311E+02  0.2693E+03
     -0.581  0.8033E+02  0.2712E+03
     -0.557  0.8059E+02  0.2730E+03
     -0.534  0.1459E+03  0.2765E+03
     -0.510  0.2304E+03  0.2819E+03
     -0.487  0.2679E+03  0.2882E+03
     -0.463  0.2651E+03  0.2944E+03
     -0.440  0.2432E+03  0.3001E+03
     -0.416  0.2190E+03  0.3053E+03
     -0.393  0.2095E+03  0.3102E+03
     -0.369  0.2304E+03  0.3156E+03
     -0.346  0.2587E+03  0.3217E+03
     -0.322  0.2468E+03  0.3275E+03
     -0.299  0.1941E+03  0.3320E+03
     -0.275  0.1457E+03  0.3354E+03
     -0.252  0.1208E+03  0.3383E+03
     -0.228  0.1290E+03  0.3413E+03
     -0.205  0.1540E+03  0.3449E+03
     -0.181  0.1771E+03  0.3491E+03
     -0.158  0.1883E+03  0.3535E+03
     -0.134  0.1829E+03  0.3578E+03
     -0.111  0.1753E+03  0.3619E+03
     -0.087  0.1635E+03  0.3658E+03
     -0.064  0.1674E+03  0.3697E+03
     -0.040  0.1969E+03  0.3743E+03
     -0.017  0.2363E+03  0.3799E+03
      0.007  0.2577E+03  0.3859E+03
      0.030  0.2459E+03  0.3917E+03
      0.054  0.2146E+03  0.3967E+03
      0.077  0.1927E+03  0.4012E+03
      0.101  0.2013E+03  0.4060E+03
      0.124  0.2071E+03  0.4108E+03
      0.147  0.1747E+03  0.4149E+03
      0.171  0.1463E+03  0.4184E+03
      0.194  0.1696E+03  0.4224E+03
      0.218  0.2083E+03  0.4272E+03
      0.241  0.2239E+03  0.4325E+03
      0.265  0.2251E+03  0.4378E+03
      0.288  0.2164E+03  0.4429E+03
      0.312  0.2088E+03  0.4478E+03
      0.335  0.2066E+03  0.4526E+03
      0.359  0.2069E+03  0.4575E+03
      0.382  0.2122E+03  0.4625E+03
      0.406  0.2088E+03  0.4674E+03
      0.429  0.2045E+03  0.4722E+03
      0.453  0.2132E+03  0.4772E+03
      0.476  0.2345E+03  0.4827E+03
      0.500  0.2457E+03  0.4885E+03
      0.523  0.2395E+03  0.4941E+03
      0.547  0.2358E+03  0.4996E+03
      0.570  0.2358E+03  0.5052E+03
      0.594  0.2340E+03  0.5107E+03
      0.617  0.2392E+03  0.5163E+03
      0.641  0.2378E+03  0.5219E+03
      0.664  0.2383E+03  0.5275E+03
      0.688  0.2615E+03  0.5336E+03
      0.711  0.2779E+03  0.5401E+03
      0.735  0.2797E+03  0.5467E+03
      0.758  0.2810E+03  0.5533E+03
      0.782  0.2806E+03  0.5599E+03
      0.805  0.2729E+03  0.5663E+03
      0.828  0.2611E+03  0.5724E+03
      0.852  0.2618E+03  0.5786E+03
      0.875  0.2512E+03  0.5845E+03
      0.899  0.2306E+03  0.5899E+03
      0.922  0.2194E+03  0.5950E+03
      0.946  0.2133E+03  0.6000E+03
      0.969  0.2094E+03  0.6050E+03
      0.993  0.1960E+03  0.6096E+03
      1.016  0.1757E+03  0.6137E+03
      1.040  0.1602E+03  0.6174E+03
      1.063  0.1633E+03  0.6213E+03
      1.087  0.1758E+03  0.6254E+03
      1.110  0.1806E+03  0.6296E+03
      1.134  0.1788E+03  0.6338E+03
      1.157  0.1919E+03  0.6384E+03
      1.181  0.2136E+03  0.6434E+03
      1.204  0.2174E+03  0.6485E+03
      1.228  0.2127E+03  0.6535E+03
      1.251  0.2172E+03  0.6586E+03
      1.275  0.2222E+03  0.6638E+03
      1.298  0.2218E+03  0.6690E+03
      1.322  0.2242E+03  0.6743E+03
      1.345  0.2298E+03  0.6797E+03
      1.369  0.2319E+03  0.6851E+03
      1.392  0.2297E+03  0.6905E+03
      1.416  0.2299E+03  0.6959E+03
      1.439  0.2344E+03  0.7014E+03
      1.463  0.2230E+03  0.7066E+03
      1.486  0.2161E+03  0.7117E+03
      1.510  0.2087E+03  0.7166E+03
      1.533  0.1981E+03  0.7213E+03
      1.556  0.1961E+03  0.7259E+03
      1.580  0.1993E+03  0.7306E+03
      1.603  0.1974E+03  0.7352E+03
      1.627  0.1946E+03  0.7398E+03
      1.650  0.1989E+03  0.7444E+03
      1.674  0.2046E+03  0.7492E+03
      1.697  0.1998E+03  0.7539E+03
      1.721  0.1843E+03  0.7583E+03
      1.744  0.1735E+03  0.7623E+03
      1.768  0.1614E+03  0.7661E+03
      1.791  0.1569E+03  0.7698E+03
      1.815  0.1590E+03  0.7735E+03
      1.838  0.1614E+03  0.7773E+03
      1.862  0.1563E+03  0.7810E+03
      1.885  0.1496E+03  0.7845E+03
      1.909  0.1519E+03  0.7881E+03
      1.932  0.1570E+03  0.7918E+03
      1.956  0.1625E+03  0.7956E+03
      1.979  0.1683E+03  0.7995E+03
      2.003  0.1700E+03  0.8035E+03
      2.026  0.1789E+03  0.8077E+03
      2.050  0.1896E+03  0.8122E+03
      2.073  0.1882E+03  0.8166E+03
      2.097  0.1923E+03  0.8211E+03
      2.120  0.1984E+03  0.8258E+03
      2.144  0.1996E+03  0.8305E+03
      2.167  0.2097E+03  0.8354E+03
      2.191  0.2097E+03  0.8403E+03
      2.214  0.1925E+03  0.8448E+03
      2.237  0.1775E+03  0.8490E+03
      2.261  0.1604E+03  0.8528E+03
      2.284  0.1501E+03  0.8563E+03
      2.308  0.1486E+03  0.8598E+03
      2.331  0.1412E+03  0.8631E+03
      2.355  0.1328E+03  0.8662E+03
      2.378  0.1257E+03  0.8692E+03
      2.402  0.1256E+03  0.8721E+03
      2.425  0.1414E+03  0.8754E+03
      2.449  0.1553E+03  0.8791E+03
      2.472  0.1528E+03  0.8827E+03
      2.496  0.1564E+03  0.8863E+03
      2.519  0.1629E+03  0.8902E+03
      2.543  0.1533E+03  0.8938E+03
      2.566  0.1427E+03  0.8971E+03
      2.590  0.1399E+03  0.9004E+03
      2.613  0.1426E+03  0.9038E+03
      2.637  0.1407E+03  0.9071E+03
      2.660  0.1308E+03  0.9101E+03
      2.684  0.1229E+03  0.9130E+03
      2.707  0.1235E+03  0.9159E+03
      2.731  0.1460E+03  0.9193E+03
      2.754  0.1554E+03  0.9230E+03
      2.778  0.1547E+03  0.9266E+03
      2.801  0.1598E+03  0.9304E+03
      2.825  0.1526E+03  0.9340E+03
      2.848  0.1449E+03  0.9374E+03
      2.872  0.1453E+03  0.9408E+03
      2.895  0.1394E+03  0.9440E+03
      2.919  0.1305E+03  0.9471E+03
      2.942  0.1328E+03  0.9502E+03
      2.965  0.1388E+03  0.9535E+03
      2.989  0.1470E+03  0.9569E+03
      3.012  0.1433E+03  0.9603E+03
      3.036  0.1353E+03  0.9635E+03
      3.059  0.1402E+03  0.9668E+03
      3.083  0.1474E+03  0.9702E+03
      3.106  0.1494E+03  0.9737E+03
      3.130  0.1360E+03  0.9769E+03
      3.153  0.1219E+03  0.9798E+03
      3.177  0.1175E+03  0.9826E+03
      3.200  0.1097E+03  0.9851E+03
      3.224  0.8852E+02  0.9872E+03
      3.247  0.6767E+02  0.9888E+03
      3.271  0.7104E+02  0.9905E+03
      3.294  0.9222E+02  0.9926E+03
      3.318  0.1112E+03  0.9953E+03
      3.341  0.1157E+03  0.9980E+03
      3.365  0.9653E+02  0.1000E+04
      3.388  0.5596E+02  0.1002E+04
      3.412  0.1698E+02  0.1002E+04
      3.435  0.2083E+01  0.1002E+04
      3.459  0.9044E-01  0.1002E+04
      3.482  0.1300E-02  0.1002E+04
      3.506  0.5957E-05  0.1002E+04
      3.529  0.8494E-08  0.1002E+04
      3.553  0.3709E-11  0.1002E+04
      3.576  0.0000E+00  0.1002E+04
      3.600  0.0000E+00  0.1002E+04
      3.623  0.0000E+00  0.1002E+04
      3.646  0.0000E+00  0.1002E+04
      3.670  0.0000E+00  0.1002E+04
      3.693  0.0000E+00  0.1002E+04
