       N       E                     dE             d eps       ncg     rms          rms(c)
DAV:   1    -0.241185235424E+03   -0.24119E+03   -0.12349E+05  4008   0.662E+02
DAV:   2    -0.862162548940E+03   -0.62098E+03   -0.56801E+03  4596   0.691E+01
DAV:   3    -0.906586339460E+03   -0.44424E+02   -0.40495E+02  5176   0.145E+01
DAV:   4    -0.908081399846E+03   -0.14951E+01   -0.14726E+01  4688   0.291E+00
DAV:   5    -0.908117608989E+03   -0.36209E-01   -0.36138E-01  4880   0.472E-01    0.109E+01
DAV:   6    -0.907184485895E+03    0.93312E+00   -0.14045E+01  4768   0.563E+00    0.980E+00
DAV:   7    -0.894291077275E+03    0.12893E+02   -0.14676E+01  4904   0.539E+00    0.536E+00
DAV:   8    -0.891567742113E+03    0.27233E+01   -0.69120E+00  4640   0.261E+00    0.297E+00
DAV:   9    -0.891007266710E+03    0.56048E+00   -0.31332E+00  4520   0.157E+00    0.172E+00
DAV:  10    -0.891021667278E+03   -0.14401E-01   -0.96563E-01  4720   0.104E+00    0.151E+00
DAV:  11    -0.890790504460E+03    0.23116E+00   -0.40607E-01  4576   0.636E-01    0.661E-01
DAV:  12    -0.890791738062E+03   -0.12336E-02   -0.11189E-01  4688   0.299E-01    0.448E-01
DAV:  13    -0.890781176501E+03    0.10562E-01   -0.45820E-02  4752   0.231E-01    0.299E-01
DAV:  14    -0.890775756589E+03    0.54199E-02   -0.10937E-02  4608   0.116E-01    0.144E-01
DAV:  15    -0.890774858161E+03    0.89843E-03   -0.38690E-03  4536   0.651E-02    0.785E-02
DAV:  16    -0.890775279502E+03   -0.42134E-03   -0.15197E-03  4848   0.481E-02    0.768E-02
DAV:  17    -0.890774516598E+03    0.76290E-03   -0.85827E-04  4736   0.341E-02    0.235E-02
DAV:  18    -0.890774538030E+03   -0.21433E-04   -0.25058E-04  4672   0.156E-02    0.206E-02
DAV:  19    -0.890774488860E+03    0.49170E-04   -0.11788E-04  4632   0.113E-02    0.101E-02
DAV:  20    -0.890774476899E+03    0.11962E-04   -0.21969E-05  3312   0.504E-03    0.560E-03
DAV:  21    -0.890774470887E+03    0.60120E-05   -0.95287E-06  2192   0.304E-03
   1 F= -.89077447E+03 E0= -.89072125E+03  d E =-.106448E+00
