Li                                      
           1
    21.217000    0.000000    0.000000
     0.000000   21.217000    0.000000
    -0.000000   -0.000000   21.217000
   Li
   500
Direct configuration=     1
   0.97708716  0.02710480  0.98158111
   0.98987259  0.09431572  0.08949811
   0.98196760  0.19207492  0.22754852
   0.98928408  0.31507562  0.30753466
   0.99446175  0.40892934  0.39227941
   0.99285492  0.50369539  0.49655581
   0.00527663  0.59766039  0.58823192
   0.00691403  0.69598508  0.69509087
   0.98513472  0.79665869  0.80618572
   0.01213991  0.92148705  0.88531932
   0.09105467  0.02355228  0.09100495
   0.08039808  0.10572178  0.20447585
   0.09183822  0.18184737  0.30059084
   0.10246558  0.30058461  0.39355125
   0.11077913  0.40573485  0.47563363
   0.09111607  0.48573267  0.60056161
   0.10289206  0.59827637  0.66894361
   0.06447886  0.70008097  0.78626998
   0.10050429  0.78618691  0.89167241
   0.07842721  0.92646455  0.99894165
   0.18368343  0.99539002  0.19669502
   0.18029350  0.08126180  0.30010662
   0.21953589  0.19547852  0.40107166
   0.22004667  0.30452021  0.48796683
   0.18348256  0.39906308  0.60910975
   0.21473429  0.50341649  0.71760739
   0.18102805  0.60993373  0.80354511
   0.18102859  0.69927949  0.89028451
   0.19006072  0.81589809  0.99994643
   0.17791498  0.89341100  0.11745512
   0.29393723  0.01744793  0.27534282
   0.31001727  0.08118221  0.39469945
   0.29988779  0.17903030  0.51116537
   0.30932957  0.30116599  0.59817225
   0.30176140  0.40354957  0.70075473
   0.30196858  0.51098589  0.79646221
   0.29036594  0.59361088  0.90610670
   0.29626450  0.71066882  0.99902323
   0.28204300  0.80035662  0.12447495
   0.31824858  0.89239014  0.21272872
   0.39548293  0.97858981  0.39893527
   0.37992738  0.07498710  0.46995145
   0.41627976  0.20202898  0.60591340
   0.39947796  0.31003867  0.71211047
   0.42353426  0.39953949  0.79304967
   0.39750093  0.49460140  0.88381788
   0.38691383  0.60420906  0.99189051
   0.38507983  0.70151226  0.09908591
   0.41366610  0.80747607  0.17408151
   0.39512731  0.90823558  0.28910686
   0.50573066  0.98022545  0.48935417
   0.48970430  0.09508055  0.58564765
   0.50891231  0.20846216  0.70029520
   0.51355157  0.33242432  0.79841712
   0.51007763  0.38983191  0.91307531
   0.48479190  0.52631329  0.00982560
   0.50299912  0.58102099  0.07200880
   0.50496802  0.66091126  0.18727882
   0.50128471  0.81623642  0.27346347
   0.51744950  0.88877939  0.39638119
   0.59115822  0.99001080  0.59944257
   0.57666805  0.08681814  0.68200092
   0.60266242  0.20921025  0.79421558
   0.60671917  0.33990435  0.90219363
   0.60349031  0.41052717  0.99603187
   0.60202821  0.48896291  0.10744350
   0.60413282  0.58032981  0.21168376
   0.61560435  0.68255801  0.28062938
   0.61324523  0.79743356  0.37269596
   0.61813715  0.87135188  0.50332568
   0.69740357  0.98639728  0.70699002
   0.67557511  0.09798701  0.79578038
   0.67724455  0.18900648  0.90843009
   0.70415626  0.31828069  0.99427830
   0.70820055  0.41928067  0.08326148
   0.71122095  0.47583610  0.20807481
   0.69808116  0.60456734  0.27328602
   0.69851707  0.71341493  0.39674565
   0.70208379  0.79789146  0.50955627
   0.71106081  0.91070966  0.62786743
   0.78034876  0.99036561  0.78027564
   0.78049279  0.12239520  0.88068768
   0.81121989  0.22373956  0.99466351
   0.80207583  0.29893325  0.11743624
   0.80217734  0.41332482  0.21019768
   0.81026437  0.50048734  0.29505974
   0.77929991  0.60190696  0.37905352
   0.79620244  0.69393445  0.51662950
   0.80033239  0.78867556  0.58906345
   0.79405036  0.88624987  0.69354666
   0.86512537  0.99854083  0.90809491
   0.87201850  0.11262628  0.00488640
   0.92013918  0.20699079  0.08806199
   0.89750216  0.32192177  0.21388322
   0.91742827  0.40785299  0.30942732
   0.88769589  0.50655278  0.40764542
   0.90738306  0.62641901  0.45465343
   0.90774275  0.69989291  0.58991184
   0.91288765  0.78694900  0.68404732
   0.88809752  0.87438479  0.81663076
   0.08180404  0.11245732  0.97465857
   0.08690533  0.18964659  0.09454298
   0.09974051  0.30079791  0.19500413
   0.08836050  0.38282879  0.28994105
   0.12576457  0.49542686  0.38837140
   0.11765459  0.58996921  0.50853217
   0.11362764  0.70239182  0.56800825
   0.10213530  0.80694971  0.70380116
   0.11761951  0.91607234  0.81245409
   0.09586983  0.01618574  0.88158821
   0.19007105  0.11149236  0.09743141
   0.19663999  0.19078369  0.19888811
   0.20363818  0.29294804  0.30285759
   0.21659472  0.40085109  0.37502644
   0.21661139  0.47367002  0.49725290
   0.18567224  0.57924977  0.58978819
   0.20703768  0.71156625  0.68906806
   0.19109815  0.78101037  0.82048767
   0.20099211  0.91846420  0.90881055
   0.19526042  0.00974501  0.00727930
   0.29803645  0.08499957  0.19580629
   0.32004688  0.18826081  0.29745087
   0.31415718  0.30706925  0.39218159
   0.30895719  0.39688279  0.49472541
   0.30039184  0.49837847  0.62104972
   0.32662308  0.60922550  0.71140227
   0.30280186  0.69296160  0.79797539
   0.27346666  0.79131879  0.89899000
   0.30158793  0.89642168  0.02390833
   0.29767136  0.99915475  0.08051069
   0.41472826  0.09246324  0.30433249
   0.41053657  0.17761887  0.40996238
   0.40596500  0.30381935  0.49861743
   0.40050972  0.42551229  0.59971152
   0.40572631  0.51333483  0.72084038
   0.39769599  0.62912390  0.81220515
   0.37188396  0.70820938  0.92098091
   0.38193355  0.80541899  0.02730739
   0.41099359  0.92179255  0.12730099
   0.42185302  0.02310451  0.18027157
   0.47833341  0.07920539  0.39163806
   0.50081968  0.19287690  0.50446453
   0.47274835  0.28072432  0.61824541
   0.48974429  0.41573385  0.66829336
   0.49776116  0.52776038  0.80717251
   0.48401090  0.60053560  0.89675198
   0.49709251  0.70651917  0.98744237
   0.49227962  0.79602347  0.11415086
   0.51669115  0.90634936  0.21266006
   0.49945361  0.98056906  0.28085754
   0.59239537  0.09574868  0.51120962
   0.56188973  0.17760636  0.60840298
   0.60509063  0.30844485  0.68631288
   0.61289234  0.42448961  0.77140039
   0.60301436  0.47505593  0.89862632
   0.60534025  0.58801870  0.99111152
   0.60260755  0.70108252  0.09104393
   0.59887679  0.81668019  0.18720381
   0.62865195  0.90988541  0.30876878
   0.59576924  0.98777931  0.40368409
   0.69214920  0.09291438  0.62488449
   0.67557021  0.19123252  0.68399530
   0.68810284  0.28290557  0.80467901
   0.69969238  0.42175076  0.90973462
   0.69982429  0.50716702  0.00895250
   0.68528168  0.60357750  0.10966659
   0.70512997  0.69487574  0.18439286
   0.70051449  0.81340654  0.28452546
   0.70740920  0.89808908  0.39890156
   0.66864888  0.99459893  0.52432937
   0.80541636  0.11826549  0.69940603
   0.77291959  0.19945248  0.79324614
   0.79550957  0.29561790  0.90284779
   0.78170777  0.38240596  0.00947464
   0.80848900  0.51321071  0.10905590
   0.81562994  0.60088369  0.22803912
   0.77860365  0.71783120  0.30309311
   0.80132237  0.77979951  0.41668484
   0.78786028  0.88200206  0.50218258
   0.79694194  0.97693502  0.61308650
   0.90082436  0.12597374  0.80177273
   0.88405606  0.19428790  0.88550317
   0.89598094  0.29778614  0.00102393
   0.89777597  0.40078443  0.10004110
   0.91148281  0.49216209  0.19997856
   0.91673149  0.58535059  0.28517573
   0.90959408  0.69606797  0.40516363
   0.90942048  0.80035371  0.50072043
   0.92318912  0.89746369  0.60182303
   0.88183150  0.98762482  0.73126329
   0.01579969  0.11364117  0.87605507
   0.99834007  0.19456036  0.97691005
   0.98709632  0.29648368  0.10509407
   0.00288085  0.39431500  0.19031097
   0.00689733  0.49263808  0.28903640
   0.02568448  0.57549305  0.39283405
   0.01514635  0.70777852  0.46597638
   0.01563122  0.80624277  0.60009368
   0.01333967  0.91528696  0.71210947
   0.98798129  0.98713443  0.80824750
   0.19707358  0.17954539  0.00451815
   0.21684776  0.28578183  0.08562202
   0.20879978  0.39020341  0.21623146
   0.22066962  0.49382158  0.30946510
   0.21256064  0.57689119  0.38988464
   0.19216139  0.70054553  0.49657534
   0.18692939  0.79798837  0.57017969
   0.19993167  0.89003889  0.69985909
   0.22376054  0.00658117  0.80829361
   0.20058868  0.09866903  0.89054747
   0.30787648  0.18328123  0.10149467
   0.30592173  0.26564586  0.18712907
   0.31554477  0.40073803  0.30367798
   0.29619598  0.51355673  0.39304930
   0.29957113  0.60541565  0.49634417
   0.27900930  0.69049156  0.58412950
   0.31712086  0.79151739  0.69403558
   0.28367632  0.90533665  0.79769650
   0.31248581  0.01309885  0.90934062
   0.30048840  0.07902007  0.00441844
   0.40453372  0.18210744  0.21356442
   0.42566493  0.29494409  0.30454743
   0.39916076  0.42741302  0.38995544
   0.41466112  0.51261630  0.49784438
   0.40677559  0.58727998  0.59640775
   0.39745223  0.70349533  0.69056110
   0.39304490  0.81653239  0.80784043
   0.38808972  0.88860010  0.89508460
   0.41253649  0.98045485  0.02533973
   0.43098311  0.10055722  0.09329754
   0.49935556  0.19144785  0.30524245
   0.48554681  0.27313418  0.39486013
   0.49968877  0.38650291  0.51194867
   0.51783029  0.51361188  0.60103062
   0.50510245  0.59614056  0.70938719
   0.49809829  0.69763887  0.79663278
   0.48614227  0.80251518  0.90881523
   0.48691488  0.90241745  0.03146859
   0.52704864  0.01616824  0.11672427
   0.52637675  0.09465586  0.19242667
   0.59621848  0.19181139  0.41591437
   0.58093914  0.27698726  0.49916150
   0.58889125  0.39604499  0.56305510
   0.59040652  0.50725835  0.71029726
   0.62059117  0.60016580  0.81403618
   0.60553502  0.68631877  0.92230304
   0.58729738  0.82161071  0.00775581
   0.60297867  0.90465040  0.12079642
   0.62638679  0.97249316  0.21370195
   0.60456145  0.08098164  0.31424974
   0.69451716  0.20538368  0.52194180
   0.68755770  0.29197060  0.60067050
   0.69454197  0.39209989  0.69229425
   0.69331445  0.50697264  0.78550015
   0.72191592  0.60033244  0.88935094
   0.69106242  0.71285353  0.01061596
   0.70578426  0.81588307  0.11113821
   0.74459881  0.90376142  0.19598960
   0.72656440  0.98766470  0.30974585
   0.70282264  0.08516883  0.42869540
   0.78274670  0.21453782  0.60283293
   0.77321161  0.31267379  0.68543437
   0.76688197  0.41775006  0.80764946
   0.79713898  0.50677857  0.91085010
   0.80199153  0.62062532  0.00333686
   0.80558457  0.70729953  0.11491569
   0.82949557  0.78517718  0.19386657
   0.82202798  0.90278728  0.31422469
   0.81389611  0.01052826  0.42075757
   0.79887079  0.10214264  0.51765574
   0.89947491  0.21235332  0.68135969
   0.87812065  0.29961306  0.79207619
   0.86925610  0.41127768  0.91776742
   0.89320792  0.49709159  0.02719323
   0.92183863  0.59988567  0.09874163
   0.92719675  0.68061735  0.21455962
   0.90332453  0.77930945  0.31430355
   0.89535992  0.90295224  0.42635947
   0.89871015  0.00042223  0.52290544
   0.88714736  0.11988860  0.62455062
   0.99826440  0.22598500  0.80018109
   0.97117872  0.29786335  0.89027024
   0.99933134  0.37294159  0.00942014
   0.00790127  0.50631812  0.09474564
   0.01422660  0.61818992  0.20552427
   0.99850789  0.70840803  0.33949787
   0.01451037  0.79031723  0.40702376
   0.00584623  0.90139599  0.49065129
   0.00791768  0.00037484  0.62905831
   0.97135006  0.08541961  0.71874755
   0.10470207  0.21622037  0.89209783
   0.09535385  0.28818072  0.01055218
   0.10785386  0.40445464  0.11243211
   0.11431430  0.48437983  0.20063892
   0.11571053  0.58572416  0.29158882
   0.12317974  0.69649664  0.39147956
   0.10494161  0.80880804  0.45362803
   0.09151764  0.91299228  0.58808670
   0.13461283  0.01633488  0.71537322
   0.09051105  0.11194625  0.78532694
   0.31065872  0.31350399  0.00401202
   0.31490976  0.38581529  0.09971377
   0.30521399  0.49401358  0.18646887
   0.31921500  0.60566605  0.30391370
   0.30711344  0.69719978  0.40145044
   0.30152397  0.80399551  0.48958258
   0.30695266  0.89444912  0.60126948
   0.31085763  0.01604002  0.69949499
   0.32183515  0.08922014  0.81284308
   0.30621234  0.20867243  0.88664848
   0.41281788  0.27280934  0.13208860
   0.40586291  0.40105860  0.22511801
   0.40566232  0.52084432  0.29001687
   0.41004329  0.59400156  0.40836938
   0.40750569  0.71219214  0.49940719
   0.40849750  0.80398172  0.59773455
   0.39558067  0.91654387  0.71625535
   0.40460577  0.00514178  0.80544773
   0.42785697  0.10583120  0.91359287
   0.41779671  0.19944944  0.98814927
   0.49380946  0.30367709  0.19542004
   0.48114092  0.40892821  0.30579161
   0.51530277  0.50669055  0.41513375
   0.50583284  0.62505708  0.48988747
   0.51124868  0.69630146  0.60333161
   0.45763867  0.79370856  0.70445338
   0.49868486  0.90972777  0.81885919
   0.50882534  0.98954070  0.89878286
   0.53018521  0.09008062  0.00688248
   0.51209777  0.19414837  0.09868287
   0.58014171  0.28130521  0.32438618
   0.59011721  0.40741619  0.40782514
   0.59087670  0.52954518  0.50246211
   0.58862524  0.59914114  0.62181695
   0.61000125  0.69574362  0.71576057
   0.58386486  0.79455338  0.81236454
   0.60115981  0.89310791  0.91198044
   0.61184468  0.98077467  0.01104924
   0.62428128  0.09674693  0.08002115
   0.60554443  0.22195050  0.20268292
   0.66702620  0.28762089  0.39009148
   0.68610039  0.40686626  0.47413475
   0.67807927  0.49633533  0.57670288
   0.70406247  0.58746363  0.70466099
   0.71041529  0.71414541  0.80253769
   0.71386470  0.78088851  0.89434565
   0.70256095  0.86492097  0.02758718
   0.70694471  0.98986618  0.09493230
   0.69578216  0.08840128  0.19017306
   0.67876319  0.18660565  0.28266900
   0.76995382  0.29674430  0.47907403
   0.77112351  0.40131526  0.56429792
   0.80647316  0.47710359  0.70433041
   0.78756945  0.63006751  0.80317269
   0.79649296  0.68388501  0.90774679
   0.81853438  0.78715650  0.01292617
   0.82221346  0.88700626  0.08608232
   0.81346012  0.00339543  0.18061648
   0.77690118  0.09428240  0.30376684
   0.77601579  0.21244076  0.39632414
   0.86546399  0.31149118  0.59683335
   0.86773648  0.39599712  0.69536929
   0.90121204  0.49469267  0.79771462
   0.91190104  0.59074147  0.92584078
   0.92718769  0.69758988  0.00231439
   0.90958302  0.78734710  0.09432947
   0.89246408  0.89443929  0.20258792
   0.90793479  0.00964125  0.31810787
   0.88558532  0.12029197  0.37660749
   0.88873794  0.19615622  0.48459308
   0.00087810  0.29986327  0.68531217
   0.97490622  0.39914062  0.79587301
   0.01251797  0.47890982  0.92196447
   0.02625040  0.60388701  0.99792567
   0.01876772  0.71100855  0.10175336
   0.99033550  0.80724922  0.20789830
   0.98866939  0.90112966  0.29292554
   0.97675484  0.00294761  0.41125780
   0.00198127  0.09843752  0.50013732
   0.99046459  0.20630721  0.58320294
   0.11340474  0.28998216  0.80103090
   0.09778463  0.37449771  0.89838117
   0.11283537  0.47941316  0.98707143
   0.11770061  0.60502437  0.10719642
   0.10429462  0.71177375  0.21670747
   0.08224144  0.81940333  0.30609603
   0.10802219  0.91791084  0.38641778
   0.11219890  0.99280247  0.50294443
   0.08936889  0.11248775  0.61326831
   0.09827714  0.18790153  0.67970777
   0.19819189  0.28343374  0.91099547
   0.19785079  0.38525731  0.99601887
   0.21002503  0.50756870  0.09566595
   0.21810904  0.57844947  0.19546614
   0.22428565  0.70920350  0.29936940
   0.21251611  0.79345700  0.38804974
   0.19149013  0.89538689  0.47474932
   0.21129368  0.00190998  0.58578238
   0.20487952  0.10330506  0.68157083
   0.21196061  0.17167464  0.79309275
   0.41553944  0.38987391  0.98434109
   0.40223765  0.48425171  0.07549095
   0.40246027  0.59971957  0.17708164
   0.40262161  0.68434943  0.29425394
   0.41182889  0.80424322  0.38591436
   0.38290196  0.90214584  0.49740398
   0.39767940  0.99850474  0.61422024
   0.43379597  0.10866420  0.71732750
   0.40564364  0.23628769  0.80937047
   0.42370967  0.30526190  0.87974778
   0.49940666  0.40578530  0.09867536
   0.49291389  0.50584723  0.19092137
   0.51740329  0.61575902  0.31116520
   0.51967602  0.73857833  0.37740659
   0.49396675  0.82398687  0.51139221
   0.48994088  0.89758181  0.61718354
   0.50081763  0.99824102  0.70960196
   0.51399802  0.12189293  0.82350637
   0.54273548  0.21789513  0.91917111
   0.50251183  0.30880172  0.02727180
   0.60136893  0.40841140  0.21702589
   0.57883046  0.50981253  0.30679088
   0.61555113  0.63589566  0.39620714
   0.59703306  0.71224460  0.51366257
   0.60745218  0.80390934  0.61990116
   0.56965498  0.89884873  0.73269056
   0.58896444  0.01619222  0.82238606
   0.61562803  0.08786703  0.93162914
   0.59524759  0.22891224  0.01188172
   0.59523771  0.32377785  0.11278498
   0.69842705  0.39827822  0.30631490
   0.69141198  0.50416431  0.37510091
   0.69359473  0.62226784  0.51500468
   0.70125293  0.70166681  0.62739633
   0.68787379  0.80438668  0.72560320
   0.69367848  0.89403048  0.81983329
   0.69302271  0.98596921  0.91640832
   0.70930455  0.11528835  0.02467219
   0.71488514  0.21602225  0.11204795
   0.69775612  0.30451307  0.19785657
   0.79704857  0.41058783  0.40460872
   0.78660474  0.52741339  0.47463422
   0.78348541  0.58335244  0.60011243
   0.80634368  0.70927188  0.68230380
   0.78923381  0.80212327  0.79479095
   0.79907615  0.88663912  0.92502783
   0.78973656  0.01246065  0.98816250
   0.80523732  0.12032305  0.11759808
   0.80906305  0.19530614  0.19656075
   0.79437917  0.32081347  0.31481870
   0.90502282  0.39286686  0.49200589
   0.88587380  0.51659926  0.57613521
   0.87484770  0.58682512  0.68004266
   0.88310210  0.68201352  0.78503316
   0.90290430  0.77459947  0.89669110
   0.90628598  0.90612685  0.97227363
   0.88748668  0.01107803  0.09293826
   0.90183870  0.08988326  0.20858669
   0.89701103  0.20983761  0.31023007
   0.90266008  0.29190487  0.39242524
   0.98887682  0.40052333  0.59574029
   0.99433502  0.49574287  0.68488424
   0.96750161  0.59015963  0.77897563
   0.00457770  0.67997138  0.87971937
   0.96977273  0.81637839  0.99645412
   0.99010501  0.91005696  0.08668779
   0.96913532  0.00328009  0.17662323
   0.00762729  0.08354062  0.32416586
   0.99117719  0.18834428  0.40737737
   0.00168130  0.28515407  0.48409885
   0.08911563  0.42008806  0.71322673
   0.07169896  0.50674029  0.80789945
   0.07888083  0.59594273  0.90327136
   0.10846428  0.70072188  0.99255071
   0.07812840  0.81429997  0.08357173
   0.08129298  0.89419962  0.18747712
   0.10013330  0.99093144  0.29519151
   0.09074175  0.07914975  0.42181786
   0.12486327  0.20668920  0.49644100
   0.10279139  0.32415013  0.59250948
   0.21258951  0.41367094  0.78643226
   0.20772238  0.47656921  0.87627975
   0.21472611  0.57754636  0.98409541
   0.18621170  0.72252029  0.07898362
   0.17803476  0.81349828  0.20977051
   0.19527381  0.90922940  0.30454768
   0.19134207  0.00646072  0.40466534
   0.19070054  0.09471209  0.51615969
   0.20918888  0.20571213  0.60533899
   0.19860198  0.28580012  0.69686225
   0.31428346  0.38023590  0.89034703
   0.30511863  0.47627116  0.96813172
   0.28645801  0.59222780  0.07381950
   0.29473470  0.69177553  0.21221649
   0.29407332  0.80110405  0.29080832
   0.30191021  0.89787774  0.37438717
   0.28921604  0.98209032  0.49637460
   0.30829140  0.08160650  0.58961660
   0.31355796  0.19586534  0.70878067
   0.29813992  0.30717328  0.80952041
