 500 500   0   0
  0.2349479E+02  0.2273250E-08  0.2273250E-08  0.2273250E-08  0.5000000E-15
  1.000000000000000E-004
  CAR 
 Li                                      
      2.75651837     -3.59043442  301      0.02771501      1.00000000
     -3.590  0.0000E+00  0.0000E+00
     -3.569  0.0000E+00  0.0000E+00
     -3.548  0.0000E+00  0.0000E+00
     -3.527  0.0000E+00  0.0000E+00
     -3.506  0.0000E+00  0.0000E+00
     -3.485  0.0000E+00  0.0000E+00
     -3.463  0.1574E-13  0.3331E-15
     -3.442  0.3556E-10  0.7526E-12
     -3.421  0.3179E-07  0.6734E-09
     -3.400  0.1075E-04  0.2280E-06
     -3.379  0.1382E-02  0.2946E-04
     -3.358  0.6814E-01  0.1471E-02
     -3.337  0.1303E+01  0.2903E-01
     -3.315  0.9770E+01  0.2357E+00
     -3.294  0.2906E+02  0.8505E+00
     -3.273  0.3455E+02  0.1582E+01
     -3.252  0.1664E+02  0.1934E+01
     -3.231  0.6304E+01  0.2067E+01
     -3.210  0.2187E+02  0.2529E+01
     -3.188  0.6618E+02  0.3930E+01
     -3.167  0.9585E+02  0.5958E+01
     -3.146  0.6830E+02  0.7403E+01
     -3.125  0.2529E+02  0.7938E+01
     -3.104  0.1604E+02  0.8277E+01
     -3.083  0.4938E+02  0.9322E+01
     -3.062  0.9270E+02  0.1128E+02
     -3.040  0.8383E+02  0.1306E+02
     -3.019  0.3768E+02  0.1385E+02
     -2.998  0.1926E+02  0.1426E+02
     -2.977  0.5253E+02  0.1537E+02
     -2.956  0.1083E+03  0.1766E+02
     -2.935  0.1158E+03  0.2011E+02
     -2.913  0.6756E+02  0.2154E+02
     -2.892  0.3288E+02  0.2224E+02
     -2.871  0.6207E+02  0.2355E+02
     -2.850  0.1321E+03  0.2635E+02
     -2.829  0.1628E+03  0.2979E+02
     -2.808  0.1245E+03  0.3242E+02
     -2.786  0.6051E+02  0.3370E+02
     -2.765  0.3125E+02  0.3436E+02
     -2.744  0.5387E+02  0.3550E+02
     -2.723  0.8556E+02  0.3731E+02
     -2.702  0.7853E+02  0.3898E+02
     -2.681  0.4414E+02  0.3991E+02
     -2.660  0.4085E+02  0.4077E+02
     -2.638  0.8962E+02  0.4267E+02
     -2.617  0.1471E+03  0.4578E+02
     -2.596  0.1573E+03  0.4911E+02
     -2.575  0.1051E+03  0.5133E+02
     -2.554  0.6648E+02  0.5274E+02
     -2.533  0.1045E+03  0.5495E+02
     -2.511  0.1687E+03  0.5852E+02
     -2.490  0.1986E+03  0.6272E+02
     -2.469  0.1781E+03  0.6649E+02
     -2.448  0.1145E+03  0.6891E+02
     -2.427  0.5666E+02  0.7011E+02
     -2.406  0.5763E+02  0.7133E+02
     -2.385  0.8970E+02  0.7323E+02
     -2.363  0.8302E+02  0.7498E+02
     -2.342  0.4716E+02  0.7598E+02
     -2.321  0.5144E+02  0.7707E+02
     -2.300  0.1095E+03  0.7938E+02
     -2.279  0.1617E+03  0.8280E+02
     -2.258  0.1668E+03  0.8633E+02
     -2.236  0.1237E+03  0.8895E+02
     -2.215  0.8422E+02  0.9073E+02
     -2.194  0.1124E+03  0.9311E+02
     -2.173  0.1705E+03  0.9672E+02
     -2.152  0.1985E+03  0.1009E+03
     -2.131  0.1762E+03  0.1046E+03
     -2.109  0.1159E+03  0.1071E+03
     -2.088  0.7623E+02  0.1087E+03
     -2.067  0.1017E+03  0.1109E+03
     -2.046  0.1488E+03  0.1140E+03
     -2.025  0.1527E+03  0.1172E+03
     -2.004  0.1091E+03  0.1195E+03
     -1.983  0.9098E+02  0.1215E+03
     -1.961  0.1374E+03  0.1244E+03
     -1.940  0.1911E+03  0.1284E+03
     -1.919  0.2025E+03  0.1327E+03
     -1.898  0.1592E+03  0.1361E+03
     -1.877  0.1030E+03  0.1383E+03
     -1.856  0.1134E+03  0.1407E+03
     -1.834  0.1777E+03  0.1444E+03
     -1.813  0.2130E+03  0.1489E+03
     -1.792  0.1815E+03  0.1528E+03
     -1.771  0.1134E+03  0.1552E+03
     -1.750  0.7888E+02  0.1568E+03
     -1.729  0.1092E+03  0.1591E+03
     -1.708  0.1490E+03  0.1623E+03
     -1.686  0.1440E+03  0.1653E+03
     -1.665  0.9807E+02  0.1674E+03
     -1.644  0.7298E+02  0.1690E+03
     -1.623  0.1124E+03  0.1713E+03
     -1.602  0.1570E+03  0.1747E+03
     -1.581  0.1481E+03  0.1778E+03
     -1.559  0.1134E+03  0.1802E+03
     -1.538  0.1308E+03  0.1830E+03
     -1.517  0.2032E+03  0.1873E+03
     -1.496  0.2576E+03  0.1927E+03
     -1.475  0.2701E+03  0.1984E+03
     -1.454  0.2521E+03  0.2037E+03
     -1.432  0.2022E+03  0.2080E+03
     -1.411  0.1595E+03  0.2114E+03
     -1.390  0.1790E+03  0.2152E+03
     -1.369  0.2073E+03  0.2196E+03
     -1.348  0.1873E+03  0.2235E+03
     -1.327  0.1406E+03  0.2265E+03
     -1.306  0.1017E+03  0.2287E+03
     -1.284  0.1125E+03  0.2310E+03
     -1.263  0.1625E+03  0.2345E+03
     -1.242  0.1854E+03  0.2384E+03
     -1.221  0.1620E+03  0.2418E+03
     -1.200  0.1628E+03  0.2453E+03
     -1.179  0.2056E+03  0.2496E+03
     -1.157  0.2259E+03  0.2544E+03
     -1.136  0.2149E+03  0.2590E+03
     -1.115  0.1800E+03  0.2628E+03
     -1.094  0.1165E+03  0.2652E+03
     -1.073  0.7294E+02  0.2668E+03
     -1.052  0.7955E+02  0.2685E+03
     -1.030  0.8934E+02  0.2703E+03
     -1.009  0.8968E+02  0.2722E+03
     -0.988  0.1269E+03  0.2749E+03
     -0.967  0.2003E+03  0.2792E+03
     -0.946  0.2578E+03  0.2846E+03
     -0.925  0.2818E+03  0.2906E+03
     -0.904  0.2755E+03  0.2964E+03
     -0.882  0.2513E+03  0.3017E+03
     -0.861  0.2318E+03  0.3066E+03
     -0.840  0.2318E+03  0.3115E+03
     -0.819  0.2576E+03  0.3170E+03
     -0.798  0.2789E+03  0.3229E+03
     -0.777  0.2577E+03  0.3283E+03
     -0.755  0.2050E+03  0.3327E+03
     -0.734  0.1537E+03  0.3359E+03
     -0.713  0.1316E+03  0.3387E+03
     -0.692  0.1402E+03  0.3417E+03
     -0.671  0.1476E+03  0.3448E+03
     -0.650  0.1686E+03  0.3484E+03
     -0.629  0.2097E+03  0.3528E+03
     -0.607  0.2243E+03  0.3575E+03
     -0.586  0.2064E+03  0.3619E+03
     -0.565  0.1792E+03  0.3657E+03
     -0.544  0.1639E+03  0.3692E+03
     -0.523  0.1906E+03  0.3732E+03
     -0.502  0.2395E+03  0.3783E+03
     -0.480  0.2659E+03  0.3839E+03
     -0.459  0.2664E+03  0.3895E+03
     -0.438  0.2502E+03  0.3948E+03
     -0.417  0.2186E+03  0.3995E+03
     -0.396  0.2051E+03  0.4038E+03
     -0.375  0.2111E+03  0.4083E+03
     -0.353  0.1949E+03  0.4124E+03
     -0.332  0.1638E+03  0.4158E+03
     -0.311  0.1646E+03  0.4193E+03
     -0.290  0.1999E+03  0.4236E+03
     -0.269  0.2418E+03  0.4287E+03
     -0.248  0.2630E+03  0.4342E+03
     -0.227  0.2545E+03  0.4396E+03
     -0.205  0.2303E+03  0.4445E+03
     -0.184  0.2186E+03  0.4491E+03
     -0.163  0.2305E+03  0.4540E+03
     -0.142  0.2326E+03  0.4589E+03
     -0.121  0.2050E+03  0.4633E+03
     -0.100  0.1773E+03  0.4670E+03
     -0.078  0.1971E+03  0.4712E+03
     -0.057  0.2544E+03  0.4766E+03
     -0.036  0.2920E+03  0.4827E+03
     -0.015  0.2902E+03  0.4889E+03
      0.006  0.2698E+03  0.4946E+03
      0.027  0.2516E+03  0.4999E+03
      0.048  0.2439E+03  0.5051E+03
      0.070  0.2375E+03  0.5101E+03
      0.091  0.2289E+03  0.5149E+03
      0.112  0.2421E+03  0.5201E+03
      0.133  0.2778E+03  0.5259E+03
      0.154  0.3050E+03  0.5324E+03
      0.175  0.3105E+03  0.5390E+03
      0.197  0.3171E+03  0.5457E+03
      0.218  0.3259E+03  0.5526E+03
      0.239  0.3251E+03  0.5594E+03
      0.260  0.3178E+03  0.5662E+03
      0.281  0.3105E+03  0.5727E+03
      0.302  0.3011E+03  0.5791E+03
      0.324  0.2791E+03  0.5850E+03
      0.345  0.2500E+03  0.5903E+03
      0.366  0.2278E+03  0.5951E+03
      0.387  0.2141E+03  0.5996E+03
      0.408  0.2123E+03  0.6041E+03
      0.429  0.2174E+03  0.6087E+03
      0.450  0.2166E+03  0.6133E+03
      0.472  0.2068E+03  0.6177E+03
      0.493  0.2014E+03  0.6219E+03
      0.514  0.2019E+03  0.6262E+03
      0.535  0.1987E+03  0.6304E+03
      0.556  0.1913E+03  0.6345E+03
      0.577  0.1883E+03  0.6385E+03
      0.599  0.1965E+03  0.6426E+03
      0.620  0.2120E+03  0.6471E+03
      0.641  0.2371E+03  0.6521E+03
      0.662  0.2522E+03  0.6574E+03
      0.683  0.2584E+03  0.6629E+03
      0.704  0.2723E+03  0.6687E+03
      0.725  0.2795E+03  0.6746E+03
      0.747  0.2799E+03  0.6805E+03
      0.768  0.2847E+03  0.6865E+03
      0.789  0.2849E+03  0.6926E+03
      0.810  0.2752E+03  0.6984E+03
      0.831  0.2696E+03  0.7041E+03
      0.852  0.2634E+03  0.7097E+03
      0.874  0.2448E+03  0.7148E+03
      0.895  0.2228E+03  0.7195E+03
      0.916  0.2135E+03  0.7241E+03
      0.937  0.2187E+03  0.7287E+03
      0.958  0.2251E+03  0.7335E+03
      0.979  0.2322E+03  0.7384E+03
      1.001  0.2336E+03  0.7433E+03
      1.022  0.2341E+03  0.7483E+03
      1.043  0.2383E+03  0.7533E+03
      1.064  0.2350E+03  0.7583E+03
      1.085  0.2162E+03  0.7629E+03
      1.106  0.1930E+03  0.7669E+03
      1.127  0.1764E+03  0.7707E+03
      1.149  0.1659E+03  0.7742E+03
      1.170  0.1570E+03  0.7775E+03
      1.191  0.1487E+03  0.7806E+03
      1.212  0.1423E+03  0.7837E+03
      1.233  0.1417E+03  0.7867E+03
      1.254  0.1496E+03  0.7898E+03
      1.276  0.1637E+03  0.7933E+03
      1.297  0.1732E+03  0.7969E+03
      1.318  0.1857E+03  0.8009E+03
      1.339  0.2116E+03  0.8053E+03
      1.360  0.2312E+03  0.8102E+03
      1.381  0.2408E+03  0.8153E+03
      1.403  0.2462E+03  0.8205E+03
      1.424  0.2482E+03  0.8258E+03
      1.445  0.2559E+03  0.8312E+03
      1.466  0.2517E+03  0.8365E+03
      1.487  0.2366E+03  0.8415E+03
      1.508  0.2286E+03  0.8464E+03
      1.529  0.2223E+03  0.8511E+03
      1.551  0.2130E+03  0.8556E+03
      1.572  0.1987E+03  0.8598E+03
      1.593  0.1814E+03  0.8636E+03
      1.614  0.1670E+03  0.8672E+03
      1.635  0.1572E+03  0.8705E+03
      1.656  0.1591E+03  0.8739E+03
      1.678  0.1629E+03  0.8773E+03
      1.699  0.1546E+03  0.8806E+03
      1.720  0.1525E+03  0.8838E+03
      1.741  0.1682E+03  0.8874E+03
      1.762  0.1726E+03  0.8910E+03
      1.783  0.1642E+03  0.8945E+03
      1.804  0.1656E+03  0.8980E+03
      1.826  0.1691E+03  0.9016E+03
      1.847  0.1617E+03  0.9050E+03
      1.868  0.1533E+03  0.9082E+03
      1.889  0.1562E+03  0.9115E+03
      1.910  0.1597E+03  0.9149E+03
      1.931  0.1628E+03  0.9184E+03
      1.953  0.1604E+03  0.9217E+03
      1.974  0.1556E+03  0.9250E+03
      1.995  0.1584E+03  0.9284E+03
      2.016  0.1665E+03  0.9319E+03
      2.037  0.1693E+03  0.9355E+03
      2.058  0.1636E+03  0.9390E+03
      2.080  0.1504E+03  0.9421E+03
      2.101  0.1411E+03  0.9451E+03
      2.122  0.1444E+03  0.9482E+03
      2.143  0.1567E+03  0.9515E+03
      2.164  0.1647E+03  0.9550E+03
      2.185  0.1618E+03  0.9584E+03
      2.206  0.1640E+03  0.9619E+03
      2.228  0.1760E+03  0.9656E+03
      2.249  0.1788E+03  0.9694E+03
      2.270  0.1725E+03  0.9730E+03
      2.291  0.1719E+03  0.9767E+03
      2.312  0.1746E+03  0.9804E+03
      2.333  0.1690E+03  0.9839E+03
      2.355  0.1558E+03  0.9872E+03
      2.376  0.1438E+03  0.9903E+03
      2.397  0.1443E+03  0.9933E+03
      2.418  0.1533E+03  0.9966E+03
      2.439  0.1354E+03  0.9994E+03
      2.460  0.8243E+02  0.1001E+04
      2.481  0.3151E+02  0.1002E+04
      2.503  0.6755E+01  0.1002E+04
      2.524  0.7054E+00  0.1002E+04
      2.545  0.3213E-01  0.1002E+04
      2.566  0.5981E-03  0.1002E+04
      2.587  0.4388E-05  0.1002E+04
      2.608  0.1243E-07  0.1002E+04
      2.630  0.1344E-10  0.1002E+04
      2.651  0.5248E-14  0.1002E+04
      2.672  0.0000E+00  0.1002E+04
      2.693  0.0000E+00  0.1002E+04
      2.714  0.0000E+00  0.1002E+04
      2.735  0.0000E+00  0.1002E+04
      2.757  0.0000E+00  0.1002E+04
