 running on   64 total cores
 distrk:  each k-point on   32 cores,    2 groups
 distr:  one band on   32 cores,    1 groups
 vasp.6.2.1 16May21 (build Nov 23 2021 15:40:41) complex                        
  
 POSCAR found type information on POSCAR Li
 POSCAR found :  1 types and     500 ions
 scaLAPACK will be used
 -----------------------------------------------------------------------------
|                                                                             |
|           W    W    AA    RRRRR   N    N  II  N    N   GGGG   !!!           |
|           W    W   A  A   R    R  NN   N  II  NN   N  G    G  !!!           |
|           W    W  A    A  R    R  N N  N  II  N N  N  G       !!!           |
|           W WW W  AAAAAA  RRRRR   N  N N  II  N  N N  G  GGG   !            |
|           WW  WW  A    A  R   R   N   NN  II  N   NN  G    G                |
|           W    W  A    A  R    R  N    N  II  N    N   GGGG   !!!           |
|                                                                             |
|     For optimal performance we recommend to set                             |
|       NCORE = 2 up to number-of-cores-per-socket                            |
|     NCORE specifies how many cores store one orbital (NPAR=cpu/NCORE).      |
|     This setting can greatly improve the performance of VASP for DFT.       |
|     The default, NCORE=1 might be grossly inefficient on modern             |
|     multi-core architectures or massively parallel machines. Do your        |
|     own testing! More info at https://www.vasp.at/wiki/index.php/NCORE      |
|     Unfortunately you need to use the default for GW and RPA                |
|     calculations (for HF NCORE is supported but not extensively tested      |
|     yet).                                                                   |
|                                                                             |
 -----------------------------------------------------------------------------

 -----------------------------------------------------------------------------
|                                                                             |
|               ----> ADVICE to this user running VASP <----                  |
|                                                                             |
|     You have a (more or less) 'large supercell' and for larger cells it     |
|     might be more efficient to use real-space projection operators.         |
|     Therefore, try LREAL= Auto in the INCAR file.                           |
|     Mind: If you want to do very accurate calculations, keep the            |
|     reciprocal projection scheme (i.e. LREAL=.FALSE.).                      |
|                                                                             |
 -----------------------------------------------------------------------------

 LDA part: xc-table for Pade appr. of Perdew
 POSCAR found type information on POSCAR Li
 POSCAR found :  1 types and     500 ions
 POSCAR, INCAR and KPOINTS ok, starting setup
 FFT: planning ...
 WAVECAR not read
 entering main loop
       N       E                     dE             d eps       ncg     rms          rms(c)
DAV:   1    -0.319531826444E+03   -0.31953E+03   -0.11631E+05  4008   0.642E+02
DAV:   2    -0.872144915224E+03   -0.55261E+03   -0.50556E+03  4604   0.631E+01
DAV:   3    -0.913425879478E+03   -0.41281E+02   -0.37783E+02  5240   0.135E+01
DAV:   4    -0.914905161938E+03   -0.14793E+01   -0.14570E+01  4752   0.281E+00
DAV:   5    -0.914940689734E+03   -0.35528E-01   -0.35466E-01  4912   0.457E-01    0.912E+00
DAV:   6    -0.914718154294E+03    0.22254E+00   -0.10022E+01  4880   0.476E+00    0.829E+00
DAV:   7    -0.904387579775E+03    0.10331E+02   -0.99291E+00  5112   0.444E+00    0.459E+00
DAV:   8    -0.902339031770E+03    0.20485E+01   -0.60431E+00  4704   0.230E+00    0.259E+00
DAV:   9    -0.901820225161E+03    0.51881E+00   -0.34836E+00  4520   0.142E+00    0.124E+00
DAV:  10    -0.901952425028E+03   -0.13220E+00   -0.68489E-01  4824   0.843E-01    0.125E+00
DAV:  11    -0.901762924276E+03    0.18950E+00   -0.30737E-01  4712   0.580E-01    0.580E-01
DAV:  12    -0.901756462490E+03    0.64618E-02   -0.84375E-02  4432   0.239E-01    0.309E-01
DAV:  13    -0.901757419575E+03   -0.95709E-03   -0.25595E-02  4760   0.167E-01    0.237E-01
DAV:  14    -0.901753985184E+03    0.34344E-02   -0.91671E-03  4688   0.118E-01    0.152E-01
DAV:  15    -0.901751809525E+03    0.21757E-02   -0.31550E-03  4592   0.633E-02    0.615E-02
DAV:  16    -0.901751894065E+03   -0.84540E-04   -0.13458E-03  4648   0.344E-02    0.410E-02
DAV:  17    -0.901751731728E+03    0.16234E-03   -0.50647E-04  4736   0.240E-02    0.237E-02
DAV:  18    -0.901751689886E+03    0.41841E-04   -0.11086E-04  4544   0.108E-02    0.126E-02
DAV:  19    -0.901751680029E+03    0.98573E-05   -0.41936E-05  4528   0.657E-03
   1 F= -.90175168E+03 E0= -.90169633E+03  d E =-.110708E+00
