Li                                      
           1
    22.732500   -0.000000    0.000000
    -0.000000   22.732500    0.000000
     0.000000    0.000000   22.732500
   Li
   500
Direct configuration=     1
   0.98487875  0.99149121  0.01029774
   0.01570355  0.11029850  0.09533656
   0.97914322  0.20050509  0.18088830
   0.00970734  0.29173688  0.29393813
   0.02596521  0.37789173  0.38901433
   0.01257935  0.50196625  0.49670048
   0.99005853  0.61272061  0.60889870
   0.00538538  0.71712642  0.69961113
   0.99997679  0.80504605  0.79992864
   0.98496236  0.90955334  0.90643488
   0.09997485  0.98949766  0.09279833
   0.09757138  0.09937939  0.20171885
   0.07618007  0.19128331  0.26999275
   0.12546984  0.29128968  0.38621736
   0.11589553  0.40405560  0.48491345
   0.09417947  0.50532186  0.59920186
   0.12044998  0.61227136  0.69547946
   0.09558518  0.71925048  0.79852085
   0.06763294  0.79524419  0.90964383
   0.07288925  0.89723641  0.01234197
   0.20969130  0.00759347  0.21526902
   0.22468153  0.11201702  0.29312180
   0.19541928  0.21898513  0.37559968
   0.18726702  0.26035350  0.50851764
   0.19828913  0.38425752  0.60376365
   0.17507214  0.49192205  0.69151626
   0.19851266  0.59361818  0.81578989
   0.19540176  0.70331536  0.89477731
   0.19020231  0.79879711  0.03145071
   0.19273070  0.90414583  0.13464473
   0.29608334  0.99754925  0.30337700
   0.30582979  0.11467487  0.36990931
   0.30039027  0.18233518  0.49336047
   0.29111473  0.28761728  0.62218209
   0.28502962  0.42943070  0.69980110
   0.29036611  0.49662533  0.80973904
   0.29890702  0.60619034  0.88652645
   0.31698027  0.68300769  0.99940732
   0.30759131  0.77125232  0.12197729
   0.30620670  0.88240645  0.21243735
   0.38989557  0.00262829  0.39189682
   0.38846825  0.10999887  0.50158568
   0.39864832  0.20433253  0.60035990
   0.37990675  0.29841570  0.70276658
   0.41197456  0.40514557  0.79000158
   0.40353336  0.51323276  0.89966020
   0.39096740  0.58423363  0.99922102
   0.40247608  0.67422108  0.09825903
   0.39957282  0.79012052  0.20666420
   0.40334354  0.90510454  0.28103879
   0.49890568  0.01949494  0.51781909
   0.48962965  0.11339574  0.60339182
   0.48319552  0.20785090  0.71710176
   0.48193600  0.31421232  0.79017341
   0.49236744  0.40488329  0.88918514
   0.50794461  0.50917629  0.01794827
   0.49042811  0.60410650  0.11056833
   0.50853503  0.70125953  0.22283526
   0.51532350  0.81850487  0.31634447
   0.49377084  0.91952630  0.40302991
   0.61309562  0.01877717  0.59842700
   0.59827566  0.07965650  0.72216687
   0.59124232  0.19989459  0.81463569
   0.60127356  0.30638371  0.88770831
   0.60126381  0.39372660  0.98966674
   0.62055742  0.50368397  0.09292617
   0.58812301  0.59948110  0.20821936
   0.59575585  0.68740318  0.31661677
   0.61789887  0.83693746  0.39967144
   0.59762646  0.91838164  0.50019196
   0.69291084  0.98669295  0.70161594
   0.71501532  0.09335575  0.81220992
   0.69844602  0.20869713  0.91507385
   0.70525874  0.29143557  0.97347289
   0.70399426  0.41946262  0.08682342
   0.70270410  0.52729370  0.18159533
   0.70114764  0.59184883  0.32105272
   0.70944243  0.69472751  0.40922827
   0.71380968  0.81100532  0.50281125
   0.70150007  0.89274494  0.59759929
   0.77747705  0.98080617  0.81298434
   0.79368444  0.09105678  0.92630142
   0.79325132  0.19693490  0.00286044
   0.78678473  0.30665973  0.10974681
   0.78212964  0.40088638  0.19294010
   0.79180610  0.49229265  0.30230108
   0.81370234  0.60522149  0.40055694
   0.80533002  0.70945458  0.49379580
   0.79969389  0.82240881  0.59695415
   0.79975412  0.90424043  0.71026567
   0.90052504  0.97417669  0.91130005
   0.90926680  0.11044578  0.99791616
   0.88445046  0.20225718  0.10460218
   0.90871732  0.31733167  0.18751570
   0.92199823  0.38907738  0.27450227
   0.91210089  0.48110891  0.38573526
   0.90012496  0.62343391  0.48174916
   0.89914947  0.70349357  0.59063914
   0.89288773  0.80117701  0.69146536
   0.92491459  0.90224609  0.79167932
   0.09531073  0.08260723  0.00336137
   0.09989157  0.17150972  0.09570927
   0.09795649  0.28247408  0.18728246
   0.11156369  0.38450623  0.27889128
   0.09212396  0.51438855  0.39229554
   0.12913161  0.61426451  0.51246826
   0.10726773  0.72765425  0.58721989
   0.09848082  0.82338724  0.69467305
   0.08879014  0.89089157  0.80698652
   0.10202794  0.99181706  0.91480993
   0.19708719  0.08608997  0.10391704
   0.18918745  0.17299852  0.19809800
   0.21544096  0.30427154  0.28150392
   0.20289461  0.39480368  0.38137997
   0.20327304  0.49848336  0.50889697
   0.22549188  0.60766759  0.60499850
   0.22307955  0.71493113  0.70167054
   0.20943076  0.80927000  0.79552766
   0.19129335  0.87856893  0.91080844
   0.20054305  0.98625365  0.01283226
   0.31375500  0.10990166  0.19084634
   0.30707873  0.23084363  0.28023410
   0.30864534  0.29018654  0.39138743
   0.28342218  0.40682881  0.50290526
   0.29547566  0.50141303  0.59280994
   0.30262312  0.58955451  0.70307541
   0.29256467  0.68436662  0.77879562
   0.29523539  0.81178884  0.90783725
   0.29592781  0.88994289  0.02118309
   0.29500337  0.97936653  0.09974186
   0.39784820  0.11309017  0.27639924
   0.41481434  0.19740878  0.38526981
   0.38899706  0.30223369  0.51010312
   0.40320861  0.39383583  0.59309786
   0.37101787  0.50361471  0.69275318
   0.39352476  0.60364587  0.79996806
   0.39368235  0.70305599  0.88931935
   0.40943303  0.78694173  0.00396632
   0.39628510  0.89394297  0.11040156
   0.40335421  0.01139414  0.19677168
   0.51873414  0.09041349  0.39233644
   0.48767721  0.21510028  0.48649590
   0.49806952  0.28279944  0.62668960
   0.48604705  0.40131371  0.71065179
   0.47150793  0.48501312  0.82142833
   0.48865402  0.60389158  0.89498737
   0.49388909  0.70191776  0.01784927
   0.50394193  0.78671103  0.08712314
   0.51244251  0.90053932  0.19467983
   0.48787361  0.00730310  0.29932675
   0.60898410  0.10812730  0.49469957
   0.59774157  0.18291591  0.61209446
   0.58154564  0.30659929  0.71861526
   0.59395893  0.41200912  0.79179968
   0.59797016  0.48601885  0.88104675
   0.61693875  0.60842395  0.98186005
   0.60143187  0.69636892  0.09934787
   0.60538193  0.81044375  0.18876439
   0.59997306  0.92417420  0.32319466
   0.60971594  0.00314967  0.40944485
   0.71658915  0.11403397  0.61840079
   0.72240889  0.20780534  0.70841754
   0.67764638  0.30297953  0.79949867
   0.69388595  0.40690509  0.89063812
   0.70773721  0.51652384  0.99064881
   0.68305428  0.60907320  0.07785281
   0.69281941  0.68495516  0.19960374
   0.67208262  0.80067027  0.31080051
   0.70566058  0.90975652  0.41668649
   0.73208803  0.99320627  0.51456703
   0.79923279  0.11294017  0.70407590
   0.80267300  0.19738301  0.79747073
   0.78779800  0.31701949  0.88429442
   0.82077626  0.41428093  0.00103253
   0.79426601  0.51551856  0.10018037
   0.80226675  0.60218806  0.21247597
   0.79464498  0.70838813  0.31478120
   0.80319311  0.79479022  0.38361265
   0.83244962  0.90321598  0.50432677
   0.82018529  0.00755589  0.61906678
   0.90006793  0.07599018  0.82013338
   0.88868556  0.20112587  0.89170110
   0.88115957  0.29678117  0.00259333
   0.89413182  0.38211962  0.11819945
   0.89189408  0.48643760  0.19672502
   0.90109468  0.58353055  0.30278130
   0.89384915  0.72701202  0.39851315
   0.91568149  0.81516194  0.50071796
   0.91706471  0.90924214  0.61122167
   0.88075961  0.02063062  0.72919906
   0.99747606  0.09406914  0.90784745
   0.99324264  0.18680482  0.97764847
   0.99674793  0.27743605  0.07673522
   0.99924978  0.37393235  0.19454970
   0.00014323  0.48572391  0.29260458
   0.99235484  0.60257111  0.40186335
   0.01428148  0.70351522  0.50666083
   0.01656787  0.81322851  0.59741544
   0.01475852  0.91328385  0.69255722
   0.01652845  0.99710490  0.79173922
   0.18889939  0.19247852  0.00574090
   0.18981904  0.29602242  0.09076032
   0.18929335  0.39366999  0.17514354
   0.20504307  0.48985262  0.30876466
   0.20726353  0.60057049  0.40470324
   0.22913853  0.70880189  0.50496518
   0.19641811  0.81621171  0.59288359
   0.21360303  0.89067598  0.70730766
   0.21369659  0.98369271  0.82995494
   0.20620321  0.10671722  0.91288244
   0.28072930  0.19935951  0.09970157
   0.27611445  0.29108421  0.18488542
   0.31057978  0.41033498  0.29096406
   0.31450695  0.49953756  0.41601067
   0.29683087  0.60259311  0.49855985
   0.29541745  0.72505098  0.59923190
   0.30316722  0.81327931  0.71401758
   0.30277293  0.91870434  0.82519091
   0.29552015  0.00315901  0.90968493
   0.30229518  0.10648622  0.00150429
   0.40036978  0.22134344  0.19949629
   0.42168803  0.30586374  0.28686382
   0.39723334  0.38928905  0.40224407
   0.39732469  0.50175798  0.49855917
   0.37925086  0.60523344  0.58356884
   0.39783843  0.72000062  0.70095282
   0.38074638  0.80369915  0.80610333
   0.39462991  0.89070779  0.93948018
   0.38402449  0.99531827  0.02046501
   0.39334107  0.09857267  0.09083774
   0.51477754  0.19940315  0.29627679
   0.48955374  0.30590886  0.39256696
   0.49510113  0.40348762  0.51054774
   0.48620770  0.49336370  0.59561758
   0.48336818  0.60015402  0.70379587
   0.49369131  0.71515825  0.79741107
   0.51777926  0.79082633  0.91130191
   0.49808292  0.89630950  0.01900161
   0.51482775  0.00393741  0.10312389
   0.48236799  0.09486898  0.18588679
   0.57523418  0.22159617  0.41131615
   0.59618115  0.29757207  0.52037183
   0.61366803  0.39772418  0.62608173
   0.59940318  0.51767298  0.71145436
   0.57751758  0.60925453  0.79164705
   0.60248883  0.70490358  0.90338192
   0.60251249  0.79445284  0.00757257
   0.62808305  0.88966876  0.10985105
   0.60067870  0.01774229  0.20629967
   0.59340510  0.10209448  0.30172223
   0.69898667  0.19338048  0.48404520
   0.68358691  0.31228186  0.60604991
   0.70023858  0.38699845  0.72625440
   0.70441417  0.51400816  0.79701954
   0.71261569  0.60643260  0.87049162
   0.72621420  0.70556426  0.99722205
   0.71769934  0.77661452  0.10828003
   0.70527335  0.88137477  0.18596645
   0.69468302  0.98750655  0.29440034
   0.68053536  0.09614131  0.40132712
   0.82704415  0.20615313  0.58709070
   0.81113019  0.29757583  0.70782758
   0.79044313  0.40023266  0.79191041
   0.81061220  0.48986106  0.88188508
   0.81294167  0.60054634  0.96459492
   0.79443514  0.67821903  0.10005813
   0.80737447  0.78985016  0.19605548
   0.78532168  0.90664377  0.31574036
   0.79124873  0.00431398  0.38362830
   0.79173635  0.09237438  0.48152629
   0.89796360  0.18545847  0.71209602
   0.90120083  0.31808067  0.79374528
   0.89916030  0.41307527  0.89339356
   0.89846111  0.47965624  0.00519354
   0.90907819  0.57024821  0.10195391
   0.87627882  0.68697124  0.19525403
   0.89933951  0.80926578  0.28545973
   0.88922925  0.89890457  0.38859666
   0.91168476  0.01499351  0.49984449
   0.88415047  0.08963978  0.58107007
   0.98290016  0.18949361  0.81302455
   0.97709219  0.30025471  0.87166786
   0.98836558  0.38546139  0.00285661
   0.98478021  0.47519070  0.09868381
   0.00841924  0.57272079  0.20418171
   0.00955964  0.69013011  0.30763970
   0.00270320  0.81353451  0.38267697
   0.02918391  0.91370729  0.48833428
   0.98635572  0.01846624  0.60347495
   0.98357604  0.09773815  0.70421138
   0.10870144  0.17879158  0.91418332
   0.08506059  0.29651364  0.99264598
   0.09651988  0.40645985  0.09869240
   0.11143630  0.49659624  0.20286477
   0.10709796  0.59839083  0.29659152
   0.12071927  0.70556290  0.40780727
   0.12817824  0.80607888  0.49115055
   0.09486181  0.91243011  0.59568982
   0.11256265  0.00250582  0.70007534
   0.10933286  0.10045431  0.81790282
   0.27255783  0.28871844  0.99820311
   0.28723962  0.39396789  0.06976737
   0.28721278  0.48499022  0.20916558
   0.28910033  0.57662243  0.29786468
   0.29882353  0.69632736  0.38483576
   0.30342407  0.81349905  0.48159964
   0.28991031  0.90615463  0.59455574
   0.32121240  0.00852765  0.71255704
   0.32392001  0.09418985  0.80897815
   0.30284109  0.21556010  0.90196151
   0.38543106  0.29802239  0.08421731
   0.41656047  0.38562425  0.19018052
   0.39844951  0.48410731  0.29425637
   0.41571189  0.60944375  0.38868445
   0.38837240  0.71339681  0.49045159
   0.40419670  0.79161464  0.58787266
   0.39577907  0.88232774  0.68380764
   0.40328883  0.99119810  0.80309461
   0.41252297  0.10365178  0.91068120
   0.40188337  0.18926860  0.99820706
   0.51457425  0.29265930  0.16989976
   0.48251322  0.38817336  0.28790713
   0.50584414  0.45792191  0.37711237
   0.50442736  0.60405055  0.49745546
   0.49170817  0.69295068  0.59336279
   0.49452252  0.84087947  0.68775536
   0.48835708  0.87173545  0.78400323
   0.49249550  0.00592415  0.89947378
   0.50012855  0.09549283  0.99143520
   0.48366552  0.20468926  0.09710982
   0.59745619  0.30816761  0.29273125
   0.58907395  0.39046536  0.38777010
   0.60148074  0.48180410  0.49800704
   0.58132561  0.58235077  0.59899958
   0.57107858  0.69990198  0.67488062
   0.59709016  0.79471865  0.77348237
   0.58314817  0.89578240  0.91828404
   0.57791061  0.97881262  0.99747828
   0.58861891  0.09815267  0.09176829
   0.63018020  0.18333492  0.19792482
   0.70958196  0.30792186  0.39396119
   0.70368671  0.38829574  0.48717398
   0.70942742  0.49495603  0.60412580
   0.67979334  0.59815786  0.69534579
   0.68328892  0.68791459  0.77457834
   0.69385596  0.79367565  0.86722899
   0.69329432  0.89407679  0.99538836
   0.67637156  0.00993390  0.08709036
   0.72501656  0.09052965  0.21674228
   0.69718829  0.20596121  0.30689441
   0.79359232  0.29354278  0.49803677
   0.80367219  0.39133204  0.59443333
   0.79312674  0.51870789  0.69902111
   0.81193097  0.61855781  0.79413000
   0.79487804  0.72216941  0.91892573
   0.80200211  0.81105945  0.00195073
   0.79891297  0.89986693  0.09880180
   0.78269773  0.98392099  0.19279477
   0.79313926  0.10003448  0.29181246
   0.80695977  0.21956423  0.38392659
   0.89339239  0.30145115  0.61087491
   0.89579721  0.40296031  0.69099799
   0.90590042  0.48554355  0.79684524
   0.88954902  0.58559622  0.87168537
   0.89742168  0.70385820  0.01017122
   0.88126910  0.79060943  0.10999137
   0.87991882  0.90846482  0.22096703
   0.90289711  0.00805074  0.29345300
   0.91010714  0.11309140  0.38041156
   0.89053680  0.19105929  0.50735185
   0.01581016  0.30420768  0.71842152
   0.00801229  0.41063969  0.78725165
   0.98796520  0.50871553  0.90655644
   0.98940636  0.59847623  0.99819575
   0.00892580  0.67208130  0.08580649
   0.98280587  0.78784051  0.20466915
   0.00838018  0.92206036  0.27965341
   0.98869274  0.01441946  0.38607798
   0.99004455  0.10997835  0.49139623
   0.00535918  0.17655027  0.60343222
   0.09941205  0.29783663  0.82164983
   0.12464166  0.40133228  0.91015678
   0.07128486  0.49777746  0.00627146
   0.10466879  0.59165653  0.07891785
   0.09717953  0.69171043  0.19477386
   0.08741341  0.79358823  0.31613385
   0.12132081  0.88904130  0.39750604
   0.10780934  0.01500788  0.50632225
   0.11063638  0.10682003  0.60233621
   0.11093194  0.18970200  0.72173752
   0.20003412  0.30208644  0.91135604
   0.18183279  0.41663725  0.01261071
   0.19183650  0.51533197  0.08547610
   0.19143653  0.59241704  0.21259619
   0.19333365  0.70448322  0.30719593
   0.19588038  0.80180502  0.39367572
   0.18999405  0.91386959  0.49344509
   0.21720766  0.01377360  0.62278068
   0.23923666  0.10015401  0.72242721
   0.21765117  0.20076645  0.81092046
   0.40936787  0.40112234  0.01007390
   0.37062082  0.48055085  0.10426586
   0.41212749  0.59904176  0.20060587
   0.41802348  0.69175926  0.31503139
   0.39656775  0.82190746  0.39857724
   0.39210710  0.90435311  0.51384149
   0.37188778  0.00869305  0.60850722
   0.40824057  0.09830328  0.69514130
   0.40243251  0.19614539  0.81909715
   0.40566295  0.29301314  0.90667942
   0.50692008  0.39945664  0.09683483
   0.50221420  0.48388281  0.18857533
   0.50335492  0.57193057  0.31850637
   0.51175613  0.72160130  0.41908857
   0.48652590  0.82674171  0.50373050
   0.49761140  0.93078440  0.58764231
   0.49167626  0.99581280  0.70079280
   0.49998234  0.08380366  0.83612332
   0.50951900  0.20635129  0.89231387
   0.50087841  0.30365393  0.00222895
   0.60437725  0.41780713  0.20142364
   0.60733463  0.49670067  0.31011312
   0.60508246  0.60494146  0.42168426
   0.60341974  0.70808772  0.50932558
   0.58840751  0.81762638  0.60316205
   0.59653094  0.92250953  0.71186319
   0.61441336  0.99281938  0.82689541
   0.60021066  0.10505591  0.92613136
   0.60947655  0.20548203  0.00036587
   0.61627393  0.28152669  0.10516733
   0.68695366  0.39737107  0.30164593
   0.71997373  0.48980833  0.39861229
   0.71874137  0.60283174  0.49724373
   0.70261427  0.68480991  0.58853021
   0.68077935  0.79789513  0.67856952
   0.69792456  0.88721670  0.80555988
   0.68942770  0.97901917  0.92410288
   0.70642593  0.08601328  0.99661427
   0.71533859  0.18543300  0.08739277
   0.69209328  0.30932800  0.19375940
   0.81875240  0.39126338  0.39483568
   0.81411069  0.50022580  0.50532368
   0.82749848  0.61016356  0.58200884
   0.78474531  0.70108479  0.67412137
   0.80535352  0.78162547  0.77159727
   0.80779496  0.87870166  0.88394236
   0.79067772  0.99155131  0.00827668
   0.80058943  0.10619206  0.09855207
   0.79355613  0.21470519  0.18887273
   0.81782687  0.31507350  0.29948018
   0.92274788  0.39762378  0.49168709
   0.91252523  0.50604333  0.59834011
   0.91700184  0.60089181  0.70034752
   0.89312409  0.71086530  0.78878505
   0.90768861  0.78165590  0.87944413
   0.89523650  0.88555416  0.00233821
   0.89711447  0.99547347  0.09898969
   0.90311132  0.09753136  0.20180814
   0.92814597  0.21748140  0.27097232
   0.92042916  0.27289872  0.39752363
   0.99726404  0.38040395  0.61961846
   0.02706743  0.51417182  0.70173537
   0.99602297  0.61503062  0.79452277
   0.97975631  0.71487587  0.90682801
   0.98852580  0.79403374  0.01090554
   0.99398555  0.92102833  0.12378951
   0.00688601  0.00744489  0.21430959
   0.00747685  0.08485250  0.29154645
   0.01479335  0.18892284  0.39115626
   0.01873322  0.28659186  0.48743193
   0.10445318  0.40393518  0.68877313
   0.09970069  0.51389506  0.79451443
   0.08518910  0.58952318  0.90245759
   0.09299592  0.69352553  0.01117216
   0.08588510  0.79287655  0.10542666
   0.09885065  0.90624182  0.21547326
   0.10962195  0.99454164  0.29348362
   0.11530136  0.11356880  0.40575937
   0.10604368  0.19795317  0.49327090
   0.09250410  0.28954302  0.59394679
   0.17347003  0.40876196  0.82035174
   0.19834501  0.48196057  0.91168282
   0.18252955  0.60672512  0.00321582
   0.20506130  0.68327783  0.10538237
   0.21142948  0.78363439  0.19450445
   0.19872512  0.89446125  0.30685399
   0.18800031  0.01394181  0.39304203
   0.20041479  0.10902640  0.49871800
   0.18664742  0.21107618  0.60953878
   0.19722583  0.28783974  0.72575172
   0.31309089  0.42615995  0.91206895
   0.28993250  0.50811220  0.99237364
   0.30420405  0.58388188  0.09945430
   0.30522455  0.68501407  0.22749064
   0.32024197  0.80689124  0.30134371
   0.28377548  0.91532443  0.39535998
   0.28969178  0.02533000  0.48255052
   0.29509914  0.12312942  0.60729037
   0.32161741  0.18594899  0.71408157
   0.31163256  0.31918889  0.81322150
