 500 500   0   0
  0.1852332E+02  0.2100050E-08  0.2100050E-08  0.2100050E-08  0.5000000E-15
  1.000000000000000E-004
  CAR 
 Li                                      
      3.83846057     -3.30836770  301      0.63611352      1.00000000
     -3.308  0.0000E+00  0.0000E+00
     -3.285  0.0000E+00  0.0000E+00
     -3.261  0.0000E+00  0.0000E+00
     -3.237  0.0000E+00  0.0000E+00
     -3.213  0.0000E+00  0.0000E+00
     -3.189  0.0000E+00  0.0000E+00
     -3.165  0.0000E+00  0.0000E+00
     -3.142  0.3513E-11  0.8368E-13
     -3.118  0.9555E-08  0.2277E-09
     -3.094  0.7566E-05  0.1805E-06
     -3.070  0.1761E-02  0.4214E-04
     -3.046  0.1222E+00  0.2954E-02
     -3.022  0.2579E+01  0.6439E-01
     -2.999  0.1692E+02  0.4675E+00
     -2.975  0.3529E+02  0.1308E+01
     -2.951  0.2367E+02  0.1872E+01
     -2.927  0.6065E+01  0.2017E+01
     -2.903  0.1118E+02  0.2283E+01
     -2.880  0.4473E+02  0.3349E+01
     -2.856  0.8416E+02  0.5354E+01
     -2.832  0.7659E+02  0.7178E+01
     -2.808  0.3044E+02  0.7903E+01
     -2.784  0.1164E+02  0.8181E+01
     -2.760  0.3748E+02  0.9074E+01
     -2.737  0.8234E+02  0.1104E+02
     -2.713  0.8292E+02  0.1301E+02
     -2.689  0.3609E+02  0.1387E+02
     -2.665  0.1388E+02  0.1420E+02
     -2.641  0.4183E+02  0.1520E+02
     -2.618  0.9850E+02  0.1754E+02
     -2.594  0.1143E+03  0.2027E+02
     -2.570  0.6028E+02  0.2170E+02
     -2.546  0.2217E+02  0.2223E+02
     -2.522  0.5535E+02  0.2355E+02
     -2.498  0.1328E+03  0.2671E+02
     -2.475  0.1603E+03  0.3053E+02
     -2.451  0.1037E+03  0.3300E+02
     -2.427  0.3682E+02  0.3388E+02
     -2.403  0.1901E+02  0.3433E+02
     -2.379  0.6135E+02  0.3580E+02
     -2.355  0.1010E+03  0.3820E+02
     -2.332  0.6140E+02  0.3966E+02
     -2.308  0.1838E+02  0.4010E+02
     -2.284  0.3683E+02  0.4098E+02
     -2.260  0.1086E+03  0.4356E+02
     -2.236  0.1653E+03  0.4750E+02
     -2.213  0.1322E+03  0.5065E+02
     -2.189  0.5475E+02  0.5196E+02
     -2.165  0.5085E+02  0.5317E+02
     -2.141  0.1376E+03  0.5644E+02
     -2.117  0.2132E+03  0.6152E+02
     -2.093  0.1980E+03  0.6624E+02
     -2.070  0.1157E+03  0.6900E+02
     -2.046  0.4296E+02  0.7002E+02
     -2.022  0.3752E+02  0.7091E+02
     -1.998  0.7550E+02  0.7271E+02
     -1.974  0.8560E+02  0.7475E+02
     -1.950  0.4551E+02  0.7583E+02
     -1.927  0.2927E+02  0.7653E+02
     -1.903  0.8411E+02  0.7854E+02
     -1.879  0.1614E+03  0.8238E+02
     -1.855  0.1778E+03  0.8662E+02
     -1.831  0.1102E+03  0.8924E+02
     -1.808  0.4921E+02  0.9041E+02
     -1.784  0.8877E+02  0.9253E+02
     -1.760  0.1804E+03  0.9683E+02
     -1.736  0.2185E+03  0.1020E+03
     -1.712  0.1670E+03  0.1060E+03
     -1.688  0.7420E+02  0.1078E+03
     -1.665  0.4434E+02  0.1088E+03
     -1.641  0.9921E+02  0.1112E+03
     -1.617  0.1545E+03  0.1149E+03
     -1.593  0.1374E+03  0.1182E+03
     -1.569  0.7553E+02  0.1200E+03
     -1.545  0.7926E+02  0.1218E+03
     -1.522  0.1627E+03  0.1257E+03
     -1.498  0.2210E+03  0.1310E+03
     -1.474  0.1900E+03  0.1355E+03
     -1.450  0.9223E+02  0.1377E+03
     -1.426  0.5602E+02  0.1390E+03
     -1.403  0.1246E+03  0.1420E+03
     -1.379  0.2079E+03  0.1470E+03
     -1.355  0.2076E+03  0.1519E+03
     -1.331  0.1259E+03  0.1549E+03
     -1.307  0.6310E+02  0.1564E+03
     -1.283  0.8233E+02  0.1584E+03
     -1.260  0.1345E+03  0.1616E+03
     -1.236  0.1463E+03  0.1651E+03
     -1.212  0.9966E+02  0.1674E+03
     -1.188  0.6662E+02  0.1690E+03
     -1.164  0.9608E+02  0.1713E+03
     -1.140  0.1315E+03  0.1744E+03
     -1.117  0.1331E+03  0.1776E+03
     -1.093  0.9140E+02  0.1798E+03
     -1.069  0.8860E+02  0.1819E+03
     -1.045  0.1742E+03  0.1861E+03
     -1.021  0.2723E+03  0.1925E+03
     -0.998  0.3046E+03  0.1998E+03
     -0.974  0.2479E+03  0.2057E+03
     -0.950  0.1484E+03  0.2092E+03
     -0.926  0.1136E+03  0.2119E+03
     -0.902  0.1782E+03  0.2162E+03
     -0.878  0.2184E+03  0.2214E+03
     -0.855  0.1730E+03  0.2255E+03
     -0.831  0.9992E+02  0.2279E+03
     -0.807  0.7600E+02  0.2297E+03
     -0.783  0.1116E+03  0.2324E+03
     -0.759  0.1605E+03  0.2362E+03
     -0.736  0.1625E+03  0.2401E+03
     -0.712  0.1450E+03  0.2435E+03
     -0.688  0.1743E+03  0.2477E+03
     -0.664  0.2108E+03  0.2527E+03
     -0.640  0.2288E+03  0.2581E+03
     -0.616  0.1982E+03  0.2629E+03
     -0.593  0.1062E+03  0.2654E+03
     -0.569  0.4721E+02  0.2665E+03
     -0.545  0.6890E+02  0.2682E+03
     -0.521  0.9129E+02  0.2703E+03
     -0.497  0.7453E+02  0.2721E+03
     -0.473  0.9648E+02  0.2744E+03
     -0.450  0.1790E+03  0.2787E+03
     -0.426  0.2384E+03  0.2843E+03
     -0.402  0.2556E+03  0.2904E+03
     -0.378  0.2577E+03  0.2966E+03
     -0.354  0.2442E+03  0.3024E+03
     -0.331  0.2232E+03  0.3077E+03
     -0.307  0.2143E+03  0.3128E+03
     -0.283  0.2401E+03  0.3185E+03
     -0.259  0.2558E+03  0.3246E+03
     -0.235  0.2264E+03  0.3300E+03
     -0.211  0.1698E+03  0.3341E+03
     -0.188  0.1233E+03  0.3370E+03
     -0.164  0.1236E+03  0.3399E+03
     -0.140  0.1486E+03  0.3435E+03
     -0.116  0.1573E+03  0.3472E+03
     -0.092  0.1671E+03  0.3512E+03
     -0.068  0.1726E+03  0.3553E+03
     -0.045  0.1696E+03  0.3594E+03
     -0.021  0.1666E+03  0.3633E+03
      0.003  0.1701E+03  0.3674E+03
      0.027  0.1922E+03  0.3720E+03
      0.051  0.2248E+03  0.3773E+03
      0.074  0.2515E+03  0.3833E+03
      0.098  0.2566E+03  0.3894E+03
      0.122  0.2231E+03  0.3947E+03
      0.146  0.1919E+03  0.3993E+03
      0.170  0.1868E+03  0.4038E+03
      0.194  0.1876E+03  0.4082E+03
      0.217  0.1799E+03  0.4125E+03
      0.241  0.1618E+03  0.4164E+03
      0.265  0.1689E+03  0.4204E+03
      0.289  0.2079E+03  0.4254E+03
      0.313  0.2304E+03  0.4308E+03
      0.337  0.2175E+03  0.4360E+03
      0.360  0.2087E+03  0.4410E+03
      0.384  0.2039E+03  0.4459E+03
      0.408  0.1962E+03  0.4505E+03
      0.432  0.1993E+03  0.4553E+03
      0.456  0.2041E+03  0.4601E+03
      0.479  0.2018E+03  0.4649E+03
      0.503  0.2015E+03  0.4697E+03
      0.527  0.2128E+03  0.4748E+03
      0.551  0.2258E+03  0.4802E+03
      0.575  0.2282E+03  0.4856E+03
      0.599  0.2288E+03  0.4911E+03
      0.622  0.2371E+03  0.4967E+03
      0.646  0.2375E+03  0.5024E+03
      0.670  0.2304E+03  0.5079E+03
      0.694  0.2254E+03  0.5132E+03
      0.718  0.2295E+03  0.5187E+03
      0.742  0.2342E+03  0.5243E+03
      0.765  0.2473E+03  0.5302E+03
      0.789  0.2649E+03  0.5365E+03
      0.813  0.2757E+03  0.5431E+03
      0.837  0.2732E+03  0.5496E+03
      0.861  0.2621E+03  0.5558E+03
      0.884  0.2584E+03  0.5620E+03
      0.908  0.2687E+03  0.5684E+03
      0.932  0.2673E+03  0.5747E+03
      0.956  0.2495E+03  0.5807E+03
      0.980  0.2324E+03  0.5862E+03
      1.004  0.2235E+03  0.5915E+03
      1.027  0.2213E+03  0.5968E+03
      1.051  0.2126E+03  0.6019E+03
      1.075  0.1969E+03  0.6066E+03
      1.099  0.1864E+03  0.6110E+03
      1.123  0.1775E+03  0.6152E+03
      1.146  0.1710E+03  0.6193E+03
      1.170  0.1693E+03  0.6233E+03
      1.194  0.1656E+03  0.6273E+03
      1.218  0.1677E+03  0.6313E+03
      1.242  0.1778E+03  0.6355E+03
      1.266  0.1938E+03  0.6401E+03
      1.289  0.2040E+03  0.6450E+03
      1.313  0.2017E+03  0.6498E+03
      1.337  0.2079E+03  0.6548E+03
      1.361  0.2218E+03  0.6600E+03
      1.385  0.2231E+03  0.6654E+03
      1.409  0.2225E+03  0.6707E+03
      1.432  0.2332E+03  0.6762E+03
      1.456  0.2401E+03  0.6819E+03
      1.480  0.2273E+03  0.6873E+03
      1.504  0.2194E+03  0.6926E+03
      1.528  0.2155E+03  0.6977E+03
      1.551  0.2078E+03  0.7027E+03
      1.575  0.2104E+03  0.7077E+03
      1.599  0.2081E+03  0.7126E+03
      1.623  0.1999E+03  0.7174E+03
      1.647  0.1878E+03  0.7219E+03
      1.671  0.1796E+03  0.7261E+03
      1.694  0.1876E+03  0.7306E+03
      1.718  0.1984E+03  0.7353E+03
      1.742  0.1986E+03  0.7401E+03
      1.766  0.1979E+03  0.7448E+03
      1.790  0.1884E+03  0.7493E+03
      1.814  0.1737E+03  0.7534E+03
      1.837  0.1633E+03  0.7573E+03
      1.861  0.1496E+03  0.7609E+03
      1.885  0.1530E+03  0.7645E+03
      1.909  0.1683E+03  0.7685E+03
      1.933  0.1719E+03  0.7726E+03
      1.956  0.1701E+03  0.7767E+03
      1.980  0.1708E+03  0.7807E+03
      2.004  0.1689E+03  0.7848E+03
      2.028  0.1572E+03  0.7885E+03
      2.052  0.1461E+03  0.7920E+03
      2.076  0.1532E+03  0.7956E+03
      2.099  0.1685E+03  0.7996E+03
      2.123  0.1720E+03  0.8037E+03
      2.147  0.1747E+03  0.8079E+03
      2.171  0.1863E+03  0.8123E+03
      2.195  0.1926E+03  0.8169E+03
      2.219  0.1963E+03  0.8216E+03
      2.242  0.1998E+03  0.8264E+03
      2.266  0.1924E+03  0.8309E+03
      2.290  0.1824E+03  0.8353E+03
      2.314  0.1877E+03  0.8398E+03
      2.338  0.1944E+03  0.8444E+03
      2.361  0.1919E+03  0.8490E+03
      2.385  0.1738E+03  0.8531E+03
      2.409  0.1528E+03  0.8567E+03
      2.433  0.1475E+03  0.8603E+03
      2.457  0.1452E+03  0.8637E+03
      2.481  0.1352E+03  0.8669E+03
      2.504  0.1365E+03  0.8702E+03
      2.528  0.1411E+03  0.8736E+03
      2.552  0.1497E+03  0.8771E+03
      2.576  0.1609E+03  0.8810E+03
      2.600  0.1495E+03  0.8845E+03
      2.623  0.1438E+03  0.8879E+03
      2.647  0.1591E+03  0.8917E+03
      2.671  0.1548E+03  0.8954E+03
      2.695  0.1437E+03  0.8988E+03
      2.719  0.1446E+03  0.9023E+03
      2.743  0.1456E+03  0.9058E+03
      2.766  0.1306E+03  0.9089E+03
      2.790  0.1221E+03  0.9118E+03
      2.814  0.1319E+03  0.9149E+03
      2.838  0.1427E+03  0.9183E+03
      2.862  0.1509E+03  0.9219E+03
      2.886  0.1472E+03  0.9254E+03
      2.909  0.1414E+03  0.9288E+03
      2.933  0.1466E+03  0.9323E+03
      2.957  0.1378E+03  0.9356E+03
      2.981  0.1307E+03  0.9387E+03
      3.005  0.1413E+03  0.9420E+03
      3.028  0.1473E+03  0.9456E+03
      3.052  0.1451E+03  0.9490E+03
      3.076  0.1398E+03  0.9523E+03
      3.100  0.1342E+03  0.9555E+03
      3.124  0.1395E+03  0.9589E+03
      3.148  0.1423E+03  0.9623E+03
      3.171  0.1325E+03  0.9654E+03
      3.195  0.1392E+03  0.9687E+03
      3.219  0.1495E+03  0.9723E+03
      3.243  0.1413E+03  0.9757E+03
      3.267  0.1261E+03  0.9787E+03
      3.291  0.1086E+03  0.9812E+03
      3.314  0.9863E+02  0.9836E+03
      3.338  0.9102E+02  0.9858E+03
      3.362  0.7820E+02  0.9876E+03
      3.386  0.7512E+02  0.9894E+03
      3.410  0.9027E+02  0.9916E+03
      3.433  0.1006E+03  0.9940E+03
      3.457  0.9250E+02  0.9962E+03
      3.481  0.8745E+02  0.9982E+03
      3.505  0.8576E+02  0.1000E+04
      3.529  0.5432E+02  0.1002E+04
      3.553  0.1563E+02  0.1002E+04
      3.576  0.1699E+01  0.1002E+04
      3.600  0.6331E-01  0.1002E+04
      3.624  0.7646E-03  0.1002E+04
      3.648  0.2888E-05  0.1002E+04
      3.672  0.3326E-08  0.1002E+04
      3.696  0.1151E-11  0.1002E+04
      3.719  0.0000E+00  0.1002E+04
      3.743  0.0000E+00  0.1002E+04
      3.767  0.0000E+00  0.1002E+04
      3.791  0.0000E+00  0.1002E+04
      3.815  0.0000E+00  0.1002E+04
      3.838  0.0000E+00  0.1002E+04
