Li                                      
           1
    21.000500    0.000000    0.000000
     0.000000   21.000500    0.000000
     0.000000    0.000000   21.000500
   Li
   500
Direct configuration=     1
   0.97684134  0.98919330  0.00371635
   0.96381580  0.11108069  0.09033022
   0.00260163  0.21374608  0.23544109
   0.00675364  0.31701746  0.31228131
   0.00504479  0.41155753  0.39824705
   0.00988492  0.51774358  0.51241925
   0.01444415  0.57594134  0.61694837
   0.02229239  0.68713113  0.66768801
   0.98664980  0.80816469  0.82826524
   0.99572250  0.90480318  0.89954356
   0.05965856  0.99876075  0.11184994
   0.08415891  0.10374449  0.20829715
   0.09680369  0.21159622  0.31630005
   0.10273575  0.31526694  0.39688427
   0.12126998  0.41650932  0.50910014
   0.12101269  0.51258902  0.61216712
   0.12759458  0.61689127  0.69575433
   0.08455244  0.73176409  0.82967820
   0.09198143  0.82672030  0.91645906
   0.10361055  0.89989886  0.02048742
   0.19189182  0.99194931  0.19223546
   0.20608053  0.09112412  0.28898581
   0.20229131  0.18443522  0.40712135
   0.21481454  0.29928923  0.49440258
   0.21208111  0.39687223  0.61232018
   0.18840348  0.51587512  0.71969181
   0.20787687  0.61780908  0.83167941
   0.18522291  0.70772224  0.91737936
   0.19669791  0.82685613  0.99257661
   0.21063483  0.91380401  0.11422901
   0.28723556  0.00592225  0.28387577
   0.29857533  0.08279530  0.41979343
   0.30174280  0.20688948  0.49200929
   0.29313127  0.28725505  0.60952754
   0.31021742  0.41458125  0.70541142
   0.29751983  0.51273291  0.81087586
   0.29867475  0.61592770  0.87761372
   0.29021824  0.70956584  0.99632907
   0.31160411  0.82202119  0.09380876
   0.32338562  0.91342210  0.20463274
   0.37010819  0.99345909  0.40611275
   0.40262999  0.09415000  0.50876829
   0.38778555  0.21940035  0.60288926
   0.40208702  0.30195353  0.70306097
   0.39338399  0.39746467  0.80728596
   0.42212436  0.52531002  0.90273571
   0.40447547  0.60906390  0.98004825
   0.39835235  0.71943535  0.10159921
   0.39345123  0.79120818  0.20930825
   0.39231517  0.92527305  0.31244917
   0.49068104  0.97482158  0.51543007
   0.46272963  0.10178578  0.59935699
   0.50475022  0.21935991  0.70525585
   0.50036562  0.29958368  0.78318125
   0.50021291  0.39733005  0.88343584
   0.50198167  0.47811196  0.99140636
   0.48768100  0.60153022  0.08412182
   0.51480591  0.71196222  0.18907825
   0.49526507  0.79411872  0.31647514
   0.50885139  0.87892081  0.39408817
   0.58348570  0.99339332  0.60018195
   0.58970818  0.09435884  0.70160567
   0.61588788  0.19541883  0.78760493
   0.60295149  0.29955760  0.88258312
   0.61499317  0.37491411  0.99309946
   0.58774384  0.50498768  0.09862849
   0.60196801  0.60770355  0.18742915
   0.60554560  0.69324925  0.30556469
   0.59981765  0.77882238  0.41601667
   0.59277488  0.89658850  0.48198481
   0.70122045  0.98762764  0.70265219
   0.71142410  0.11359973  0.77006149
   0.70751132  0.18303552  0.89309700
   0.68499143  0.28072305  0.97709255
   0.71960217  0.38453060  0.06796145
   0.70697071  0.49818238  0.18874709
   0.69826294  0.61849515  0.27610457
   0.69815543  0.69152744  0.41440825
   0.67882310  0.79153374  0.50277244
   0.67740575  0.88044553  0.59702374
   0.80016371  0.98377965  0.80498949
   0.78195377  0.08772225  0.88464048
   0.80131048  0.21180688  0.98591462
   0.79201076  0.29859117  0.09519258
   0.76522866  0.39553511  0.18737712
   0.80822415  0.48016539  0.30254880
   0.79623578  0.57227141  0.40348095
   0.82143095  0.69037295  0.50157796
   0.80773670  0.81269823  0.57868886
   0.81232788  0.89595342  0.68207728
   0.87779098  0.98307175  0.91433090
   0.88962564  0.12972738  0.01138890
   0.90429299  0.20990885  0.13886234
   0.89781695  0.30278088  0.20417052
   0.88924857  0.40668952  0.28138720
   0.86213909  0.49048559  0.41095770
   0.90583268  0.58036180  0.52153656
   0.93591615  0.71671129  0.60021625
   0.92157503  0.80351491  0.71104750
   0.86639941  0.90882108  0.77320585
   0.08053033  0.08139236  0.02233997
   0.08213346  0.19961583  0.06886687
   0.08882959  0.29995620  0.19196293
   0.10932632  0.41980411  0.28729330
   0.08938292  0.49920648  0.41358158
   0.10450422  0.58740060  0.49861545
   0.08495340  0.71671625  0.57690287
   0.09008647  0.80679308  0.72019487
   0.11218967  0.90081122  0.81180600
   0.08939795  0.00101006  0.91165577
   0.20161208  0.10254987  0.10167424
   0.17306233  0.19841727  0.17852109
   0.21216194  0.29963273  0.28701431
   0.20401562  0.41517312  0.40680618
   0.21813721  0.48585845  0.51313464
   0.17197558  0.62080689  0.62514788
   0.18885799  0.72539457  0.70618313
   0.18853221  0.82066785  0.82021346
   0.20417786  0.92695065  0.91974283
   0.19033035  0.99954565  0.02416352
   0.29410645  0.10641667  0.22371824
   0.29787850  0.19268021  0.31488892
   0.30191295  0.30162090  0.39496459
   0.32131446  0.40018384  0.50522924
   0.28992710  0.51673259  0.61986851
   0.28986721  0.63031510  0.71230502
   0.29135286  0.70909291  0.81864548
   0.29740085  0.81702504  0.90652090
   0.31482156  0.93129049  0.99049454
   0.31216704  0.02252344  0.10801103
   0.41884642  0.09492040  0.29560296
   0.39486248  0.19094031  0.39827132
   0.40095780  0.30560723  0.49294170
   0.38640597  0.41476328  0.61291132
   0.39039177  0.54298630  0.70686300
   0.41122297  0.60778775  0.81692283
   0.40926001  0.69356883  0.88097876
   0.38788754  0.78826515  0.98363682
   0.42313882  0.89765737  0.11634725
   0.41905139  0.00299599  0.18449479
   0.52104348  0.07768511  0.40536597
   0.49251743  0.21680072  0.49650936
   0.51436650  0.31338604  0.61242985
   0.47423097  0.41462830  0.69947882
   0.49746109  0.49767358  0.79081363
   0.52358656  0.59500220  0.90414661
   0.52764995  0.71014484  0.97757890
   0.50054810  0.79470024  0.07792838
   0.48578602  0.88202598  0.19590600
   0.49670217  0.99188295  0.29144653
   0.58480050  0.07569174  0.49545875
   0.60381820  0.14662717  0.59544418
   0.59003237  0.28729437  0.68500895
   0.60336929  0.37976172  0.80236916
   0.58718020  0.49996613  0.91033479
   0.59091834  0.60515932  0.98305002
   0.60716846  0.70831704  0.09258407
   0.59334326  0.81892758  0.20196754
   0.59663078  0.88682972  0.32436291
   0.59187785  0.98901247  0.39733714
   0.72989854  0.06854208  0.59474122
   0.69929453  0.20413621  0.68640983
   0.69651474  0.27473560  0.80322119
   0.71417390  0.39994920  0.89796750
   0.70877516  0.50819382  0.97147177
   0.68907912  0.60251860  0.10447654
   0.69783580  0.70783702  0.19183474
   0.71318639  0.77814776  0.29040514
   0.68053726  0.88638839  0.38816555
   0.70677371  0.99320016  0.49432372
   0.81393728  0.11851834  0.68197700
   0.82205663  0.18680228  0.77538499
   0.78458563  0.28440755  0.87091138
   0.81864474  0.38448976  0.98073905
   0.81130815  0.49481819  0.07899807
   0.79518892  0.57558937  0.21195993
   0.78653017  0.70510847  0.30963250
   0.79045866  0.78222564  0.41238170
   0.78174063  0.90651464  0.49138449
   0.80307193  0.97879131  0.62466294
   0.89636673  0.09262410  0.81246183
   0.88822544  0.20263775  0.89942713
   0.91840332  0.27102060  0.01031833
   0.89812014  0.40567154  0.09121800
   0.89818979  0.50115542  0.20341256
   0.89242752  0.59771296  0.32113603
   0.90553765  0.67756624  0.41336009
   0.92703581  0.80087621  0.51405287
   0.91363668  0.90702484  0.60446627
   0.90761235  0.04095788  0.68399983
   0.97726407  0.09625896  0.90670149
   0.99274929  0.20673955  0.99633981
   0.01400185  0.31445294  0.11117122
   0.01113349  0.40538677  0.19965289
   0.97329056  0.49788473  0.30650661
   0.99793766  0.59015029  0.41778032
   0.02943226  0.68993029  0.51467188
   0.01791294  0.81673149  0.60062466
   0.00641058  0.92020409  0.70147104
   0.98023395  0.00861046  0.79198476
   0.20382547  0.18676615  0.01147860
   0.20336489  0.30599991  0.10282997
   0.20358401  0.39274571  0.20634503
   0.20083399  0.51102046  0.28512399
   0.20795001  0.57000229  0.39333187
   0.19418359  0.67230667  0.48310404
   0.16566916  0.79849465  0.59628437
   0.20358375  0.90443705  0.70088692
   0.17898351  0.99981110  0.82784554
   0.20070597  0.09023201  0.91877897
   0.32760903  0.20361218  0.08956656
   0.29572539  0.26642275  0.20965407
   0.29757706  0.40695433  0.28815137
   0.30250873  0.49728439  0.37359629
   0.28007237  0.60899377  0.49144573
   0.27119995  0.70855615  0.60002015
   0.29132411  0.80485138  0.70447369
   0.31359808  0.89994970  0.82936373
   0.30595626  0.01953783  0.90283146
   0.29062981  0.08396629  0.99753688
   0.43005749  0.19032703  0.18453899
   0.39846565  0.29574537  0.31250187
   0.40759049  0.39007257  0.38699527
   0.40721574  0.50861483  0.50356965
   0.37402806  0.61021680  0.58697731
   0.39170846  0.70725051  0.70840640
   0.42388488  0.77347192  0.81030357
   0.40365592  0.91070345  0.90603576
   0.40112900  0.00667948  0.99984251
   0.41843599  0.09747841  0.10109677
   0.50024897  0.18828791  0.29414075
   0.51272243  0.28424924  0.40425726
   0.50313273  0.38872172  0.50888077
   0.46853728  0.50447142  0.60240235
   0.49044994  0.62957226  0.68685544
   0.52728387  0.69458211  0.81970888
   0.50855431  0.82517226  0.90221276
   0.48955087  0.90229913  0.99867797
   0.50611976  0.99314826  0.08895694
   0.52255569  0.07106182  0.18674442
   0.59674337  0.20035264  0.39786692
   0.61687196  0.30055248  0.51093386
   0.60910221  0.41987313  0.58861778
   0.59029832  0.50656071  0.70648680
   0.60613957  0.59781995  0.77603059
   0.62136661  0.70368771  0.89811665
   0.60678471  0.80322226  0.98791439
   0.59051946  0.90491674  0.06782906
   0.60344336  0.97399582  0.18482804
   0.59436625  0.08113881  0.29976183
   0.70041172  0.16166584  0.50345514
   0.69335618  0.29193187  0.59055313
   0.67613113  0.38876333  0.69817980
   0.67725424  0.51234018  0.76842785
   0.67902585  0.58695301  0.90270242
   0.71955659  0.69568259  0.99937541
   0.70885021  0.79806655  0.10682605
   0.68914045  0.87373222  0.19862664
   0.69524769  0.97633388  0.31349504
   0.68615135  0.08277703  0.41185728
   0.81652460  0.21577428  0.59284201
   0.79648585  0.30655244  0.70896132
   0.79223249  0.40759010  0.80317896
   0.80331526  0.51125736  0.88387612
   0.81104509  0.61723378  0.98085353
   0.80115168  0.67288401  0.14123998
   0.81601275  0.82284339  0.19641745
   0.78528723  0.91318511  0.32068673
   0.80531296  0.00304446  0.39711042
   0.82466787  0.09703596  0.50741400
   0.91584950  0.21526103  0.70904076
   0.92968785  0.32090868  0.80901258
   0.91411344  0.38477353  0.88441955
   0.88093185  0.52270591  0.98907560
   0.90604884  0.58368986  0.09475219
   0.89681733  0.68899075  0.21195020
   0.89045135  0.79792602  0.31993163
   0.90576935  0.89427419  0.39919607
   0.90829739  0.99786166  0.49489122
   0.90430835  0.12283102  0.57533034
   0.00252338  0.19302103  0.80393528
   0.99013506  0.29711090  0.89910640
   0.99744511  0.39793823  0.99079759
   0.98129769  0.48678964  0.09327878
   0.98756092  0.60313577  0.21387979
   0.01786096  0.67754327  0.33361386
   0.01584061  0.79234778  0.38645697
   0.99595345  0.90563161  0.49424872
   0.99824861  0.99353211  0.60150724
   0.01171159  0.09832249  0.69114403
   0.09122832  0.18845693  0.90119260
   0.09116233  0.30622237  0.98152470
   0.13821790  0.42475965  0.08949223
   0.09830706  0.51072790  0.17196986
   0.10156100  0.57304961  0.29329301
   0.12188952  0.68155035  0.39392590
   0.11982725  0.79763425  0.48037586
   0.10405039  0.91390314  0.60770685
   0.10062241  0.02302388  0.69195306
   0.09613683  0.09420062  0.80093601
   0.31679957  0.28868150  0.99437827
   0.33037470  0.39474192  0.11976742
   0.29816060  0.49309633  0.20557186
   0.29518269  0.59776247  0.28471085
   0.27751326  0.65800380  0.37757839
   0.26952735  0.81189875  0.47773800
   0.29269859  0.87739397  0.59868288
   0.31441529  0.99301146  0.72743471
   0.30695579  0.09096783  0.81973995
   0.30184103  0.20000422  0.88771177
   0.38972592  0.29327697  0.10503208
   0.38507582  0.38074412  0.22865491
   0.40213332  0.51439397  0.29942728
   0.38150552  0.59518288  0.36920616
   0.37030462  0.70974311  0.48303948
   0.38925037  0.81906497  0.60662112
   0.40733843  0.88079164  0.73190398
   0.41754456  0.01110414  0.80330787
   0.41008981  0.10947851  0.89181537
   0.41182691  0.18851196  0.98349857
   0.47489795  0.28181235  0.19119320
   0.48120136  0.39714203  0.28770138
   0.48663514  0.50471682  0.40769257
   0.48488325  0.61578709  0.49434926
   0.48699382  0.68632597  0.58646567
   0.47691287  0.81587651  0.71381122
   0.52356183  0.89146777  0.82998886
   0.49924907  0.97944786  0.90150928
   0.51908487  0.08829240  0.98074835
   0.51777612  0.18850468  0.08263589
   0.57276132  0.31742802  0.27064168
   0.57622197  0.42277930  0.41087847
   0.58615990  0.52284881  0.52141694
   0.58706029  0.58479334  0.61836282
   0.60323995  0.72568623  0.69013537
   0.59351682  0.80386860  0.80707905
   0.60723858  0.88562935  0.92749681
   0.59153804  0.99776202  0.98364742
   0.60449138  0.09933367  0.08036086
   0.61621653  0.20346988  0.21957431
   0.68056150  0.31585978  0.37798435
   0.68063335  0.41641553  0.51038452
   0.71318577  0.49618858  0.61540920
   0.66436817  0.60931741  0.67396835
   0.71295560  0.68430370  0.77989490
   0.69650719  0.80092649  0.89907851
   0.70022983  0.90169966  0.01087881
   0.71050066  0.00674944  0.10526117
   0.70496772  0.08248645  0.21108770
   0.67288442  0.20644646  0.30759857
   0.76511476  0.29752206  0.49997044
   0.81079282  0.39545735  0.60182023
   0.80192926  0.49642675  0.71258755
   0.79527159  0.61303009  0.80331076
   0.78543016  0.69265400  0.88235154
   0.78432382  0.76718536  0.01035561
   0.80126131  0.90670791  0.10819108
   0.78952030  0.99436861  0.19621607
   0.78435490  0.11296602  0.30793694
   0.77620235  0.20547903  0.40835796
   0.89066014  0.31608091  0.59943654
   0.92952616  0.41459102  0.69359999
   0.91561821  0.48354371  0.80654621
   0.91527666  0.61184891  0.89795943
   0.88656417  0.70316183  0.99808592
   0.88753799  0.79016782  0.09397107
   0.89632268  0.88855756  0.22065764
   0.88275185  0.01378686  0.30359121
   0.91385390  0.10164702  0.41345475
   0.90823882  0.22477675  0.46961579
   0.02875296  0.30056141  0.69742001
   0.04365144  0.38688450  0.79568028
   0.00931311  0.49746504  0.90111162
   0.98273316  0.60230499  0.00523162
   0.98197760  0.69868883  0.09620029
   0.97815851  0.77835045  0.19659553
   0.00294387  0.92140375  0.30472387
   0.98698355  0.00107728  0.39824509
   0.02634469  0.08439550  0.49520489
   0.99493104  0.22214943  0.60684515
   0.12548297  0.29200418  0.81720389
   0.13163041  0.41126998  0.90213186
   0.08365860  0.52676184  0.01363900
   0.08422689  0.60783417  0.10293782
   0.10195611  0.69826564  0.20875507
   0.06929761  0.79292059  0.30149693
   0.10873752  0.93285192  0.38750836
   0.10418863  0.00867802  0.52080111
   0.10863449  0.11951685  0.59886216
   0.11762957  0.19158705  0.71785935
   0.20411735  0.28863039  0.90368898
   0.23566926  0.41549700  0.99583847
   0.21995137  0.47857063  0.10318106
   0.20640872  0.60745964  0.17281224
   0.18887239  0.68971936  0.28321259
   0.19468780  0.78830797  0.39627622
   0.19473799  0.90214875  0.52020457
   0.20323373  0.02630999  0.61319582
   0.23244785  0.09857383  0.71977739
   0.18711664  0.19018648  0.80062560
   0.38880806  0.38537204  0.99507820
   0.40652144  0.51923528  0.08358511
   0.40487137  0.61348963  0.21263087
   0.40485022  0.68993041  0.29361753
   0.37272320  0.79797489  0.36103830
   0.38870181  0.86665343  0.48053164
   0.37602618  0.98117236  0.62301902
   0.41704044  0.09477133  0.72012526
   0.40558851  0.17998788  0.80018428
   0.39197492  0.28177417  0.88629603
   0.47209754  0.39611631  0.07832975
   0.52782121  0.48411216  0.18288152
   0.51224437  0.60313981  0.29089448
   0.48495741  0.66760590  0.39019808
   0.47087520  0.80196856  0.47108557
   0.50600608  0.89814034  0.57929597
   0.50399933  0.96671967  0.69691131
   0.51443197  0.09034883  0.79570930
   0.51323414  0.19216493  0.88849691
   0.48414397  0.31092978  0.99008480
   0.60894433  0.39061504  0.16625792
   0.61555406  0.47688661  0.29072420
   0.60010193  0.57894353  0.41849704
   0.60486070  0.69894672  0.51241441
   0.57672684  0.81064068  0.58710625
   0.60009178  0.87838250  0.68967325
   0.61033024  0.99837474  0.80281024
   0.60957544  0.09714072  0.87016142
   0.60104503  0.19713742  0.97379305
   0.59908491  0.30248626  0.08803332
   0.70207989  0.40319539  0.29433969
   0.69788022  0.50548242  0.38667756
   0.68499478  0.59079333  0.51673978
   0.72008699  0.69728631  0.58029879
   0.69889618  0.81246724  0.69256565
   0.68313887  0.89259531  0.80975307
   0.70655383  0.98065615  0.89626092
   0.69400221  0.08407905  0.98253186
   0.69865820  0.19931331  0.09195396
   0.70192009  0.30051974  0.20325605
   0.79568442  0.40632990  0.42323020
   0.80885060  0.49496373  0.52442475
   0.80917486  0.59519353  0.61280471
   0.80314081  0.69910474  0.69719989
   0.80318474  0.79233452  0.79820059
   0.80429453  0.87915931  0.90887562
   0.79804173  0.01858625  0.01615204
   0.79488770  0.12076935  0.10245513
   0.78821643  0.20551557  0.20833219
   0.78077786  0.32874146  0.31289427
   0.91744348  0.40127629  0.49868707
   0.91515336  0.47232599  0.59613309
   0.90397099  0.58888016  0.68510300
   0.90620331  0.69004747  0.76915262
   0.89901686  0.79665054  0.89780782
   0.88072095  0.89436449  0.01993168
   0.89628521  0.00961551  0.08750625
   0.88204907  0.09946067  0.22909979
   0.90768228  0.20821594  0.30761724
   0.89663638  0.31778670  0.38508881
   0.03322673  0.36943869  0.60885831
   0.03686251  0.51311085  0.69774300
   0.00651644  0.62158321  0.79099135
   0.98124770  0.69812515  0.90636355
   0.97656688  0.80331445  0.01680950
   0.96543204  0.89374062  0.10779082
   0.98301403  0.01105930  0.19724133
   0.00438916  0.11357714  0.32200611
   0.02551899  0.21199904  0.40632248
   0.02185547  0.30195882  0.50660295
   0.12250153  0.42214581  0.69416960
   0.10552733  0.51466322  0.81771861
   0.10800681  0.62067078  0.91341457
   0.08389394  0.72350975  0.02409761
   0.08197079  0.82612664  0.11700114
   0.10381801  0.89563687  0.21118711
   0.11592262  0.01821308  0.28629429
   0.10240701  0.07870017  0.39910131
   0.12178634  0.20332734  0.49668342
   0.13788864  0.30301677  0.59359390
   0.20660786  0.40662609  0.79880719
   0.19895536  0.50924058  0.88597891
   0.22445959  0.60198657  0.00443637
   0.21373466  0.71061661  0.07413191
   0.20736438  0.77799091  0.17419412
   0.18088025  0.91268097  0.30729861
   0.19710277  0.99881878  0.40905308
   0.21677861  0.10134632  0.52951804
   0.21532316  0.20122838  0.61993052
   0.20866986  0.29282123  0.71368625
   0.30609863  0.41561220  0.90065673
   0.31298652  0.51631523  0.00383466
   0.31995236  0.62398222  0.10715377
   0.30317360  0.71803275  0.18181636
   0.27609900  0.79251982  0.29807823
   0.26975390  0.90757206  0.38491042
   0.29176847  0.98762964  0.53379249
   0.29732698  0.12017070  0.60260237
   0.30275969  0.17969798  0.71447500
   0.30861058  0.29081897  0.77919291
