       N       E                     dE             d eps       ncg     rms          rms(c)
DAV:   1    -0.334341138773E+03   -0.33434E+03   -0.11889E+05  4040   0.647E+02
DAV:   2    -0.898612310978E+03   -0.56427E+03   -0.51731E+03  4628   0.643E+01
DAV:   3    -0.938822777556E+03   -0.40210E+02   -0.36725E+02  5176   0.136E+01
DAV:   4    -0.940225150170E+03   -0.14024E+01   -0.13792E+01  4656   0.276E+00
DAV:   5    -0.940256971009E+03   -0.31821E-01   -0.31758E-01  4856   0.445E-01    0.710E+00
DAV:   6    -0.936345027090E+03    0.39119E+01   -0.63283E+00  4560   0.296E+00    0.503E+00
DAV:   7    -0.935145847717E+03    0.11992E+01   -0.53818E+00  4640   0.303E+00    0.415E+00
DAV:   8    -0.932913811176E+03    0.22320E+01   -0.29487E+00  4568   0.185E+00    0.207E+00
DAV:   9    -0.932939061732E+03   -0.25251E-01   -0.15239E+00  4608   0.118E+00    0.176E+00
DAV:  10    -0.932637377273E+03    0.30168E+00   -0.79818E-01  4608   0.892E-01    0.997E-01
DAV:  11    -0.932584596187E+03    0.52781E-01   -0.23749E-01  4464   0.426E-01    0.602E-01
DAV:  12    -0.932599249365E+03   -0.14653E-01   -0.67686E-02  4648   0.304E-01    0.550E-01
DAV:  13    -0.932565794249E+03    0.33455E-01   -0.35876E-02  4600   0.227E-01    0.251E-01
DAV:  14    -0.932569390183E+03   -0.35959E-02   -0.12142E-02  4656   0.133E-01    0.223E-01
DAV:  15    -0.932564057083E+03    0.53331E-02   -0.89374E-03  4632   0.110E-01    0.108E-01
DAV:  16    -0.932562997876E+03    0.10592E-02   -0.26814E-03  4472   0.530E-02    0.501E-02
DAV:  17    -0.932563145366E+03   -0.14749E-03   -0.77752E-04  4552   0.314E-02    0.471E-02
DAV:  18    -0.932562844794E+03    0.30057E-03   -0.45912E-04  4504   0.235E-02    0.193E-02
DAV:  19    -0.932562824869E+03    0.19925E-04   -0.12376E-04  4440   0.107E-02    0.120E-02
DAV:  20    -0.932562814601E+03    0.10268E-04   -0.45453E-05  4456   0.706E-03    0.798E-03
DAV:  21    -0.932562807294E+03    0.73070E-05   -0.11873E-05  2768   0.445E-03
   1 F= -.93256281E+03 E0= -.93249341E+03  d E =-.138795E+00
