 500 500   0   0
  0.1852332E+02  0.2100050E-08  0.2100050E-08  0.2100050E-08  0.5000000E-15
  1.000000000000000E-004
  CAR 
 Li                                      
      3.82879157     -3.30445834  301      0.63376101      1.00000000
     -3.304  0.0000E+00  0.0000E+00
     -3.281  0.0000E+00  0.0000E+00
     -3.257  0.0000E+00  0.0000E+00
     -3.233  0.0000E+00  0.0000E+00
     -3.209  0.0000E+00  0.0000E+00
     -3.186  0.0000E+00  0.0000E+00
     -3.162  0.0000E+00  0.0000E+00
     -3.138  0.4194E-11  0.9973E-13
     -3.114  0.1097E-07  0.2609E-09
     -3.090  0.8393E-05  0.1998E-06
     -3.067  0.1897E-02  0.4530E-04
     -3.043  0.1284E+00  0.3099E-02
     -3.019  0.2655E+01  0.6623E-01
     -2.995  0.1715E+02  0.4740E+00
     -2.972  0.3535E+02  0.1314E+01
     -2.948  0.2350E+02  0.1873E+01
     -2.924  0.5423E+01  0.2002E+01
     -2.900  0.7878E+01  0.2189E+01
     -2.876  0.4553E+02  0.3272E+01
     -2.853  0.9717E+02  0.5582E+01
     -2.829  0.7657E+02  0.7403E+01
     -2.805  0.2288E+02  0.7947E+01
     -2.781  0.8116E+01  0.8140E+01
     -2.758  0.3837E+02  0.9052E+01
     -2.734  0.9200E+02  0.1124E+02
     -2.710  0.8318E+02  0.1322E+02
     -2.686  0.2927E+02  0.1391E+02
     -2.662  0.9838E+01  0.1415E+02
     -2.639  0.4215E+02  0.1515E+02
     -2.615  0.1096E+03  0.1776E+02
     -2.591  0.1170E+03  0.2054E+02
     -2.567  0.5244E+02  0.2179E+02
     -2.544  0.1773E+02  0.2221E+02
     -2.520  0.5546E+02  0.2353E+02
     -2.496  0.1396E+03  0.2684E+02
     -2.472  0.1660E+03  0.3079E+02
     -2.448  0.1009E+03  0.3319E+02
     -2.425  0.3221E+02  0.3396E+02
     -2.401  0.2374E+02  0.3452E+02
     -2.377  0.6745E+02  0.3612E+02
     -2.353  0.9272E+02  0.3833E+02
     -2.330  0.5545E+02  0.3965E+02
     -2.306  0.1881E+02  0.4009E+02
     -2.282  0.3820E+02  0.4100E+02
     -2.258  0.1118E+03  0.4366E+02
     -2.234  0.1641E+03  0.4756E+02
     -2.211  0.1286E+03  0.5062E+02
     -2.187  0.5575E+02  0.5195E+02
     -2.163  0.5311E+02  0.5321E+02
     -2.139  0.1382E+03  0.5650E+02
     -2.116  0.2151E+03  0.6161E+02
     -2.092  0.2047E+03  0.6648E+02
     -2.068  0.1137E+03  0.6918E+02
     -2.044  0.3563E+02  0.7003E+02
     -2.020  0.3657E+02  0.7090E+02
     -1.997  0.8408E+02  0.7290E+02
     -1.973  0.8569E+02  0.7494E+02
     -1.949  0.3950E+02  0.7588E+02
     -1.925  0.2717E+02  0.7652E+02
     -1.902  0.8476E+02  0.7854E+02
     -1.878  0.1662E+03  0.8249E+02
     -1.854  0.1786E+03  0.8674E+02
     -1.830  0.1065E+03  0.8927E+02
     -1.806  0.5029E+02  0.9046E+02
     -1.783  0.9154E+02  0.9264E+02
     -1.759  0.1786E+03  0.9689E+02
     -1.735  0.2138E+03  0.1020E+03
     -1.711  0.1641E+03  0.1059E+03
     -1.688  0.7681E+02  0.1077E+03
     -1.664  0.4602E+02  0.1088E+03
     -1.640  0.9932E+02  0.1112E+03
     -1.616  0.1570E+03  0.1149E+03
     -1.592  0.1383E+03  0.1182E+03
     -1.569  0.7408E+02  0.1199E+03
     -1.545  0.7721E+02  0.1218E+03
     -1.521  0.1664E+03  0.1257E+03
     -1.497  0.2242E+03  0.1311E+03
     -1.474  0.1843E+03  0.1354E+03
     -1.450  0.9151E+02  0.1376E+03
     -1.426  0.5750E+02  0.1390E+03
     -1.402  0.1302E+03  0.1421E+03
     -1.378  0.2117E+03  0.1471E+03
     -1.355  0.2067E+03  0.1520E+03
     -1.331  0.1258E+03  0.1550E+03
     -1.307  0.6054E+02  0.1565E+03
     -1.283  0.8266E+02  0.1584E+03
     -1.260  0.1360E+03  0.1617E+03
     -1.236  0.1404E+03  0.1650E+03
     -1.212  0.9405E+02  0.1672E+03
     -1.188  0.5885E+02  0.1686E+03
     -1.164  0.9522E+02  0.1709E+03
     -1.141  0.1395E+03  0.1742E+03
     -1.117  0.1342E+03  0.1774E+03
     -1.093  0.9398E+02  0.1796E+03
     -1.069  0.8929E+02  0.1818E+03
     -1.046  0.1707E+03  0.1858E+03
     -1.022  0.2610E+03  0.1920E+03
     -0.998  0.2974E+03  0.1991E+03
     -0.974  0.2539E+03  0.2051E+03
     -0.950  0.1633E+03  0.2090E+03
     -0.927  0.1246E+03  0.2120E+03
     -0.903  0.1804E+03  0.2163E+03
     -0.879  0.2184E+03  0.2215E+03
     -0.855  0.1707E+03  0.2255E+03
     -0.832  0.9553E+02  0.2278E+03
     -0.808  0.7013E+02  0.2295E+03
     -0.784  0.1066E+03  0.2320E+03
     -0.760  0.1658E+03  0.2359E+03
     -0.736  0.1701E+03  0.2400E+03
     -0.713  0.1370E+03  0.2432E+03
     -0.689  0.1728E+03  0.2474E+03
     -0.665  0.2260E+03  0.2527E+03
     -0.641  0.2256E+03  0.2581E+03
     -0.618  0.1810E+03  0.2624E+03
     -0.594  0.1102E+03  0.2650E+03
     -0.570  0.5821E+02  0.2664E+03
     -0.546  0.6578E+02  0.2680E+03
     -0.522  0.8046E+02  0.2699E+03
     -0.499  0.7359E+02  0.2716E+03
     -0.475  0.9686E+02  0.2739E+03
     -0.451  0.1760E+03  0.2781E+03
     -0.427  0.2427E+03  0.2839E+03
     -0.404  0.2584E+03  0.2900E+03
     -0.380  0.2543E+03  0.2961E+03
     -0.356  0.2437E+03  0.3019E+03
     -0.332  0.2212E+03  0.3071E+03
     -0.308  0.2134E+03  0.3122E+03
     -0.285  0.2365E+03  0.3178E+03
     -0.261  0.2561E+03  0.3239E+03
     -0.237  0.2323E+03  0.3294E+03
     -0.213  0.1706E+03  0.3335E+03
     -0.190  0.1265E+03  0.3365E+03
     -0.166  0.1215E+03  0.3394E+03
     -0.142  0.1379E+03  0.3427E+03
     -0.118  0.1568E+03  0.3464E+03
     -0.094  0.1851E+03  0.3508E+03
     -0.071  0.1870E+03  0.3552E+03
     -0.047  0.1655E+03  0.3592E+03
     -0.023  0.1582E+03  0.3629E+03
      0.001  0.1721E+03  0.3670E+03
      0.024  0.1913E+03  0.3716E+03
      0.048  0.2124E+03  0.3766E+03
      0.072  0.2336E+03  0.3822E+03
      0.096  0.2443E+03  0.3880E+03
      0.120  0.2319E+03  0.3935E+03
      0.143  0.2177E+03  0.3987E+03
      0.167  0.2085E+03  0.4036E+03
      0.191  0.1960E+03  0.4083E+03
      0.215  0.1730E+03  0.4124E+03
      0.238  0.1515E+03  0.4160E+03
      0.262  0.1612E+03  0.4198E+03
      0.286  0.1965E+03  0.4245E+03
      0.310  0.2229E+03  0.4298E+03
      0.333  0.2291E+03  0.4353E+03
      0.357  0.2156E+03  0.4404E+03
      0.381  0.2011E+03  0.4452E+03
      0.405  0.1998E+03  0.4499E+03
      0.429  0.2071E+03  0.4549E+03
      0.452  0.2051E+03  0.4597E+03
      0.476  0.2040E+03  0.4646E+03
      0.500  0.2068E+03  0.4695E+03
      0.524  0.2129E+03  0.4746E+03
      0.547  0.2276E+03  0.4800E+03
      0.571  0.2389E+03  0.4856E+03
      0.595  0.2333E+03  0.4912E+03
      0.619  0.2280E+03  0.4966E+03
      0.643  0.2270E+03  0.5020E+03
      0.666  0.2321E+03  0.5075E+03
      0.690  0.2307E+03  0.5130E+03
      0.714  0.2322E+03  0.5185E+03
      0.738  0.2429E+03  0.5243E+03
      0.761  0.2396E+03  0.5300E+03
      0.785  0.2423E+03  0.5358E+03
      0.809  0.2645E+03  0.5421E+03
      0.833  0.2735E+03  0.5486E+03
      0.857  0.2712E+03  0.5550E+03
      0.880  0.2675E+03  0.5614E+03
      0.904  0.2543E+03  0.5674E+03
      0.928  0.2429E+03  0.5732E+03
      0.952  0.2369E+03  0.5788E+03
      0.975  0.2346E+03  0.5844E+03
      0.999  0.2347E+03  0.5900E+03
      1.023  0.2236E+03  0.5953E+03
      1.047  0.1974E+03  0.6000E+03
      1.071  0.1786E+03  0.6042E+03
      1.094  0.1735E+03  0.6084E+03
      1.118  0.1691E+03  0.6124E+03
      1.142  0.1705E+03  0.6164E+03
      1.166  0.1837E+03  0.6208E+03
      1.189  0.1906E+03  0.6253E+03
      1.213  0.1860E+03  0.6298E+03
      1.237  0.1805E+03  0.6341E+03
      1.261  0.1783E+03  0.6383E+03
      1.285  0.1868E+03  0.6427E+03
      1.308  0.2073E+03  0.6477E+03
      1.332  0.2258E+03  0.6530E+03
      1.356  0.2258E+03  0.6584E+03
      1.380  0.2229E+03  0.6637E+03
      1.403  0.2345E+03  0.6693E+03
      1.427  0.2448E+03  0.6751E+03
      1.451  0.2411E+03  0.6808E+03
      1.475  0.2316E+03  0.6863E+03
      1.499  0.2122E+03  0.6914E+03
      1.522  0.2015E+03  0.6962E+03
      1.546  0.2138E+03  0.7013E+03
      1.570  0.2087E+03  0.7062E+03
      1.594  0.1912E+03  0.7108E+03
      1.617  0.1921E+03  0.7153E+03
      1.641  0.2019E+03  0.7201E+03
      1.665  0.1953E+03  0.7248E+03
      1.689  0.1938E+03  0.7294E+03
      1.713  0.1977E+03  0.7341E+03
      1.736  0.1941E+03  0.7387E+03
      1.760  0.1903E+03  0.7432E+03
      1.784  0.1857E+03  0.7476E+03
      1.808  0.1832E+03  0.7520E+03
      1.831  0.1840E+03  0.7564E+03
      1.855  0.1837E+03  0.7607E+03
      1.879  0.1821E+03  0.7651E+03
      1.903  0.1801E+03  0.7694E+03
      1.927  0.1703E+03  0.7734E+03
      1.950  0.1549E+03  0.7771E+03
      1.974  0.1504E+03  0.7807E+03
      1.998  0.1561E+03  0.7844E+03
      2.022  0.1574E+03  0.7881E+03
      2.045  0.1594E+03  0.7919E+03
      2.069  0.1608E+03  0.7957E+03
      2.093  0.1626E+03  0.7996E+03
      2.117  0.1602E+03  0.8034E+03
      2.141  0.1629E+03  0.8073E+03
      2.164  0.1708E+03  0.8113E+03
      2.188  0.1844E+03  0.8157E+03
      2.212  0.2017E+03  0.8205E+03
      2.236  0.1963E+03  0.8252E+03
      2.259  0.1890E+03  0.8297E+03
      2.283  0.1913E+03  0.8342E+03
      2.307  0.1916E+03  0.8388E+03
      2.331  0.1926E+03  0.8434E+03
      2.355  0.1814E+03  0.8477E+03
      2.378  0.1705E+03  0.8517E+03
      2.402  0.1599E+03  0.8555E+03
      2.426  0.1381E+03  0.8588E+03
      2.450  0.1295E+03  0.8619E+03
      2.473  0.1238E+03  0.8648E+03
      2.497  0.1214E+03  0.8677E+03
      2.521  0.1276E+03  0.8708E+03
      2.545  0.1417E+03  0.8741E+03
      2.569  0.1497E+03  0.8777E+03
      2.592  0.1532E+03  0.8813E+03
      2.616  0.1524E+03  0.8850E+03
      2.640  0.1485E+03  0.8885E+03
      2.664  0.1422E+03  0.8919E+03
      2.687  0.1401E+03  0.8952E+03
      2.711  0.1391E+03  0.8985E+03
      2.735  0.1406E+03  0.9019E+03
      2.759  0.1434E+03  0.9053E+03
      2.783  0.1347E+03  0.9085E+03
      2.806  0.1239E+03  0.9114E+03
      2.830  0.1259E+03  0.9144E+03
      2.854  0.1322E+03  0.9175E+03
      2.878  0.1467E+03  0.9210E+03
      2.901  0.1563E+03  0.9248E+03
      2.925  0.1578E+03  0.9285E+03
      2.949  0.1607E+03  0.9323E+03
      2.973  0.1587E+03  0.9361E+03
      2.997  0.1427E+03  0.9395E+03
      3.020  0.1340E+03  0.9427E+03
      3.044  0.1331E+03  0.9458E+03
      3.068  0.1331E+03  0.9490E+03
      3.092  0.1307E+03  0.9521E+03
      3.115  0.1283E+03  0.9552E+03
      3.139  0.1291E+03  0.9582E+03
      3.163  0.1361E+03  0.9615E+03
      3.187  0.1400E+03  0.9648E+03
      3.211  0.1384E+03  0.9681E+03
      3.234  0.1401E+03  0.9714E+03
      3.258  0.1381E+03  0.9747E+03
      3.282  0.1370E+03  0.9780E+03
      3.306  0.1288E+03  0.9810E+03
      3.329  0.1148E+03  0.9838E+03
      3.353  0.1073E+03  0.9863E+03
      3.377  0.9533E+02  0.9886E+03
      3.401  0.8622E+02  0.9906E+03
      3.425  0.8570E+02  0.9927E+03
      3.448  0.9727E+02  0.9950E+03
      3.472  0.1135E+03  0.9977E+03
      3.496  0.1034E+03  0.1000E+04
      3.520  0.5922E+02  0.1002E+04
      3.543  0.1721E+02  0.1002E+04
      3.567  0.2013E+01  0.1002E+04
      3.591  0.8141E-01  0.1002E+04
      3.615  0.1053E-02  0.1002E+04
      3.639  0.4191E-05  0.1002E+04
      3.662  0.5015E-08  0.1002E+04
      3.686  0.1779E-11  0.1002E+04
      3.710  0.0000E+00  0.1002E+04
      3.734  0.0000E+00  0.1002E+04
      3.757  0.0000E+00  0.1002E+04
      3.781  0.0000E+00  0.1002E+04
      3.805  0.0000E+00  0.1002E+04
      3.829  0.0000E+00  0.1002E+04
