 running on   64 total cores
 distrk:  each k-point on   32 cores,    2 groups
 distr:  one band on   32 cores,    1 groups
 vasp.6.2.1 16May21 (build Nov 23 2021 15:40:41) complex                        
  
 POSCAR found type information on POSCAR Li
 POSCAR found :  1 types and     500 ions
 scaLAPACK will be used
 -----------------------------------------------------------------------------
|                                                                             |
|           W    W    AA    RRRRR   N    N  II  N    N   GGGG   !!!           |
|           W    W   A  A   R    R  NN   N  II  NN   N  G    G  !!!           |
|           W    W  A    A  R    R  N N  N  II  N N  N  G       !!!           |
|           W WW W  AAAAAA  RRRRR   N  N N  II  N  N N  G  GGG   !            |
|           WW  WW  A    A  R   R   N   NN  II  N   NN  G    G                |
|           W    W  A    A  R    R  N    N  II  N    N   GGGG   !!!           |
|                                                                             |
|     For optimal performance we recommend to set                             |
|       NCORE = 2 up to number-of-cores-per-socket                            |
|     NCORE specifies how many cores store one orbital (NPAR=cpu/NCORE).      |
|     This setting can greatly improve the performance of VASP for DFT.       |
|     The default, NCORE=1 might be grossly inefficient on modern             |
|     multi-core architectures or massively parallel machines. Do your        |
|     own testing! More info at https://www.vasp.at/wiki/index.php/NCORE      |
|     Unfortunately you need to use the default for GW and RPA                |
|     calculations (for HF NCORE is supported but not extensively tested      |
|     yet).                                                                   |
|                                                                             |
 -----------------------------------------------------------------------------

 -----------------------------------------------------------------------------
|                                                                             |
|               ----> ADVICE to this user running VASP <----                  |
|                                                                             |
|     You have a (more or less) 'large supercell' and for larger cells it     |
|     might be more efficient to use real-space projection operators.         |
|     Therefore, try LREAL= Auto in the INCAR file.                           |
|     Mind: If you want to do very accurate calculations, keep the            |
|     reciprocal projection scheme (i.e. LREAL=.FALSE.).                      |
|                                                                             |
 -----------------------------------------------------------------------------

 LDA part: xc-table for Pade appr. of Perdew
 POSCAR found type information on POSCAR Li
 POSCAR found :  1 types and     500 ions
 POSCAR, INCAR and KPOINTS ok, starting setup
 FFT: planning ...
 WAVECAR not read
 entering main loop
       N       E                     dE             d eps       ncg     rms          rms(c)
DAV:   1    -0.221893024497E+03   -0.22189E+03   -0.12461E+05  4008   0.665E+02
DAV:   2    -0.855220101533E+03   -0.63333E+03   -0.57933E+03  4604   0.702E+01
DAV:   3    -0.900295650057E+03   -0.45076E+02   -0.41090E+02  5192   0.147E+01
DAV:   4    -0.901804875389E+03   -0.15092E+01   -0.14870E+01  4720   0.294E+00
DAV:   5    -0.901841098926E+03   -0.36224E-01   -0.36155E-01  4880   0.474E-01    0.108E+01
DAV:   6    -0.892377681579E+03    0.94634E+01   -0.14173E+01  4656   0.469E+00    0.745E+00
DAV:   7    -0.889617912246E+03    0.27598E+01   -0.11262E+01  4800   0.467E+00    0.599E+00
DAV:   8    -0.885199503435E+03    0.44184E+01   -0.57499E+00  4768   0.285E+00    0.303E+00
DAV:   9    -0.884476949404E+03    0.72255E+00   -0.32287E+00  4472   0.146E+00    0.149E+00
DAV:  10    -0.884567313997E+03   -0.90365E-01   -0.87629E-01  4696   0.883E-01    0.130E+00
DAV:  11    -0.884408985214E+03    0.15833E+00   -0.34460E-01  4616   0.618E-01    0.724E-01
DAV:  12    -0.884380970366E+03    0.28015E-01   -0.73057E-02  4416   0.239E-01    0.327E-01
DAV:  13    -0.884384870068E+03   -0.38997E-02   -0.20875E-02  4832   0.161E-01    0.252E-01
DAV:  14    -0.884379081447E+03    0.57886E-02   -0.11577E-02  4816   0.127E-01    0.131E-01
DAV:  15    -0.884377865882E+03    0.12156E-02   -0.30495E-03  4648   0.612E-02    0.678E-02
DAV:  16    -0.884377690694E+03    0.17519E-03   -0.12991E-03  4432   0.320E-02    0.332E-02
DAV:  17    -0.884377653470E+03    0.37224E-04   -0.29979E-04  4936   0.194E-02    0.260E-02
DAV:  18    -0.884377572793E+03    0.80677E-04   -0.10748E-04  4616   0.110E-02    0.105E-02
DAV:  19    -0.884377561989E+03    0.10803E-04   -0.39913E-05  4328   0.596E-03    0.615E-03
DAV:  20    -0.884377558792E+03    0.31970E-05   -0.10827E-05  2480   0.377E-03
   1 F= -.88437756E+03 E0= -.88432651E+03  d E =-.102091E+00
