Li                                      
           1
    21.000500    0.000000    0.000000
     0.000000   21.000500    0.000000
     0.000000    0.000000   21.000500
   Li
   500
Direct configuration=     1
   0.98511280  0.01820603  0.03124860
   0.98741079  0.11463235  0.10998443
   0.98970393  0.22245667  0.20689848
   0.01505236  0.28793466  0.31687728
   0.01466861  0.41097515  0.41136963
   0.02318503  0.50229451  0.51549703
   0.01343005  0.58437581  0.59647940
   0.00869925  0.71714452  0.69758731
   0.03431731  0.82449852  0.79484611
   0.99461615  0.91605479  0.91512428
   0.09270813  0.99808450  0.10624720
   0.08986353  0.12912357  0.21631788
   0.10314409  0.18467341  0.31284325
   0.10331497  0.27917126  0.40841633
   0.10975849  0.40043618  0.50661463
   0.12568157  0.48783808  0.59175456
   0.08950766  0.59848445  0.71801554
   0.12357622  0.71677903  0.78575609
   0.09450585  0.80745210  0.92145790
   0.10600646  0.90851167  0.01612178
   0.20424130  0.01315306  0.22139213
   0.21105111  0.09647263  0.28230969
   0.20563932  0.19732453  0.39847728
   0.23898301  0.30292642  0.50282756
   0.22070152  0.40720567  0.60836864
   0.20354924  0.51037449  0.69512586
   0.17948521  0.61303574  0.79589061
   0.19720702  0.72660568  0.90279613
   0.19141013  0.80665911  0.00961980
   0.20838307  0.90700622  0.11286697
   0.30974871  0.01685824  0.31703101
   0.28415045  0.12468806  0.38337092
   0.31358983  0.18964696  0.50775046
   0.31760875  0.30449403  0.57993734
   0.30884464  0.38951384  0.69209505
   0.29011370  0.46898234  0.77854966
   0.27765653  0.58529034  0.88169915
   0.31080072  0.71313814  0.01152488
   0.30611769  0.79153988  0.11419736
   0.30957164  0.90705406  0.22247481
   0.40888840  0.03452361  0.39383091
   0.41135597  0.11091525  0.48662688
   0.42010746  0.18717421  0.60478184
   0.39405816  0.28192343  0.69599120
   0.40063742  0.36614199  0.78377304
   0.40166090  0.50054858  0.90314866
   0.37558707  0.57892434  0.99639800
   0.40598736  0.70475195  0.11487094
   0.41647180  0.79272657  0.22346633
   0.40694491  0.91384181  0.31603827
   0.51638638  0.00781699  0.49455442
   0.49625625  0.08234767  0.60314524
   0.51420124  0.19905673  0.72066487
   0.50841073  0.29380297  0.78508665
   0.48402658  0.40114229  0.89210265
   0.51424431  0.52251873  0.97420461
   0.49322235  0.59126812  0.07503153
   0.50198849  0.68640308  0.20977461
   0.51319471  0.78807118  0.30585915
   0.49348242  0.88798624  0.42220333
   0.59418368  0.00343040  0.61486618
   0.61594450  0.09102806  0.72227099
   0.60634151  0.19353358  0.79986028
   0.61353187  0.28954258  0.88633552
   0.61507677  0.39533240  0.98628931
   0.62312946  0.50949705  0.06997030
   0.58983608  0.58196800  0.18097693
   0.59233150  0.66501409  0.31839501
   0.59342971  0.78437320  0.41055620
   0.61185565  0.89527120  0.50351212
   0.71105023  0.01450529  0.67187563
   0.71194636  0.09558124  0.78836643
   0.72555096  0.19108803  0.89334558
   0.69658036  0.28613515  0.97780819
   0.70992649  0.41029530  0.06429377
   0.69906851  0.48496808  0.19095370
   0.69646229  0.58449589  0.29201290
   0.69217054  0.66273943  0.42663765
   0.70000719  0.80981831  0.49232411
   0.70716471  0.88977697  0.59028766
   0.81131810  0.99422833  0.80270001
   0.81964595  0.10566619  0.89729469
   0.82201583  0.23846418  0.04256724
   0.78685916  0.30542343  0.09732994
   0.79584060  0.41226193  0.19464689
   0.81715456  0.49801887  0.29985716
   0.79057088  0.58164741  0.40005082
   0.79230531  0.70488218  0.51042480
   0.79152589  0.80322615  0.58172069
   0.81260589  0.89504749  0.67656682
   0.91188916  0.99599180  0.91110654
   0.84906579  0.09471930  0.01580382
   0.88784115  0.21450448  0.12811512
   0.87827302  0.31893104  0.21454593
   0.91588697  0.42687462  0.29226056
   0.89659301  0.50137793  0.41748705
   0.87283005  0.61472802  0.52709975
   0.90553028  0.69694523  0.61650456
   0.90425580  0.82168454  0.69104230
   0.93912650  0.90889955  0.79206817
   0.07737931  0.10051087  0.01389176
   0.08964009  0.19336695  0.08700294
   0.10548054  0.27602676  0.21316114
   0.10318721  0.41787019  0.29492406
   0.11006371  0.54367927  0.41244995
   0.11109097  0.61341039  0.51170114
   0.09015698  0.71062897  0.61157161
   0.09155649  0.79512811  0.68574588
   0.09804200  0.91922461  0.80969180
   0.07347162  0.98604797  0.89012248
   0.19591808  0.08880839  0.12720563
   0.20817496  0.20893699  0.18966352
   0.20021784  0.30413774  0.32864384
   0.18635591  0.40943920  0.42070198
   0.20673486  0.50853585  0.52503025
   0.16775173  0.62081724  0.61889827
   0.19236311  0.70580252  0.70422534
   0.16936412  0.81349376  0.80476012
   0.19482458  0.89808186  0.91073209
   0.18286088  0.00145825  0.01626638
   0.31240555  0.11935301  0.20586177
   0.30618455  0.22175294  0.28700582
   0.28480972  0.31280223  0.41461552
   0.31264754  0.42513863  0.49089698
   0.30402814  0.50844892  0.58185589
   0.31547930  0.58899825  0.70285636
   0.30454072  0.71653864  0.80222802
   0.31236484  0.81842044  0.88999234
   0.29946384  0.90278673  0.99496380
   0.31964023  0.01341840  0.09809151
   0.40261407  0.12203177  0.28514526
   0.41662517  0.21816140  0.41090675
   0.41432366  0.30925587  0.49439650
   0.39599007  0.39807415  0.60684005
   0.41078339  0.49918731  0.70329570
   0.39045089  0.57587339  0.78592733
   0.36815753  0.70210956  0.90712827
   0.40390603  0.81262228  0.00863098
   0.39227407  0.90376790  0.10313194
   0.41316815  0.01962103  0.20772114
   0.51486930  0.13534900  0.37964272
   0.49529384  0.21819456  0.51667572
   0.50627271  0.30910147  0.63459212
   0.48878015  0.40838816  0.70628118
   0.52210904  0.50505247  0.80093188
   0.48958825  0.62296749  0.89048151
   0.47090676  0.68794025  0.99777932
   0.49431017  0.79695827  0.09916832
   0.51775386  0.88623323  0.20381444
   0.48495707  0.02069499  0.31827245
   0.59636770  0.09363160  0.48170383
   0.59846580  0.17243494  0.60268922
   0.62694707  0.30358969  0.70481688
   0.61625034  0.39862728  0.81422180
   0.60568163  0.50877510  0.91028150
   0.60401500  0.61070620  0.99894849
   0.56923510  0.68705709  0.07155680
   0.59145644  0.76207105  0.20726728
   0.58281809  0.88736601  0.29871351
   0.59538871  0.99901993  0.39442841
   0.70266860  0.11337771  0.59133326
   0.71863503  0.20699453  0.70166090
   0.72038889  0.29229103  0.81371679
   0.73578480  0.41973763  0.91215270
   0.71618391  0.53019487  0.98709629
   0.71643708  0.61407122  0.09225506
   0.68007354  0.66342058  0.19576416
   0.67509583  0.78777041  0.32813453
   0.67934679  0.90989129  0.38910880
   0.68856974  0.02018050  0.49477452
   0.80008109  0.09634593  0.71765751
   0.82454649  0.19506370  0.80602216
   0.80307762  0.30866175  0.92447204
   0.79195863  0.41733866  0.01110991
   0.82583151  0.49656840  0.09377857
   0.81681669  0.62687663  0.20768704
   0.77196468  0.68823066  0.31139450
   0.78223225  0.79463998  0.41296612
   0.77899500  0.90441311  0.47125558
   0.81409427  0.00519524  0.59372033
   0.89233529  0.07705532  0.78813595
   0.89069201  0.19277623  0.90200977
   0.89580311  0.32892871  0.02143599
   0.92430387  0.39994964  0.11647952
   0.91444809  0.51964563  0.18855723
   0.90253071  0.61169772  0.29192273
   0.87868234  0.67216899  0.40141913
   0.90157378  0.79390862  0.48643463
   0.90122791  0.90151811  0.57123978
   0.89395087  0.98932520  0.66882207
   0.98230826  0.08401620  0.91237380
   0.95114702  0.18209305  0.00444591
   0.99953517  0.29006584  0.11334774
   0.01008863  0.38431908  0.20889214
   0.99388538  0.53010407  0.29939060
   0.00027200  0.59171258  0.41663945
   0.00177095  0.70032693  0.50354907
   0.98845116  0.79987083  0.59715286
   0.99889378  0.88922332  0.70537144
   0.97302363  0.99222844  0.79705631
   0.19973677  0.20147438  0.00591419
   0.19104897  0.29345882  0.09779562
   0.18358494  0.40271873  0.19948909
   0.16174783  0.49698253  0.29445598
   0.22785603  0.61760769  0.37999310
   0.18324833  0.71075914  0.46553337
   0.19200852  0.78628033  0.58739654
   0.21105708  0.90238055  0.68137483
   0.18463174  0.99725687  0.78656969
   0.19483743  0.08645635  0.88893689
   0.28885553  0.21875235  0.10578953
   0.29458344  0.32256780  0.19457031
   0.28001791  0.41928886  0.31202949
   0.29424857  0.53575887  0.41119968
   0.31342166  0.62029164  0.51861235
   0.30514460  0.70948386  0.59238221
   0.28746234  0.80830388  0.68670580
   0.27923373  0.89742535  0.81444079
   0.28787687  0.01037838  0.91012720
   0.30596886  0.09499031  0.01339745
   0.41881315  0.21102838  0.16994694
   0.38828434  0.31409233  0.30193135
   0.40602518  0.39912871  0.40119931
   0.40109031  0.49229988  0.50346384
   0.41523226  0.58861825  0.61761704
   0.38113146  0.69839042  0.71568065
   0.39407075  0.81930999  0.80829341
   0.40310083  0.91617247  0.90928677
   0.41303462  0.98211546  0.99712332
   0.42062512  0.12728168  0.09570190
   0.48471868  0.22243482  0.26383596
   0.52553623  0.30642122  0.37926561
   0.50094171  0.37637767  0.50545020
   0.51475662  0.50741577  0.60546932
   0.49290055  0.58677265  0.71533901
   0.46899913  0.70390586  0.80090035
   0.49210095  0.80646738  0.89117334
   0.52748409  0.87619078  0.00191747
   0.48786129  0.99719330  0.10586115
   0.52362821  0.09525077  0.17291393
   0.60018335  0.21744120  0.40170272
   0.57698722  0.27045063  0.51442228
   0.59388514  0.38988077  0.61165299
   0.61107641  0.48936292  0.68101753
   0.60323731  0.61314465  0.80856909
   0.60069865  0.72049895  0.90524107
   0.58769782  0.79659878  0.00271128
   0.61228645  0.91093308  0.10393946
   0.58676270  0.99144097  0.20854282
   0.60926146  0.11160278  0.29152749
   0.69894222  0.18592879  0.48880906
   0.70166663  0.29953145  0.61045712
   0.70747316  0.39777925  0.71777532
   0.68263055  0.50398702  0.79421418
   0.69163999  0.62427976  0.88452727
   0.71690110  0.70302309  0.99208675
   0.68692828  0.79434910  0.10228763
   0.69609244  0.88499752  0.20771244
   0.67778730  0.00726731  0.30892505
   0.68857187  0.10256002  0.40393342
   0.80186632  0.21508947  0.58334503
   0.79269525  0.30091109  0.70542879
   0.81657034  0.41040640  0.80624338
   0.81417145  0.51617603  0.90536212
   0.81542635  0.60694163  0.00028233
   0.80745228  0.68414617  0.09418358
   0.77183524  0.75996337  0.21170998
   0.77135956  0.89941577  0.30395085
   0.81155606  0.99623050  0.37440582
   0.80850990  0.09518433  0.48444441
   0.90908228  0.19190200  0.70595726
   0.91256505  0.30192219  0.81290239
   0.92346431  0.41162369  0.89634830
   0.91215597  0.47889537  0.99773372
   0.90102654  0.62247147  0.10794684
   0.91018454  0.70876748  0.20732522
   0.87143045  0.77210169  0.33351371
   0.90194440  0.88526112  0.38043335
   0.90506343  0.97687675  0.50106791
   0.90907930  0.08761173  0.59219914
   0.01209880  0.16946299  0.80207497
   0.98997877  0.28571719  0.90429791
   0.02141971  0.37726410  0.99392875
   0.98191812  0.49619069  0.10315660
   0.98478685  0.60658897  0.20325955
   0.98599750  0.69137502  0.30167222
   0.99426481  0.76881544  0.38126683
   0.99028047  0.88949379  0.45262351
   0.97755585  0.96870446  0.59298592
   0.98848114  0.07588191  0.68462877
   0.08845832  0.16497680  0.92746465
   0.08825142  0.28632985  0.03817258
   0.09629876  0.38480487  0.11134239
   0.09627454  0.52449288  0.18476536
   0.11165155  0.62481712  0.30910098
   0.10342602  0.69921709  0.38628463
   0.10274827  0.81256592  0.48559912
   0.08589865  0.87357290  0.57504294
   0.08562966  0.98045666  0.67242570
   0.08099534  0.10446469  0.78664704
   0.28179932  0.30181884  0.98746604
   0.27699844  0.40289500  0.09243086
   0.28057651  0.48894980  0.16852087
   0.30650062  0.58838763  0.27649525
   0.32797828  0.68909476  0.41005359
   0.27327833  0.80445035  0.49047383
   0.30510041  0.90707779  0.57692034
   0.27983532  0.00084345  0.67600050
   0.30609356  0.11722344  0.80583263
   0.32197530  0.21439682  0.90688655
   0.37345266  0.32725011  0.09440186
   0.39644465  0.39691877  0.20742823
   0.41964173  0.51534305  0.29276166
   0.41356322  0.57446656  0.39651680
   0.40118266  0.71969302  0.51633676
   0.39511440  0.82986630  0.59193721
   0.40461419  0.91014746  0.72733275
   0.38313461  0.03053854  0.78935782
   0.38486468  0.10074173  0.89869497
   0.41827008  0.21084824  0.02247461
   0.51748527  0.33707566  0.19647959
   0.50584841  0.41067318  0.29771512
   0.50165654  0.50585136  0.40748147
   0.50270460  0.60422914  0.50014749
   0.46921569  0.69616096  0.61762917
   0.47622036  0.77745025  0.68856601
   0.52437603  0.92751813  0.81152829
   0.49264906  0.99896630  0.91745649
   0.52096694  0.10320771  0.99997386
   0.53214677  0.22628271  0.08420418
   0.60341206  0.31388058  0.29792459
   0.58671596  0.39520683  0.42951193
   0.60355269  0.49019939  0.51128328
   0.60591099  0.63167851  0.59740280
   0.59213516  0.68887538  0.71003236
   0.58140368  0.80430217  0.78051797
   0.59861052  0.88286690  0.89629449
   0.59041111  0.99738696  0.00452021
   0.60896737  0.09833080  0.08827157
   0.60530446  0.22724621  0.18514636
   0.70055806  0.31456896  0.43548758
   0.70106721  0.40385102  0.53098890
   0.70156239  0.50137018  0.62281788
   0.68312993  0.59705672  0.71377719
   0.70571991  0.73759519  0.78030598
   0.69058227  0.80275859  0.87886904
   0.71420258  0.88642507  0.99156576
   0.68871942  0.99488421  0.10911903
   0.68420368  0.12061188  0.20438286
   0.69017368  0.23113271  0.30885846
   0.80162352  0.31130272  0.49326621
   0.79828101  0.39086170  0.60394334
   0.79061043  0.50770178  0.71384176
   0.79732315  0.61197711  0.79698705
   0.79243647  0.71294860  0.90451917
   0.79442827  0.79849908  0.98477076
   0.79327247  0.89951521  0.10509780
   0.77770784  0.00922344  0.21242291
   0.77969113  0.11943797  0.29833288
   0.79030210  0.19795186  0.38523279
   0.93518071  0.29455288  0.60738449
   0.92781231  0.38561249  0.70699142
   0.91298108  0.50964045  0.80816756
   0.90342401  0.62651662  0.89047786
   0.88753962  0.69760166  0.98077843
   0.90159567  0.78073731  0.09562144
   0.86810977  0.89185795  0.21244063
   0.89012705  0.98968505  0.27824321
   0.90234650  0.09761881  0.36766693
   0.89840036  0.19184333  0.49250793
   0.03370867  0.26885981  0.72702042
   0.00281838  0.38775509  0.81895440
   0.99161536  0.50142268  0.91555886
   0.98709984  0.57626674  0.00445367
   0.99685257  0.69232115  0.06125188
   0.96422505  0.81414092  0.19392535
   0.98972893  0.86473075  0.28940913
   0.98659779  0.98653979  0.39310827
   0.99236289  0.09539365  0.51592011
   0.02325735  0.20234375  0.59434739
   0.08625647  0.26805752  0.81225693
   0.08889652  0.39702372  0.90806814
   0.10979276  0.50336347  0.99687032
   0.08269862  0.61411608  0.10343407
   0.07929895  0.72219332  0.19618947
   0.08453875  0.80861196  0.29039079
   0.09734585  0.89586580  0.38911427
   0.09118444  0.98375177  0.50621501
   0.08634401  0.06431419  0.60222246
   0.11744782  0.19169988  0.68332472
   0.16841273  0.28892280  0.91987932
   0.17784300  0.40741390  0.00577103
   0.20099525  0.50632316  0.08743771
   0.19689559  0.59625054  0.19886854
   0.20608323  0.69453225  0.29384208
   0.21528320  0.79870681  0.37830182
   0.20979522  0.90473674  0.48716013
   0.19186959  0.96884763  0.56668905
   0.19888967  0.07746703  0.71042215
   0.19882703  0.21365358  0.81650482
   0.36348401  0.39947650  0.97464511
   0.40334269  0.46813256  0.08604065
   0.40519897  0.57740628  0.19331659
   0.40112991  0.67305990  0.27927938
   0.38513735  0.77148614  0.39956540
   0.39166736  0.89652466  0.48475891
   0.41553920  0.98414806  0.59591452
   0.41560923  0.11293329  0.70919131
   0.39790786  0.20811602  0.81048543
   0.41327613  0.28939676  0.88874516
   0.49320997  0.41429304  0.04570911
   0.49324646  0.49675765  0.15006289
   0.52570994  0.58048887  0.28515812
   0.49659558  0.67909948  0.40555895
   0.50163219  0.79495437  0.51354883
   0.51891599  0.89024680  0.61882962
   0.52314528  0.99875849  0.68689357
   0.52038249  0.07039859  0.82501565
   0.48888021  0.21411381  0.87728050
   0.50140555  0.31999082  0.98169545
   0.60303976  0.41313049  0.17183227
   0.59498665  0.49090112  0.29365376
   0.58928298  0.56378217  0.39919047
   0.57880388  0.68058125  0.50349082
   0.60227855  0.78255029  0.60147976
   0.60568179  0.90395509  0.70196756
   0.62461306  0.98963826  0.81578927
   0.61929988  0.09486627  0.88960009
   0.60150797  0.19841186  0.99415781
   0.60846131  0.33152175  0.10166707
   0.69029919  0.39599847  0.29508041
   0.69889763  0.49650679  0.42444329
   0.68208463  0.57252647  0.51272321
   0.72149897  0.69762840  0.60205849
   0.70206620  0.80466098  0.70173755
   0.69719966  0.91340202  0.79124542
   0.69521273  0.99198383  0.91253777
   0.70508786  0.10545196  0.00738189
   0.69406031  0.19667420  0.09443248
   0.68531577  0.33684847  0.19481719
   0.81376437  0.41531323  0.40596231
   0.78967477  0.49792353  0.52966230
   0.78662587  0.59604133  0.61914512
   0.83224610  0.70164537  0.70550731
   0.82676219  0.80627619  0.81289372
   0.80215768  0.91830915  0.89718314
   0.79463529  0.99887775  0.01600121
   0.77928382  0.09359631  0.13784555
   0.78401029  0.21674717  0.20911421
   0.79722595  0.31028152  0.28954444
   0.89968167  0.40747417  0.51456901
   0.87262913  0.50641412  0.59517610
   0.94520879  0.58611874  0.71569050
   0.92337380  0.70962622  0.79611139
   0.91717615  0.81711276  0.90002868
   0.88737326  0.88398759  0.00140748
   0.87958742  0.00195475  0.10111750
   0.90586292  0.09727727  0.20096935
   0.88524712  0.18129132  0.29174006
   0.91037802  0.29006301  0.40060036
   0.99432112  0.41061452  0.59982918
   0.00458755  0.49972801  0.69420616
   0.02716824  0.57013085  0.80751737
   0.01948860  0.70786017  0.90151514
   0.00917499  0.81785079  0.02047742
   0.98918919  0.90133523  0.10996052
   0.99704155  0.99627298  0.21992363
   0.01423263  0.09256757  0.28957575
   0.99328401  0.17294825  0.39517116
   0.00402919  0.30147678  0.48070019
   0.09806178  0.40540647  0.69253103
   0.09518007  0.49920649  0.78395733
   0.10833801  0.60003981  0.90748718
   0.09969413  0.68603230  0.98922088
   0.11206143  0.78932594  0.10973494
   0.09591408  0.87247498  0.18224701
   0.12471351  0.98989587  0.28158774
   0.10131899  0.07730154  0.40420919
   0.11899992  0.17965354  0.49788189
   0.11628107  0.31551800  0.58705619
   0.17099243  0.35700148  0.79685470
   0.18406015  0.49278994  0.89724561
   0.22703406  0.61277709  0.98473292
   0.21831904  0.68888020  0.10957382
   0.22042203  0.79910904  0.20343491
   0.19878678  0.88187544  0.29305475
   0.19543645  0.00583247  0.40235411
   0.21686471  0.08463949  0.51123044
   0.21158927  0.17923764  0.60633224
   0.17513877  0.29803022  0.68459195
   0.27692047  0.37262008  0.87263551
   0.29014061  0.48480195  0.97314164
   0.30103985  0.59085119  0.09453976
   0.32887730  0.69388623  0.19860151
   0.31956266  0.78624368  0.29223105
   0.29753311  0.88491248  0.37770756
   0.32146919  0.01880807  0.47647210
   0.30793442  0.08821182  0.61725737
   0.29856275  0.19873055  0.68875273
   0.28595715  0.29201991  0.79002570
