 500 500   0   0
  0.1910214E+02  0.2121700E-08  0.2121700E-08  0.2121700E-08  0.5000000E-15
  1.000000000000000E-004
  CAR 
 Li                                      
      3.75731842     -3.36128722  301      0.55761148      1.00000000
     -3.361  0.0000E+00  0.0000E+00
     -3.338  0.0000E+00  0.0000E+00
     -3.314  0.0000E+00  0.0000E+00
     -3.290  0.0000E+00  0.0000E+00
     -3.266  0.0000E+00  0.0000E+00
     -3.243  0.0000E+00  0.0000E+00
     -3.219  0.0000E+00  0.0000E+00
     -3.195  0.4729E-11  0.1122E-12
     -3.171  0.1198E-07  0.2844E-09
     -3.148  0.8923E-05  0.2120E-06
     -3.124  0.1973E-02  0.4703E-04
     -3.100  0.1314E+00  0.3164E-02
     -3.077  0.2683E+01  0.6684E-01
     -3.053  0.1721E+02  0.4751E+00
     -3.029  0.3536E+02  0.1314E+01
     -3.005  0.2353E+02  0.1872E+01
     -2.982  0.5489E+01  0.2003E+01
     -2.958  0.8068E+01  0.2194E+01
     -2.934  0.4573E+02  0.3279E+01
     -2.910  0.9764E+02  0.5596E+01
     -2.887  0.7686E+02  0.7420E+01
     -2.863  0.2244E+02  0.7952E+01
     -2.839  0.8279E+01  0.8149E+01
     -2.816  0.3920E+02  0.9079E+01
     -2.792  0.9264E+02  0.1128E+02
     -2.768  0.8296E+02  0.1325E+02
     -2.744  0.2848E+02  0.1392E+02
     -2.721  0.9909E+01  0.1416E+02
     -2.697  0.4352E+02  0.1519E+02
     -2.673  0.1116E+03  0.1784E+02
     -2.649  0.1167E+03  0.2061E+02
     -2.626  0.5071E+02  0.2181E+02
     -2.602  0.1861E+02  0.2225E+02
     -2.578  0.5785E+02  0.2362E+02
     -2.555  0.1433E+03  0.2702E+02
     -2.531  0.1724E+03  0.3111E+02
     -2.507  0.9674E+02  0.3341E+02
     -2.483  0.2520E+02  0.3401E+02
     -2.460  0.2341E+02  0.3456E+02
     -2.436  0.7107E+02  0.3625E+02
     -2.412  0.9405E+02  0.3848E+02
     -2.388  0.5188E+02  0.3971E+02
     -2.365  0.1574E+02  0.4009E+02
     -2.341  0.3851E+02  0.4100E+02
     -2.317  0.1223E+03  0.4390E+02
     -2.293  0.1730E+03  0.4801E+02
     -2.270  0.1213E+03  0.5088E+02
     -2.246  0.4944E+02  0.5206E+02
     -2.222  0.5921E+02  0.5346E+02
     -2.199  0.1546E+03  0.5713E+02
     -2.175  0.2303E+03  0.6260E+02
     -2.151  0.1950E+03  0.6722E+02
     -2.127  0.9308E+02  0.6943E+02
     -2.104  0.2976E+02  0.7014E+02
     -2.080  0.4582E+02  0.7123E+02
     -2.056  0.9283E+02  0.7343E+02
     -2.032  0.7836E+02  0.7529E+02
     -2.009  0.2867E+02  0.7597E+02
     -1.985  0.2622E+02  0.7659E+02
     -1.961  0.9550E+02  0.7886E+02
     -1.938  0.1832E+03  0.8320E+02
     -1.914  0.1796E+03  0.8746E+02
     -1.890  0.8979E+02  0.8960E+02
     -1.866  0.4445E+02  0.9065E+02
     -1.843  0.1079E+03  0.9321E+02
     -1.819  0.2061E+03  0.9810E+02
     -1.795  0.2250E+03  0.1034E+03
     -1.771  0.1406E+03  0.1068E+03
     -1.748  0.5063E+02  0.1080E+03
     -1.724  0.4597E+02  0.1091E+03
     -1.700  0.1214E+03  0.1119E+03
     -1.677  0.1747E+03  0.1161E+03
     -1.653  0.1223E+03  0.1190E+03
     -1.629  0.5425E+02  0.1203E+03
     -1.605  0.8763E+02  0.1224E+03
     -1.582  0.1909E+03  0.1269E+03
     -1.558  0.2318E+03  0.1324E+03
     -1.534  0.1635E+03  0.1363E+03
     -1.510  0.7107E+02  0.1380E+03
     -1.487  0.6769E+02  0.1396E+03
     -1.463  0.1630E+03  0.1434E+03
     -1.439  0.2347E+03  0.1490E+03
     -1.416  0.1878E+03  0.1535E+03
     -1.392  0.8901E+02  0.1556E+03
     -1.368  0.4987E+02  0.1568E+03
     -1.344  0.1037E+03  0.1592E+03
     -1.321  0.1606E+03  0.1630E+03
     -1.297  0.1363E+03  0.1663E+03
     -1.273  0.6830E+02  0.1679E+03
     -1.249  0.5768E+02  0.1692E+03
     -1.226  0.1119E+03  0.1719E+03
     -1.202  0.1419E+03  0.1753E+03
     -1.178  0.1237E+03  0.1782E+03
     -1.155  0.7488E+02  0.1800E+03
     -1.131  0.8938E+02  0.1821E+03
     -1.107  0.2079E+03  0.1870E+03
     -1.083  0.3106E+03  0.1944E+03
     -1.060  0.3126E+03  0.2018E+03
     -1.036  0.2287E+03  0.2072E+03
     -1.012  0.1295E+03  0.2103E+03
     -0.988  0.1404E+03  0.2137E+03
     -0.965  0.2159E+03  0.2188E+03
     -0.941  0.2109E+03  0.2238E+03
     -0.917  0.1302E+03  0.2269E+03
     -0.894  0.6808E+02  0.2285E+03
     -0.870  0.6440E+02  0.2300E+03
     -0.846  0.1143E+03  0.2327E+03
     -0.822  0.1811E+03  0.2370E+03
     -0.799  0.1686E+03  0.2410E+03
     -0.775  0.1491E+03  0.2446E+03
     -0.751  0.2071E+03  0.2495E+03
     -0.727  0.2476E+03  0.2553E+03
     -0.704  0.2235E+03  0.2607E+03
     -0.680  0.1502E+03  0.2642E+03
     -0.656  0.6608E+02  0.2658E+03
     -0.632  0.3939E+02  0.2667E+03
     -0.609  0.7289E+02  0.2684E+03
     -0.585  0.8531E+02  0.2705E+03
     -0.561  0.6471E+02  0.2720E+03
     -0.538  0.9277E+02  0.2742E+03
     -0.514  0.1952E+03  0.2788E+03
     -0.490  0.2748E+03  0.2854E+03
     -0.466  0.2922E+03  0.2923E+03
     -0.443  0.2883E+03  0.2991E+03
     -0.419  0.2500E+03  0.3051E+03
     -0.395  0.1912E+03  0.3096E+03
     -0.371  0.2026E+03  0.3144E+03
     -0.348  0.2611E+03  0.3206E+03
     -0.324  0.2696E+03  0.3270E+03
     -0.300  0.2142E+03  0.3321E+03
     -0.277  0.1448E+03  0.3355E+03
     -0.253  0.1033E+03  0.3380E+03
     -0.229  0.1153E+03  0.3407E+03
     -0.205  0.1453E+03  0.3442E+03
     -0.182  0.1675E+03  0.3481E+03
     -0.158  0.1841E+03  0.3525E+03
     -0.134  0.1741E+03  0.3566E+03
     -0.110  0.1689E+03  0.3606E+03
     -0.087  0.1697E+03  0.3647E+03
     -0.063  0.1626E+03  0.3685E+03
     -0.039  0.1930E+03  0.3731E+03
     -0.016  0.2468E+03  0.3790E+03
      0.008  0.2751E+03  0.3855E+03
      0.032  0.2626E+03  0.3917E+03
      0.056  0.2228E+03  0.3970E+03
      0.079  0.2034E+03  0.4018E+03
      0.103  0.2085E+03  0.4068E+03
      0.127  0.1969E+03  0.4115E+03
      0.151  0.1457E+03  0.4149E+03
      0.174  0.1094E+03  0.4175E+03
      0.198  0.1507E+03  0.4211E+03
      0.222  0.2101E+03  0.4261E+03
      0.245  0.2432E+03  0.4318E+03
      0.269  0.2496E+03  0.4378E+03
      0.293  0.2287E+03  0.4432E+03
      0.317  0.1982E+03  0.4479E+03
      0.340  0.1997E+03  0.4526E+03
      0.364  0.2050E+03  0.4575E+03
      0.388  0.1951E+03  0.4621E+03
      0.412  0.1938E+03  0.4667E+03
      0.435  0.2027E+03  0.4715E+03
      0.459  0.2140E+03  0.4766E+03
      0.483  0.2254E+03  0.4820E+03
      0.506  0.2390E+03  0.4876E+03
      0.530  0.2485E+03  0.4935E+03
      0.554  0.2376E+03  0.4992E+03
      0.578  0.2272E+03  0.5046E+03
      0.601  0.2405E+03  0.5103E+03
      0.625  0.2501E+03  0.5162E+03
      0.649  0.2383E+03  0.5219E+03
      0.673  0.2271E+03  0.5272E+03
      0.696  0.2410E+03  0.5330E+03
      0.720  0.2749E+03  0.5395E+03
      0.744  0.2979E+03  0.5465E+03
      0.768  0.3075E+03  0.5538E+03
      0.791  0.3023E+03  0.5610E+03
      0.815  0.2876E+03  0.5678E+03
      0.839  0.2811E+03  0.5745E+03
      0.862  0.2707E+03  0.5809E+03
      0.886  0.2581E+03  0.5871E+03
      0.910  0.2467E+03  0.5929E+03
      0.934  0.2303E+03  0.5984E+03
      0.957  0.2236E+03  0.6037E+03
      0.981  0.2091E+03  0.6086E+03
      1.005  0.1742E+03  0.6128E+03
      1.029  0.1263E+03  0.6158E+03
      1.052  0.1153E+03  0.6185E+03
      1.076  0.1476E+03  0.6220E+03
      1.100  0.1650E+03  0.6259E+03
      1.123  0.1703E+03  0.6300E+03
      1.147  0.1782E+03  0.6342E+03
      1.171  0.1922E+03  0.6388E+03
      1.195  0.2202E+03  0.6440E+03
      1.218  0.2348E+03  0.6496E+03
      1.242  0.2307E+03  0.6550E+03
      1.266  0.2344E+03  0.6606E+03
      1.290  0.2368E+03  0.6662E+03
      1.313  0.2469E+03  0.6721E+03
      1.337  0.2492E+03  0.6780E+03
      1.361  0.2474E+03  0.6839E+03
      1.384  0.2620E+03  0.6901E+03
      1.408  0.2713E+03  0.6965E+03
      1.432  0.2487E+03  0.7024E+03
      1.456  0.2211E+03  0.7077E+03
      1.479  0.2122E+03  0.7127E+03
      1.503  0.2013E+03  0.7175E+03
      1.527  0.1936E+03  0.7221E+03
      1.551  0.1918E+03  0.7266E+03
      1.574  0.1881E+03  0.7311E+03
      1.598  0.2017E+03  0.7359E+03
      1.622  0.2126E+03  0.7409E+03
      1.645  0.2081E+03  0.7458E+03
      1.669  0.2016E+03  0.7506E+03
      1.693  0.1994E+03  0.7554E+03
      1.717  0.1956E+03  0.7600E+03
      1.740  0.1848E+03  0.7644E+03
      1.764  0.1640E+03  0.7683E+03
      1.788  0.1455E+03  0.7717E+03
      1.812  0.1373E+03  0.7750E+03
      1.835  0.1455E+03  0.7784E+03
      1.859  0.1560E+03  0.7821E+03
      1.883  0.1528E+03  0.7858E+03
      1.906  0.1370E+03  0.7890E+03
      1.930  0.1267E+03  0.7920E+03
      1.954  0.1350E+03  0.7952E+03
      1.978  0.1549E+03  0.7989E+03
      2.001  0.1754E+03  0.8031E+03
      2.025  0.1907E+03  0.8076E+03
      2.049  0.2108E+03  0.8126E+03
      2.073  0.2276E+03  0.8180E+03
      2.096  0.2175E+03  0.8231E+03
      2.120  0.2125E+03  0.8282E+03
      2.144  0.2178E+03  0.8334E+03
      2.167  0.2138E+03  0.8384E+03
      2.191  0.2018E+03  0.8432E+03
      2.215  0.1960E+03  0.8479E+03
      2.239  0.2065E+03  0.8528E+03
      2.262  0.2000E+03  0.8575E+03
      2.286  0.1704E+03  0.8616E+03
      2.310  0.1445E+03  0.8650E+03
      2.334  0.1325E+03  0.8681E+03
      2.357  0.1239E+03  0.8711E+03
      2.381  0.1155E+03  0.8738E+03
      2.405  0.1146E+03  0.8765E+03
      2.429  0.1258E+03  0.8795E+03
      2.452  0.1470E+03  0.8830E+03
      2.476  0.1590E+03  0.8868E+03
      2.500  0.1579E+03  0.8905E+03
      2.523  0.1574E+03  0.8943E+03
      2.547  0.1559E+03  0.8980E+03
      2.571  0.1478E+03  0.9015E+03
      2.595  0.1410E+03  0.9048E+03
      2.618  0.1322E+03  0.9079E+03
      2.642  0.1217E+03  0.9108E+03
      2.666  0.1273E+03  0.9139E+03
      2.690  0.1438E+03  0.9173E+03
      2.713  0.1483E+03  0.9208E+03
      2.737  0.1480E+03  0.9243E+03
      2.761  0.1481E+03  0.9278E+03
      2.784  0.1472E+03  0.9313E+03
      2.808  0.1526E+03  0.9349E+03
      2.832  0.1510E+03  0.9385E+03
      2.856  0.1325E+03  0.9417E+03
      2.879  0.1135E+03  0.9443E+03
      2.903  0.9253E+02  0.9465E+03
      2.927  0.9049E+02  0.9487E+03
      2.951  0.1132E+03  0.9514E+03
      2.974  0.1249E+03  0.9543E+03
      2.998  0.1365E+03  0.9576E+03
      3.022  0.1534E+03  0.9612E+03
      3.045  0.1605E+03  0.9650E+03
      3.069  0.1575E+03  0.9688E+03
      3.093  0.1583E+03  0.9725E+03
      3.117  0.1598E+03  0.9763E+03
      3.140  0.1528E+03  0.9799E+03
      3.164  0.1365E+03  0.9832E+03
      3.188  0.1130E+03  0.9859E+03
      3.212  0.6721E+02  0.9875E+03
      3.235  0.2047E+02  0.9879E+03
      3.259  0.3013E+01  0.9880E+03
      3.283  0.6848E+01  0.9882E+03
      3.306  0.3473E+02  0.9890E+03
      3.330  0.8209E+02  0.9909E+03
      3.354  0.1128E+03  0.9936E+03
      3.378  0.1120E+03  0.9963E+03
      3.401  0.1029E+03  0.9987E+03
      3.425  0.8323E+02  0.1001E+04
      3.449  0.4281E+02  0.1002E+04
      3.473  0.1094E+02  0.1002E+04
      3.496  0.1163E+01  0.1002E+04
      3.520  0.4544E-01  0.1002E+04
      3.544  0.5991E-03  0.1002E+04
      3.567  0.2515E-05  0.1002E+04
      3.591  0.3239E-08  0.1002E+04
      3.615  0.1252E-11  0.1002E+04
      3.639  0.0000E+00  0.1002E+04
      3.662  0.0000E+00  0.1002E+04
      3.686  0.0000E+00  0.1002E+04
      3.710  0.0000E+00  0.1002E+04
      3.734  0.0000E+00  0.1002E+04
      3.757  0.0000E+00  0.1002E+04
