 running on   64 total cores
 distrk:  each k-point on   32 cores,    2 groups
 distr:  one band on   32 cores,    1 groups
 vasp.6.2.1 16May21 (build Nov 23 2021 15:40:41) complex                        
  
 POSCAR found type information on POSCAR Li
 POSCAR found :  1 types and     500 ions
 scaLAPACK will be used
 -----------------------------------------------------------------------------
|                                                                             |
|           W    W    AA    RRRRR   N    N  II  N    N   GGGG   !!!           |
|           W    W   A  A   R    R  NN   N  II  NN   N  G    G  !!!           |
|           W    W  A    A  R    R  N N  N  II  N N  N  G       !!!           |
|           W WW W  AAAAAA  RRRRR   N  N N  II  N  N N  G  GGG   !            |
|           WW  WW  A    A  R   R   N   NN  II  N   NN  G    G                |
|           W    W  A    A  R    R  N    N  II  N    N   GGGG   !!!           |
|                                                                             |
|     For optimal performance we recommend to set                             |
|       NCORE = 2 up to number-of-cores-per-socket                            |
|     NCORE specifies how many cores store one orbital (NPAR=cpu/NCORE).      |
|     This setting can greatly improve the performance of VASP for DFT.       |
|     The default, NCORE=1 might be grossly inefficient on modern             |
|     multi-core architectures or massively parallel machines. Do your        |
|     own testing! More info at https://www.vasp.at/wiki/index.php/NCORE      |
|     Unfortunately you need to use the default for GW and RPA                |
|     calculations (for HF NCORE is supported but not extensively tested      |
|     yet).                                                                   |
|                                                                             |
 -----------------------------------------------------------------------------

 -----------------------------------------------------------------------------
|                                                                             |
|               ----> ADVICE to this user running VASP <----                  |
|                                                                             |
|     You have a (more or less) 'large supercell' and for larger cells it     |
|     might be more efficient to use real-space projection operators.         |
|     Therefore, try LREAL= Auto in the INCAR file.                           |
|     Mind: If you want to do very accurate calculations, keep the            |
|     reciprocal projection scheme (i.e. LREAL=.FALSE.).                      |
|                                                                             |
 -----------------------------------------------------------------------------

 LDA part: xc-table for Pade appr. of Perdew
 POSCAR found type information on POSCAR Li
 POSCAR found :  1 types and     500 ions
 POSCAR, INCAR and KPOINTS ok, starting setup
 FFT: planning ...
 WAVECAR not read
 entering main loop
       N       E                     dE             d eps       ncg     rms          rms(c)
DAV:   1    -0.261865031386E+03   -0.26187E+03   -0.12344E+05  4008   0.662E+02
DAV:   2    -0.876553745515E+03   -0.61469E+03   -0.56279E+03  4604   0.689E+01
DAV:   3    -0.919752795213E+03   -0.43199E+02   -0.39339E+02  5168   0.144E+01
DAV:   4    -0.921188580323E+03   -0.14358E+01   -0.14136E+01  4672   0.287E+00
DAV:   5    -0.921222103351E+03   -0.33523E-01   -0.33461E-01  4832   0.460E-01    0.919E+00
DAV:   6    -0.920684322557E+03    0.53778E+00   -0.11022E+01  4664   0.486E+00    0.844E+00
DAV:   7    -0.911508864419E+03    0.91755E+01   -0.10028E+01  4776   0.456E+00    0.478E+00
DAV:   8    -0.909160993743E+03    0.23479E+01   -0.45633E+00  4568   0.225E+00    0.262E+00
DAV:   9    -0.908662351322E+03    0.49864E+00   -0.24241E+00  4408   0.128E+00    0.139E+00
DAV:  10    -0.908765182198E+03   -0.10283E+00   -0.59221E-01  4808   0.825E-01    0.135E+00
DAV:  11    -0.908561697007E+03    0.20349E+00   -0.28516E-01  4632   0.587E-01    0.622E-01
DAV:  12    -0.908550417437E+03    0.11280E-01   -0.77625E-02  4496   0.243E-01    0.336E-01
DAV:  13    -0.908551165959E+03   -0.74852E-03   -0.25999E-02  4672   0.184E-01    0.277E-01
DAV:  14    -0.908544666589E+03    0.64994E-02   -0.93872E-03  4600   0.120E-01    0.140E-01
DAV:  15    -0.908543537678E+03    0.11289E-02   -0.29596E-03  4520   0.587E-02    0.649E-02
DAV:  16    -0.908543906628E+03   -0.36895E-03   -0.11566E-03  4768   0.421E-02    0.663E-02
DAV:  17    -0.908543311217E+03    0.59541E-03   -0.69521E-04  4640   0.307E-02    0.203E-02
DAV:  18    -0.908543308591E+03    0.26254E-05   -0.20285E-04  4576   0.133E-02    0.158E-02
DAV:  19    -0.908543284896E+03    0.23695E-04   -0.74936E-05  4600   0.922E-03    0.988E-03
DAV:  20    -0.908543270704E+03    0.14192E-04   -0.16462E-05  3008   0.474E-03    0.512E-03
DAV:  21    -0.908543264770E+03    0.59342E-05   -0.81191E-06  2160   0.288E-03
   1 F= -.90854326E+03 E0= -.90849217E+03  d E =-.102191E+00
