Li                                      
           1
    21.217000    0.000000    0.000000
     0.000000   21.217000    0.000000
    -0.000000   -0.000000   21.217000
   Li
   500
Direct configuration=     1
   0.97480909  0.99226935  0.01535369
   0.98965855  0.09747773  0.12667063
   0.00032605  0.19516134  0.19379854
   0.00901007  0.31147130  0.28536973
   0.00829440  0.40743769  0.38305423
   0.98250959  0.48995068  0.50999906
   0.98066169  0.58142948  0.59910016
   0.98166778  0.71194496  0.69784910
   0.00242756  0.81249995  0.80502587
   0.99375114  0.91105701  0.91131929
   0.09782424  0.99863786  0.08188536
   0.11210658  0.11585892  0.19374036
   0.10298155  0.20093143  0.29686918
   0.09731035  0.30421316  0.39270977
   0.09730690  0.41044429  0.49117928
   0.11171565  0.52074210  0.58831081
   0.08000465  0.60660890  0.71428101
   0.09030445  0.68770737  0.80618603
   0.10236121  0.79953253  0.91872010
   0.09340915  0.91005503  0.01045181
   0.20736740  0.00553872  0.18942812
   0.20982071  0.10245180  0.30722010
   0.20232853  0.21126786  0.38596335
   0.19673246  0.30723358  0.49931596
   0.19303171  0.41408240  0.59782611
   0.20109582  0.51057150  0.70109588
   0.20209163  0.61561322  0.80452965
   0.20227230  0.70711023  0.91086360
   0.19877468  0.80777767  0.01442897
   0.20900556  0.89816249  0.10159226
   0.29520913  0.00289652  0.28808841
   0.29562957  0.09540454  0.40336677
   0.30183490  0.20929535  0.49209340
   0.31270111  0.29899873  0.56382535
   0.28701889  0.39942120  0.69101501
   0.28493440  0.49409264  0.79005687
   0.31460813  0.60211328  0.90428559
   0.30440260  0.70754944  0.99702843
   0.30385093  0.79345827  0.11554381
   0.28871035  0.91782652  0.20517834
   0.39975725  0.00060656  0.39643516
   0.39402317  0.10296014  0.51264344
   0.40474812  0.18885326  0.59110387
   0.38786600  0.30201603  0.69913492
   0.38139655  0.39887942  0.80274041
   0.38111233  0.48137309  0.90723969
   0.41840692  0.60352896  0.01583277
   0.39095211  0.70792316  0.09064686
   0.40560729  0.78247897  0.20562220
   0.38002331  0.90325433  0.28883355
   0.49757924  0.00129874  0.48683323
   0.49708080  0.09602831  0.60723065
   0.48875290  0.18792320  0.71846179
   0.49942739  0.30279711  0.78770038
   0.49056410  0.38907870  0.90553522
   0.49890223  0.48897513  0.97914511
   0.50781071  0.57734041  0.09942739
   0.49434054  0.67699407  0.20013274
   0.49748904  0.79788304  0.28727853
   0.47116800  0.89454474  0.38440683
   0.60414402  0.00081300  0.60618562
   0.59561949  0.10640288  0.70232244
   0.61092877  0.18999829  0.77445288
   0.59954237  0.27901569  0.89997603
   0.59870602  0.38726375  0.98261126
   0.59177088  0.47733957  0.09878123
   0.60242375  0.57370547  0.19675243
   0.61323259  0.67770647  0.28114398
   0.58278335  0.79360794  0.37951500
   0.57880875  0.90080087  0.47181139
   0.69084538  0.01466293  0.68644437
   0.72234589  0.10288405  0.78767149
   0.71914535  0.20724903  0.89169195
   0.71353953  0.28616024  0.00542560
   0.70145822  0.40321473  0.09563837
   0.70574179  0.49289025  0.20035158
   0.71882612  0.59461453  0.31343215
   0.71049179  0.69424729  0.39846896
   0.68072955  0.79766239  0.48707984
   0.69736140  0.91357135  0.58580816
   0.81870766  0.99968736  0.80951223
   0.79585677  0.09273379  0.91270536
   0.79853213  0.20934612  0.00782727
   0.80183072  0.30711493  0.11797695
   0.80353668  0.39181906  0.20473603
   0.81327328  0.49167717  0.30792841
   0.81528581  0.60326514  0.40557293
   0.79080372  0.69837053  0.51690447
   0.77728899  0.81077921  0.58313478
   0.79750641  0.93267955  0.68109291
   0.87895715  0.98061408  0.90244484
   0.89305628  0.09376882  0.00315723
   0.89541914  0.20694509  0.10677705
   0.93081219  0.30017715  0.18872076
   0.91043699  0.39133126  0.30339768
   0.90291760  0.49330282  0.39778970
   0.88218033  0.60950060  0.51267377
   0.89063585  0.70849158  0.61135924
   0.88761440  0.80186343  0.69600362
   0.90390999  0.89696111  0.79922744
   0.08869909  0.08665584  0.00820204
   0.07962302  0.19865471  0.08248870
   0.11350902  0.27750602  0.18733311
   0.10516641  0.41149622  0.28146829
   0.11096758  0.51037840  0.40213193
   0.09462771  0.60849940  0.49999339
   0.09936922  0.70878779  0.58673269
   0.09232279  0.80847471  0.71217850
   0.11116971  0.91470808  0.82166139
   0.09954591  0.99740291  0.91147019
   0.20498927  0.11645750  0.10439808
   0.19346723  0.19992742  0.19818158
   0.19564985  0.31285558  0.28996728
   0.19627050  0.40526869  0.40536874
   0.21225375  0.51268419  0.48702171
   0.21090328  0.60464912  0.60540042
   0.19314598  0.71180956  0.69667550
   0.18084963  0.81505955  0.82330194
   0.19793111  0.90404674  0.91908104
   0.20024010  0.99690268  0.00516326
   0.30834560  0.09931507  0.20368579
   0.29738541  0.20670492  0.29484806
   0.30043117  0.32217096  0.39749131
   0.29461135  0.42655153  0.51684700
   0.29877946  0.52358041  0.62294074
   0.30986302  0.62742137  0.68365102
   0.31833440  0.70612952  0.79006090
   0.29544557  0.80780583  0.89980087
   0.31345654  0.89284717  0.00502272
   0.30593268  0.01018945  0.10624134
   0.39744092  0.11915217  0.28388544
   0.40660033  0.19668658  0.40191731
   0.41194750  0.31714985  0.50383408
   0.39803614  0.41941783  0.62056404
   0.42121078  0.50483366  0.70929072
   0.38516883  0.61372643  0.80886551
   0.40668220  0.69681754  0.92167985
   0.40668601  0.79903255  0.00668361
   0.38589944  0.90872018  0.09237921
   0.40306301  0.99953075  0.20625852
   0.49450766  0.10522585  0.37488457
   0.49349198  0.20672069  0.49232778
   0.48571270  0.29919526  0.61687906
   0.49292972  0.39867798  0.71914200
   0.49096018  0.49474559  0.79835249
   0.49190342  0.59112507  0.87993494
   0.50201218  0.69805190  0.99207995
   0.49268838  0.80115391  0.08341564
   0.48953042  0.87542005  0.19722597
   0.48441120  0.98449140  0.28604644
   0.59561307  0.11513348  0.49093974
   0.59004014  0.22350127  0.60741425
   0.59734602  0.30319679  0.67453516
   0.61857682  0.39747898  0.80602699
   0.60370452  0.48903869  0.87886991
   0.60305743  0.59250568  0.98832092
   0.56792485  0.67790642  0.08900801
   0.59094103  0.78019365  0.18815201
   0.60516699  0.88586929  0.28494421
   0.57102016  0.01171750  0.37195950
   0.67030784  0.11021564  0.60042048
   0.69688492  0.20423119  0.70709119
   0.68872263  0.29607366  0.79732483
   0.69668735  0.39405954  0.89620929
   0.68448858  0.49439657  0.98181539
   0.70406362  0.56538603  0.08483311
   0.69331859  0.67218975  0.16396938
   0.70243841  0.78083381  0.28928847
   0.68463385  0.89884331  0.38640013
   0.67988325  0.99458654  0.46848614
   0.81880094  0.08996363  0.67677622
   0.81670978  0.20340487  0.79784738
   0.81757854  0.30796951  0.89997013
   0.80019162  0.38973347  0.99138279
   0.80801733  0.48770178  0.11153642
   0.80086412  0.59250394  0.22567023
   0.80964864  0.68458349  0.29702858
   0.80429957  0.79495222  0.42613365
   0.78506764  0.90415200  0.48036354
   0.78483461  0.02081970  0.54685486
   0.89367080  0.10662197  0.81414192
   0.89467254  0.19928089  0.91619101
   0.88765450  0.30955223  0.01635192
   0.90431508  0.40712611  0.11410037
   0.89949017  0.48708043  0.20735834
   0.90316320  0.59802713  0.31899936
   0.90519341  0.72978144  0.41729847
   0.90454675  0.81625323  0.52067144
   0.88135055  0.91265477  0.61515415
   0.90993293  0.00184402  0.68640229
   0.99044222  0.09374962  0.90109931
   0.98729244  0.19149353  0.00823391
   0.01297781  0.32525418  0.08256139
   0.00157445  0.40514631  0.20471035
   0.99811371  0.49530808  0.30300928
   0.98732643  0.59663959  0.41208971
   0.99592644  0.71375143  0.51165791
   0.98724688  0.82500611  0.61228154
   0.99574994  0.90221597  0.71219694
   0.97891859  0.01245998  0.80106756
   0.19988659  0.16632821  0.99135925
   0.20633755  0.28073553  0.07703175
   0.19442069  0.40625406  0.19534751
   0.19960722  0.52257727  0.30283274
   0.21667219  0.62696433  0.38318850
   0.20839319  0.70145887  0.50838688
   0.18768131  0.79806364  0.60281475
   0.20753344  0.90195512  0.70970292
   0.21078164  0.99153047  0.78431880
   0.19616433  0.10389898  0.90415447
   0.30633703  0.19799474  0.07542747
   0.30563406  0.28869100  0.17627249
   0.30489186  0.39404178  0.29102171
   0.31229900  0.49773411  0.37891255
   0.31965375  0.61835061  0.51193565
   0.30824733  0.71888350  0.59499262
   0.29932013  0.80643402  0.72698769
   0.30803968  0.92169751  0.80882446
   0.29636231  0.98691167  0.90663790
   0.31160648  0.09039568  0.98337221
   0.41941029  0.20720366  0.15841624
   0.40128563  0.29262830  0.27132078
   0.40708637  0.39245025  0.39527287
   0.39851936  0.50387280  0.50968336
   0.40253746  0.62505455  0.61443816
   0.41497284  0.72503187  0.71647117
   0.40100914  0.80257802  0.81042749
   0.39793406  0.90394205  0.93103978
   0.39375718  0.99794256  0.99639906
   0.41931594  0.11273528  0.08759043
   0.50494786  0.20134867  0.27328031
   0.49831797  0.30751241  0.38184501
   0.48096244  0.39164170  0.51873486
   0.49515969  0.51036144  0.61786592
   0.50503899  0.61616208  0.72131350
   0.49557694  0.69776752  0.82909464
   0.49837985  0.79359724  0.89684022
   0.51389754  0.89371683  0.00077888
   0.50618514  0.99242064  0.10253909
   0.49016499  0.10124098  0.17800721
   0.57549031  0.19681185  0.39397374
   0.56010157  0.31417641  0.50469532
   0.60293521  0.40737972  0.59084161
   0.60865569  0.49279718  0.71971485
   0.59999083  0.59490671  0.80270887
   0.61755427  0.71968049  0.90464277
   0.61687666  0.79432801  0.99241728
   0.58961060  0.88172967  0.10809241
   0.60384105  0.98752133  0.19654001
   0.60320091  0.09423538  0.28101790
   0.67935680  0.22669410  0.51176372
   0.70815573  0.30251771  0.58663121
   0.71660569  0.40357861  0.69661152
   0.71484945  0.49772489  0.80698596
   0.70354332  0.61736580  0.88620184
   0.68982095  0.69772091  0.00154957
   0.69806624  0.78385257  0.10432259
   0.69165730  0.88520395  0.19987307
   0.70717559  0.99200110  0.30320498
   0.68011666  0.09599253  0.39484216
   0.79449346  0.19597307  0.59522368
   0.79036596  0.29378683  0.69845144
   0.81279141  0.38039944  0.80111604
   0.80209449  0.48000502  0.88586182
   0.79533351  0.57372330  0.99675616
   0.81695534  0.67223647  0.09046690
   0.79387823  0.78632414  0.19923105
   0.80860485  0.89002389  0.31077242
   0.80946271  0.99480693  0.38767930
   0.80535484  0.12497586  0.48075500
   0.89857498  0.20421533  0.70358588
   0.91255316  0.29851530  0.79708489
   0.92293693  0.41219368  0.90382241
   0.90335528  0.50810012  0.98781258
   0.89320575  0.59334587  0.09768233
   0.90412738  0.71395507  0.20848137
   0.91214779  0.79979762  0.31533224
   0.90762333  0.90293798  0.39311841
   0.90700986  0.00390273  0.49972248
   0.90695604  0.09932801  0.59235035
   0.00370432  0.18879105  0.80801770
   0.00003472  0.27317300  0.91243962
   0.00613464  0.40552806  0.98988035
   0.00911623  0.50829595  0.07804763
   0.98789782  0.59270416  0.19797783
   0.00018200  0.69053657  0.29886825
   0.01130758  0.79666189  0.42381520
   0.00089975  0.90753952  0.51639190
   0.00850899  0.98590449  0.61179330
   0.00283878  0.11107739  0.70820861
   0.11001746  0.19133683  0.91466001
   0.08310245  0.28884804  0.97592389
   0.09046741  0.37528380  0.10030774
   0.09059616  0.51180892  0.18878043
   0.08480522  0.60456821  0.29231687
   0.08302702  0.69348006  0.40389051
   0.10564029  0.79973203  0.50681928
   0.09269331  0.89357309  0.60427634
   0.07829285  0.99067515  0.70066223
   0.10567306  0.06898277  0.79592675
   0.31927754  0.29618344  0.00586392
   0.31099543  0.39923571  0.08995628
   0.28383422  0.48339454  0.18612947
   0.29994167  0.60835009  0.26771246
   0.30646745  0.70830154  0.39797123
   0.29699849  0.79898418  0.49461970
   0.30590279  0.88511055  0.61085471
   0.30126734  0.01228817  0.68694218
   0.29358077  0.10404691  0.83217651
   0.28799783  0.19666200  0.92173984
   0.40122342  0.29601463  0.08636006
   0.40450013  0.40790729  0.18665607
   0.37473872  0.50546693  0.28740187
   0.38331284  0.60976173  0.40185455
   0.39875369  0.70091995  0.49695140
   0.40443723  0.81916440  0.62140713
   0.40038823  0.90825064  0.72514206
   0.39136211  0.01972433  0.81458065
   0.39630858  0.08810153  0.90722465
   0.41681519  0.19781351  0.99944290
   0.49300365  0.30328511  0.17752125
   0.49422744  0.40234952  0.30094345
   0.49517334  0.48226212  0.40375466
   0.50306251  0.59872836  0.50823852
   0.51437644  0.69276770  0.58889399
   0.50211881  0.80796010  0.70053300
   0.48998046  0.91353315  0.80855310
   0.52253915  0.98387971  0.89791041
   0.52490907  0.09702581  0.99893876
   0.52616707  0.19658104  0.08228009
   0.58160163  0.30039745  0.29829454
   0.59530631  0.41723310  0.41582325
   0.60234288  0.49261822  0.51538998
   0.60380727  0.60404589  0.60851857
   0.58770723  0.72957998  0.71483053
   0.60599072  0.81230332  0.80522865
   0.60583195  0.90035491  0.89602259
   0.63675683  0.00602098  0.03164027
   0.61623342  0.09121029  0.13055439
   0.60553260  0.20447860  0.19001532
   0.69383552  0.31338597  0.41127063
   0.69727363  0.39361500  0.50394876
   0.71663185  0.50002150  0.61858689
   0.68462390  0.59950571  0.72757827
   0.70642235  0.72368200  0.78011714
   0.71146474  0.79776312  0.90283607
   0.69445054  0.88725927  0.00560482
   0.72264124  0.99516067  0.12085403
   0.72434983  0.09551108  0.22743438
   0.69976686  0.22401985  0.30216776
   0.80334643  0.30595243  0.49390844
   0.82010853  0.38010288  0.58862553
   0.80722917  0.49067628  0.70963217
   0.78676867  0.60143213  0.79491178
   0.78742214  0.71688156  0.88800244
   0.78615671  0.78402558  0.02967721
   0.78529340  0.88321440  0.09641721
   0.82116094  0.97435931  0.21873010
   0.80770333  0.09781133  0.31050647
   0.81229122  0.20615313  0.39698333
   0.88308535  0.28800422  0.61180818
   0.90097083  0.39210301  0.70092275
   0.90203255  0.50877598  0.80095981
   0.88659120  0.62544476  0.87494436
   0.89220220  0.69488643  0.97910748
   0.89681306  0.79115178  0.09470621
   0.90386865  0.89906928  0.21129025
   0.90033273  0.00075053  0.30025241
   0.91764650  0.10624026  0.40783540
   0.92217231  0.21966669  0.49078156
   0.01461618  0.28361944  0.69147621
   0.01364452  0.38468277  0.81648871
   0.99164694  0.51456584  0.88956032
   0.97731988  0.60404205  0.99235384
   0.99221819  0.68977759  0.08940416
   0.00022827  0.79578831  0.19769039
   0.99553014  0.89119108  0.31815436
   0.02307912  0.01324648  0.39607540
   0.00569295  0.10519936  0.48367018
   0.99502367  0.20139861  0.59614950
   0.08866889  0.29815224  0.79354906
   0.08786037  0.38770982  0.91519333
   0.10377541  0.48900948  0.98669087
   0.10451615  0.59158863  0.08356047
   0.06567890  0.69307197  0.20512392
   0.09784653  0.79856505  0.29065590
   0.11491125  0.90163800  0.40437785
   0.09025278  0.01810960  0.51317302
   0.09629754  0.08744457  0.59957469
   0.12908235  0.18529063  0.71371942
   0.19893508  0.29059332  0.89429361
   0.18840731  0.38889839  0.01686505
   0.20627635  0.49294465  0.09347339
   0.19938784  0.60850389  0.18600797
   0.18212651  0.69904080  0.30112031
   0.18661509  0.80031986  0.40123480
   0.19339425  0.89518582  0.51555554
   0.20723292  0.98835601  0.60441176
   0.21552560  0.07836916  0.70250310
   0.18065639  0.19084079  0.77869371
   0.39675192  0.37605341  0.99185705
   0.39722166  0.48537417  0.08754012
   0.39069146  0.58050458  0.17996212
   0.40207191  0.69390571  0.29112877
   0.40324384  0.80557487  0.38237000
   0.38885580  0.88848873  0.50283631
   0.40913313  0.99147759  0.60506881
   0.39461501  0.09961672  0.70037305
   0.39401575  0.19395911  0.80461522
   0.39015509  0.29946469  0.89498608
   0.49149563  0.39139509  0.08731496
   0.49178592  0.49158825  0.20542985
   0.49410530  0.59543495  0.29396850
   0.51010181  0.68116275  0.40051229
   0.50178501  0.78521593  0.48971908
   0.52634058  0.90428940  0.59229002
   0.50577807  0.99751380  0.70769279
   0.48233576  0.08854443  0.79543257
   0.49975983  0.17663838  0.88511098
   0.51000291  0.28487107  0.99868370
   0.60796164  0.39992721  0.20113558
   0.61663710  0.49487571  0.29684336
   0.61050398  0.58767081  0.40062143
   0.61934340  0.70570909  0.49376992
   0.60831826  0.81748777  0.60735460
   0.60327461  0.91252681  0.71394569
   0.60828544  0.01026378  0.79513237
   0.61284505  0.07843372  0.90414033
   0.61661846  0.18025800  0.98837897
   0.61465419  0.30106942  0.09108798
   0.69905302  0.39938919  0.31608153
   0.70649753  0.48785190  0.40273553
   0.70172487  0.58959907  0.51096806
   0.69089407  0.69751690  0.60125315
   0.71378967  0.83726680  0.70412268
   0.69851914  0.90855947  0.81512188
   0.70245347  0.01485754  0.89984056
   0.71008076  0.10436274  0.02357376
   0.72521778  0.19387605  0.09688532
   0.70235633  0.30500486  0.20534984
   0.80218896  0.40148396  0.41062098
   0.80385657  0.50408558  0.51788838
   0.79322957  0.61699316  0.63003564
   0.80561349  0.71308894  0.69703050
   0.79362583  0.84026501  0.79029891
   0.79681116  0.89844291  0.92379562
   0.78829164  0.98758407  0.00601551
   0.80765451  0.09460631  0.12009279
   0.81142693  0.20617819  0.22442553
   0.81768786  0.30751238  0.30945779
   0.89823959  0.40501788  0.49949551
   0.88652997  0.51902626  0.61122249
   0.89571473  0.62030049  0.70374630
   0.87593927  0.72789994  0.80464757
   0.88468583  0.80556988  0.90265186
   0.88529900  0.88982532  0.00517222
   0.88614574  0.99524887  0.10435670
   0.89800034  0.11139187  0.21733286
   0.92295965  0.20119436  0.31636382
   0.91167902  0.30078482  0.39965073
   0.99459404  0.39055732  0.61194619
   0.98953344  0.48859596  0.71430329
   0.99772911  0.61329316  0.80069835
   0.98478107  0.71131394  0.89594132
   0.99759323  0.80721737  0.00827614
   0.99190581  0.89987165  0.09989150
   0.00616192  0.00027580  0.21462726
   0.01560548  0.11041198  0.30149246
   0.01002691  0.20791301  0.39781127
   0.99487471  0.32167343  0.50271605
   0.09764444  0.39978040  0.68296991
   0.09508528  0.49389596  0.81758362
   0.08697700  0.60986829  0.89144778
   0.10432422  0.69890353  0.00644864
   0.09020486  0.81944094  0.11614997
   0.09076407  0.91260927  0.20929644
   0.10581000  0.00630058  0.28183979
   0.11991474  0.12326296  0.41951371
   0.12439622  0.21230883  0.49699415
   0.10347306  0.29588439  0.58842861
   0.19011306  0.37828302  0.78284115
   0.19603218  0.47514126  0.89403605
   0.21466863  0.59555323  0.98863611
   0.19399532  0.69910489  0.10441976
   0.19637118  0.78453166  0.21904416
   0.20542692  0.89795372  0.30794220
   0.19864176  0.01763485  0.40913734
   0.22038549  0.10445102  0.49940189
   0.21835782  0.18996738  0.58838180
   0.18850260  0.29893422  0.66868657
   0.28713050  0.37614191  0.90259453
   0.29474515  0.49808841  0.99513094
   0.30481350  0.59273732  0.08853257
   0.30042492  0.68734883  0.20351232
   0.30088975  0.80838476  0.28675152
   0.28928683  0.89150607  0.40974641
   0.32494291  0.99104272  0.50669089
   0.30675138  0.09267425  0.60039028
   0.29886390  0.18987327  0.68816992
   0.27438829  0.28126360  0.79102227
