 running on   64 total cores
 distrk:  each k-point on   32 cores,    2 groups
 distr:  one band on   32 cores,    1 groups
 vasp.6.2.1 16May21 (build Nov 23 2021 15:40:41) complex                        
  
 POSCAR found type information on POSCAR Li
 POSCAR found :  1 types and     504 ions
 scaLAPACK will be used
 -----------------------------------------------------------------------------
|                                                                             |
|           W    W    AA    RRRRR   N    N  II  N    N   GGGG   !!!           |
|           W    W   A  A   R    R  NN   N  II  NN   N  G    G  !!!           |
|           W    W  A    A  R    R  N N  N  II  N N  N  G       !!!           |
|           W WW W  AAAAAA  RRRRR   N  N N  II  N  N N  G  GGG   !            |
|           WW  WW  A    A  R   R   N   NN  II  N   NN  G    G                |
|           W    W  A    A  R    R  N    N  II  N    N   GGGG   !!!           |
|                                                                             |
|     For optimal performance we recommend to set                             |
|       NCORE = 2 up to number-of-cores-per-socket                            |
|     NCORE specifies how many cores store one orbital (NPAR=cpu/NCORE).      |
|     This setting can greatly improve the performance of VASP for DFT.       |
|     The default, NCORE=1 might be grossly inefficient on modern             |
|     multi-core architectures or massively parallel machines. Do your        |
|     own testing! More info at https://www.vasp.at/wiki/index.php/NCORE      |
|     Unfortunately you need to use the default for GW and RPA                |
|     calculations (for HF NCORE is supported but not extensively tested      |
|     yet).                                                                   |
|                                                                             |
 -----------------------------------------------------------------------------

 -----------------------------------------------------------------------------
|                                                                             |
|               ----> ADVICE to this user running VASP <----                  |
|                                                                             |
|     You have a (more or less) 'large supercell' and for larger cells it     |
|     might be more efficient to use real-space projection operators.         |
|     Therefore, try LREAL= Auto in the INCAR file.                           |
|     Mind: If you want to do very accurate calculations, keep the            |
|     reciprocal projection scheme (i.e. LREAL=.FALSE.).                      |
|                                                                             |
 -----------------------------------------------------------------------------

 LDA part: xc-table for Pade appr. of Perdew
 POSCAR found type information on POSCAR Li
 POSCAR found :  1 types and     504 ions
 POSCAR, INCAR and KPOINTS ok, starting setup
 FFT: planning ...
 WAVECAR not read
 entering main loop
       N       E                     dE             d eps       ncg     rms          rms(c)
DAV:   1    -0.308813664695E+03   -0.30881E+03   -0.11900E+05  4040   0.647E+02
DAV:   2    -0.882748775436E+03   -0.57394E+03   -0.52520E+03  4628   0.646E+01
DAV:   3    -0.924705392163E+03   -0.41957E+02   -0.38425E+02  5208   0.138E+01
DAV:   4    -0.926194381248E+03   -0.14890E+01   -0.14650E+01  4752   0.283E+00
DAV:   5    -0.926229773460E+03   -0.35392E-01   -0.35323E-01  4896   0.461E-01    0.939E+00
DAV:   6    -0.917625297255E+03    0.86045E+01   -0.11310E+01  4632   0.373E+00    0.606E+00
DAV:   7    -0.917178415980E+03    0.44688E+00   -0.85770E+00  4744   0.402E+00    0.549E+00
DAV:   8    -0.912951377023E+03    0.42270E+01   -0.49603E+00  4672   0.264E+00    0.273E+00
DAV:   9    -0.912704053713E+03    0.24732E+00   -0.27059E+00  4672   0.159E+00    0.202E+00
DAV:  10    -0.912336941812E+03    0.36711E+00   -0.13949E+00  4640   0.114E+00    0.119E+00
DAV:  11    -0.912248760378E+03    0.88181E-01   -0.44732E-01  4448   0.561E-01    0.652E-01
DAV:  12    -0.912264086615E+03   -0.15326E-01   -0.10196E-01  4752   0.333E-01    0.569E-01
DAV:  13    -0.912234347816E+03    0.29739E-01   -0.56668E-02  4768   0.263E-01    0.330E-01
DAV:  14    -0.912231221888E+03    0.31259E-02   -0.17315E-02  4664   0.146E-01    0.208E-01
DAV:  15    -0.912229237274E+03    0.19846E-02   -0.91244E-03  4688   0.115E-01    0.142E-01
DAV:  16    -0.912227173131E+03    0.20641E-02   -0.39003E-03  4624   0.682E-02    0.642E-02
DAV:  17    -0.912227105861E+03    0.67270E-04   -0.13228E-03  4440   0.328E-02    0.375E-02
DAV:  18    -0.912227046863E+03    0.58998E-04   -0.40993E-04  4744   0.216E-02    0.278E-02
DAV:  19    -0.912226975264E+03    0.71599E-04   -0.13616E-04  4576   0.132E-02    0.158E-02
DAV:  20    -0.912226947741E+03    0.27523E-04   -0.63271E-05  4488   0.750E-03    0.624E-03
DAV:  21    -0.912226948334E+03   -0.59210E-06   -0.16854E-05  2768   0.422E-03
   1 F= -.91222695E+03 E0= -.91216140E+03  d E =-.131095E+00
