Li                                      
           1
   -11.070570   19.174790    0.000000
   -18.978120  -10.957023    0.000000
     0.000000    0.000000   23.220300
   Li
   504
Direct configuration=     1
   0.98964248  0.00053386  0.98442615
   0.93663238  0.06096665  0.64946096
   0.83801089  0.07472128  0.34278384
   0.78552234  0.13004429  0.00191979
   0.73242308  0.15718724  0.65444223
   0.63873437  0.22540223  0.32473001
   0.58644109  0.25354200  0.00383635
   0.50386959  0.29543078  0.66517294
   0.40797648  0.34073367  0.32668539
   0.35566009  0.38650015  0.98997574
   0.28364870  0.40368238  0.66787135
   0.19490135  0.45756994  0.31425049
   0.04797571  0.05812565  0.66808212
   0.97579259  0.06892548  0.34285473
   0.93784238  0.16599385  0.00416344
   0.85365962  0.17358898  0.68498698
   0.77756401  0.21066024  0.30975124
   0.71897139  0.24824418  0.99876193
   0.65813538  0.29887257  0.65904751
   0.57464649  0.31422199  0.32511111
   0.51678766  0.38453571  0.98823602
   0.41744302  0.41230844  0.67746776
   0.35452298  0.44390952  0.33099716
   0.29637851  0.50085207  0.98052378
   0.13450014  0.09357044  0.32698696
   0.06183150  0.12167717  0.99845439
   0.02161102  0.19336922  0.66575038
   0.92025177  0.22497323  0.33311815
   0.84953160  0.26549007  0.00283703
   0.80735137  0.31147043  0.65690942
   0.71460809  0.33502971  0.33254876
   0.66476051  0.38121884  0.97591263
   0.56366861  0.40118151  0.66110178
   0.50725506  0.45260833  0.32196710
   0.46414045  0.50848527  0.99462763
   0.36173229  0.52734401  0.66876548
   0.21560424  0.12295557  0.02883750
   0.15717231  0.15592807  0.66558770
   0.05873278  0.19567254  0.33563807
   0.02444618  0.25948865  0.01422393
   0.94002868  0.30351234  0.66284591
   0.84772808  0.33082947  0.33387332
   0.81277875  0.38697101  0.00411910
   0.72328644  0.42458262  0.65205034
   0.64444306  0.43643280  0.32517752
   0.59346019  0.49357845  0.99563859
   0.52570408  0.52395582  0.66896215
   0.43530281  0.56587884  0.33534796
   0.29165403  0.16461886  0.65892182
   0.21341575  0.22527650  0.32766898
   0.14649164  0.23951288  0.98717526
   0.10803976  0.30690395  0.66135878
   0.98660687  0.32245729  0.35328370
   0.93598265  0.38226598  0.00526299
   0.87253268  0.42806767  0.68414766
   0.75686025  0.45757678  0.32653318
   0.72827598  0.51119696  0.00788594
   0.66331321  0.53445148  0.66233127
   0.55560463  0.57098884  0.31943718
   0.50705659  0.61289041  0.99051600
   0.33576955  0.18746563  0.33609770
   0.28500117  0.23333816  0.99567690
   0.22020718  0.27467388  0.68176540
   0.15868599  0.33879575  0.34027560
   0.08269409  0.36525957  0.99984157
   0.03374628  0.41184608  0.63823942
   0.91738047  0.45856715  0.33778512
   0.87798040  0.52381464  0.99614248
   0.79804847  0.55194725  0.68539876
   0.70896191  0.57964917  0.33664673
   0.64833587  0.61837375  0.99518211
   0.57046493  0.65889733  0.66052564
   0.43283536  0.24697314  0.97980397
   0.35240859  0.28897006  0.66419486
   0.27668445  0.35672160  0.34021345
   0.21288814  0.37615812  0.99798205
   0.16231260  0.40904815  0.67118640
   0.05721430  0.44284526  0.32349227
   0.01183216  0.51797880  0.00654704
   0.92427663  0.53698120  0.65746705
   0.83937915  0.55913816  0.31378160
   0.79913518  0.64732262  0.98963628
   0.70854566  0.67936420  0.65824050
   0.63360955  0.69925127  0.32464001
   0.14751707  0.50181203  0.97499239
   0.07338326  0.53737732  0.67698421
   0.98179965  0.56252458  0.33533357
   0.92480606  0.65912587  0.99542630
   0.84505282  0.67802015  0.66652316
   0.78065147  0.69574526  0.31292322
   0.71390845  0.76010841  0.00638722
   0.22526276  0.54237282  0.66394066
   0.13007127  0.57574901  0.35000059
   0.06551547  0.64462222  0.99409998
   0.00542421  0.66243100  0.65641507
   0.92812985  0.70974191  0.34531819
   0.84101039  0.77001317  0.00168668
   0.76774652  0.79347714  0.66974450
   0.28627599  0.56764616  0.34147572
   0.23829166  0.61565263  0.98854730
   0.15217956  0.67042959  0.65428124
   0.07176189  0.73019309  0.35145506
   0.00118526  0.76826282  0.01961896
   0.90685401  0.79701863  0.67504094
   0.84530142  0.82527655  0.35291313
   0.37626931  0.62062858  0.98814698
   0.29600724  0.65709587  0.68453657
   0.21407184  0.70040454  0.31681917
   0.13459860  0.77719414  0.01955039
   0.06522428  0.80059795  0.67655558
   0.99530383  0.83433572  0.35894315
   0.92090153  0.89143000  0.99747323
   0.44346207  0.66142967  0.66545200
   0.34184733  0.68392151  0.33829534
   0.28649900  0.75238207  0.01779760
   0.20464757  0.79855752  0.67401345
   0.16303037  0.81178312  0.33783488
   0.06116112  0.88817461  0.01902204
   0.98148916  0.91564885  0.66480678
   0.90120924  0.93551140  0.33942117
   0.87278850  0.03433926  0.99701754
   0.80285984  0.06714149  0.66085620
   0.71011911  0.08529096  0.31762355
   0.63713257  0.10880275  0.98565274
   0.61039802  0.15439391  0.65402985
   0.50271285  0.20006796  0.32154393
   0.07631337  0.94775321  0.34916591
   0.14727132  0.02557348  0.02521282
   0.21108039  0.04011974  0.69269451
   0.27211921  0.07210114  0.34853056
   0.36153332  0.10884063  0.99500943
   0.41349656  0.17656201  0.67917283
   0.84856044  0.96038633  0.67786734
   0.77224620  0.94871929  0.34080536
   0.73117123  0.99815424  0.99076973
   0.65202701  0.04508321  0.68250879
   0.56264330  0.08048300  0.33278771
   0.49216879  0.11231635  0.97810444
   0.14239393  0.93583726  0.68942181
   0.21206810  0.95111396  0.35573029
   0.29488133  0.00054840  0.03378624
   0.36401973  0.03207030  0.66846038
   0.41241619  0.07013053  0.32477422
   0.77485984  0.89976759  0.00295406
   0.73001267  0.91838106  0.67100199
   0.62453096  0.94634909  0.33760460
   0.58496384  0.99271093  0.99755277
   0.50021310  0.04720609  0.64907483
   0.22067596  0.84906344  0.99703097
   0.27669977  0.92665500  0.67810430
   0.36652281  0.92586375  0.33597986
   0.40725563  0.99774417  0.99912585
   0.70041500  0.83294071  0.32541799
   0.63951566  0.86214777  0.98974352
   0.54834203  0.92008450  0.65768163
   0.48236290  0.94809253  0.32324651
   0.26735687  0.80593591  0.35269277
   0.37997807  0.86368334  0.99751017
   0.42453036  0.93762309  0.68378146
   0.61583063  0.78781985  0.66460543
   0.55278929  0.82884313  0.34406811
   0.50318490  0.87287614  0.00246676
   0.35500099  0.80016623  0.65800708
   0.41840620  0.80677239  0.34417980
   0.55769042  0.75676545  0.98832717
   0.49437684  0.82085214  0.66240109
   0.43034080  0.72179877  0.99864737
   0.50541618  0.69372084  0.35923183
   0.98438758  0.01223245  0.78815332
   0.92167127  0.02713142  0.44988119
   0.87409009  0.11181560  0.10667802
   0.79394938  0.12116190  0.78330936
   0.70609529  0.14515039  0.43377197
   0.65221307  0.21446632  0.11404466
   0.59482336  0.25962186  0.77962003
   0.49982589  0.30036439  0.43811149
   0.44980884  0.33402413  0.09524205
   0.34461248  0.35616708  0.77570698
   0.27141853  0.41229815  0.45216232
   0.22463263  0.45647406  0.08133314
   0.09175233  0.03895849  0.46306521
   0.99672223  0.10346942  0.11589357
   0.93966279  0.13773112  0.77915552
   0.85574186  0.18007582  0.43804882
   0.79879288  0.21335357  0.09003328
   0.73983991  0.25711583  0.77226135
   0.62429795  0.27184162  0.44404854
   0.59865110  0.36399565  0.10749107
   0.48134301  0.37645128  0.76993486
   0.42338918  0.41782096  0.44187302
   0.35556334  0.43583114  0.10002614
   0.28351919  0.48786701  0.76670308
   0.14582662  0.09339045  0.12689608
   0.07619694  0.12693706  0.78957736
   0.98596332  0.15693272  0.43687493
   0.92997163  0.20889212  0.13485742
   0.87072149  0.27979991  0.77590118
   0.74459992  0.27634201  0.41523697
   0.73156739  0.34582953  0.11349483
   0.65128488  0.37567258  0.77353644
   0.55395670  0.41866585  0.44258472
   0.49726215  0.47602601  0.09081097
   0.43065389  0.47637292  0.77930177
   0.33835974  0.50808521  0.44767935
   0.20810053  0.11184697  0.79771923
   0.14167922  0.15541546  0.43990139
   0.07451422  0.19327613  0.11044284
   0.01959168  0.27542028  0.77390193
   0.91291297  0.28726651  0.45289278
   0.86411142  0.34184702  0.11759673
   0.78261171  0.38510218  0.76266002
   0.70160796  0.39917193  0.42937189
   0.64684159  0.45753470  0.11235342
   0.58893844  0.50565233  0.78366187
   0.49467000  0.53258850  0.41685756
   0.41200184  0.59578780  0.11142401
   0.27526915  0.17813237  0.44871959
   0.21507145  0.21943552  0.10493015
   0.13582383  0.22161055  0.77694334
   0.06730918  0.28939794  0.46336242
   0.01257358  0.33619793  0.12388504
   0.93019786  0.37134347  0.78725383
   0.82270395  0.42066493  0.41838475
   0.79310470  0.46750756  0.11099325
   0.74392364  0.48917457  0.76178101
   0.63536155  0.53765267  0.43187678
   0.56048415  0.56479538  0.09573869
   0.50076105  0.59904209  0.76624286
   0.37673861  0.20740538  0.11959541
   0.30696694  0.22266342  0.76770674
   0.20161085  0.28690614  0.44746902
   0.14356828  0.32020440  0.11842361
   0.08468380  0.36653441  0.77652201
   0.00573955  0.43018735  0.43522226
   0.93490805  0.47859398  0.11244653
   0.85879424  0.50373996  0.77993533
   0.76726286  0.52749396  0.44400200
   0.70974799  0.59056303  0.08876348
   0.62989654  0.63360788  0.76136594
   0.55208295  0.65843734  0.44675560
   0.43361461  0.24335729  0.77434211
   0.35915264  0.28951287  0.43039408
   0.29277479  0.33936258  0.11080037
   0.20137165  0.36467929  0.77415802
   0.14414550  0.43156963  0.43926118
   0.07086733  0.46526751  0.09691631
   0.99922907  0.49376641  0.78853245
   0.91194085  0.54056495  0.45043564
   0.85241269  0.60152913  0.12870706
   0.79414293  0.63319890  0.79060424
   0.71343659  0.65043154  0.42629642
   0.62599702  0.71156676  0.10474340
   0.15162540  0.49589839  0.77280597
   0.06368177  0.54187247  0.43786841
   0.00059694  0.62223164  0.09537606
   0.90851786  0.62562967  0.76679279
   0.85105370  0.66171947  0.43697238
   0.76070937  0.73647583  0.11371857
   0.71783641  0.73319923  0.79366321
   0.20316218  0.52083676  0.45706539
   0.13616562  0.56564969  0.10033095
   0.08438405  0.62498892  0.77737417
   0.00339108  0.65124464  0.44246759
   0.92817127  0.74015648  0.12254849
   0.86154062  0.75564876  0.77479154
   0.75764784  0.78039596  0.45471328
   0.27221500  0.59522179  0.11603808
   0.23681001  0.64772358  0.79453483
   0.15656565  0.67779340  0.45680314
   0.06155044  0.72240362  0.12768599
   0.99607523  0.75003578  0.77019460
   0.91582300  0.79956819  0.44826006
   0.85387885  0.85319133  0.11357468
   0.35778132  0.61509934  0.78937148
   0.29823492  0.64727640  0.46296598
   0.21010772  0.70060143  0.10940819
   0.14653400  0.77706645  0.79571251
   0.06452584  0.79229997  0.46436904
   0.00200660  0.83569819  0.10930428
   0.93560319  0.88008159  0.78734597
   0.43922438  0.64670948  0.45424360
   0.36948141  0.71264643  0.11358802
   0.30767703  0.76427848  0.78266927
   0.20457525  0.77087445  0.46537468
   0.11911051  0.84000931  0.12575512
   0.06257919  0.88334352  0.77651297
   0.98820831  0.92726133  0.44217634
   0.92810621  0.98349075  0.11080230
   0.85569535  0.99633247  0.77150184
   0.76499062  0.02404944  0.44527963
   0.71753578  0.10241530  0.11430494
   0.65769138  0.14797927  0.77243744
   0.57637865  0.15639615  0.42123082
   0.51330995  0.21833978  0.09761005
   0.06974075  0.97156565  0.11726359
   0.13841117  0.02115792  0.77204097
   0.20279163  0.03896009  0.47129438
   0.28900918  0.08354152  0.11439632
   0.35722055  0.10552979  0.77306539
   0.41839516  0.16988505  0.44214054
   0.85182076  0.91217237  0.44495706
   0.77927018  0.97396519  0.11681798
   0.73171482  0.00194458  0.77072014
   0.64774899  0.02494556  0.43480917
   0.59155954  0.10110059  0.08966866
   0.52732276  0.13032840  0.77799952
   0.15549753  0.89885106  0.45432451
   0.20836682  0.96206243  0.12208807
   0.29632277  0.00013384  0.79653886
   0.35186986  0.05967999  0.43489493
   0.42456942  0.07831816  0.10335035
   0.79768186  0.88072479  0.78947042
   0.71669287  0.89189585  0.44480065
   0.64869989  0.94616149  0.12156600
   0.55899631  0.00178374  0.76208085
   0.47519382  0.02960139  0.43120351
   0.23749698  0.88671330  0.79057991
   0.28166022  0.92006127  0.44969629
   0.36912435  0.94504198  0.13510170
   0.43152310  0.00566124  0.76807822
   0.71968947  0.83524696  0.11032250
   0.64699788  0.88105902  0.76711664
   0.56625797  0.91720725  0.44347943
   0.51454353  0.96292239  0.12093951
   0.28218813  0.82685343  0.11711104
   0.38280758  0.86817984  0.76627794
   0.41883169  0.91185364  0.44933547
   0.63344628  0.77733206  0.44219736
   0.56915162  0.83477714  0.11772009
   0.50507786  0.85926080  0.77370218
   0.35625854  0.76592287  0.45925194
   0.44336747  0.83549503  0.10796874
   0.56574649  0.72254995  0.76571123
   0.49496529  0.78447026  0.45391294
   0.43239129  0.73116252  0.78479048
   0.48909382  0.69597889  0.10227281
   0.00973841  0.01722744  0.22512272
   0.90156176  0.05684299  0.88362315
   0.85270973  0.08978615  0.53599281
   0.76599659  0.14847832  0.21790906
   0.72546730  0.18471897  0.87385521
   0.63939989  0.18754210  0.55022163
   0.54778212  0.24005046  0.19928073
   0.51718138  0.28040297  0.88674137
   0.43031450  0.34429045  0.55226906
   0.36459659  0.35631820  0.21957398
   0.29200039  0.41579413  0.88436055
   0.20967609  0.43204952  0.55783194
   0.06123010  0.02468998  0.89942787
   0.00252563  0.07622486  0.55232275
   0.91236939  0.13872893  0.25398946
   0.86004079  0.18667526  0.88451269
   0.80509840  0.19924451  0.55154547
   0.67151513  0.25115416  0.22139033
   0.67239959  0.29401905  0.87371835
   0.55865510  0.31803955  0.56043902
   0.49938448  0.37514518  0.21150214
   0.40678108  0.40372866  0.89824747
   0.33881081  0.46109253  0.55807656
   0.29371322  0.50244099  0.22154236
   0.17174381  0.08861018  0.59202675
   0.07447863  0.11241035  0.23214506
   0.98163624  0.17274777  0.87892096
   0.95040406  0.19303417  0.57490078
   0.82801009  0.27929331  0.22066520
   0.79429072  0.30500889  0.88379049
   0.71359836  0.30337670  0.54239263
   0.61404019  0.38659548  0.22044437
   0.56354737  0.41231151  0.87891950
   0.48359771  0.45381312  0.54989511
   0.43102585  0.50735355  0.20915718
   0.36161769  0.53758794  0.88145472
   0.19329834  0.11246065  0.22974030
   0.14529936  0.15083680  0.91863312
   0.09232754  0.20375243  0.53837330
   0.00095551  0.25771535  0.22537203
   0.93824963  0.30937070  0.91533074
   0.84520874  0.32586159  0.54888085
   0.77503329  0.38095811  0.21055636
   0.71806532  0.44122181  0.87554237
   0.63374962  0.44123983  0.55132236
   0.57521201  0.48095379  0.20629024
   0.51699468  0.53926076  0.88271486
   0.42364011  0.57776561  0.55528232
   0.29240063  0.15133908  0.89005528
   0.22639141  0.20794896  0.56211255
   0.14687892  0.24779077  0.21564965
   0.09661918  0.29784116  0.88037922
   0.00321780  0.30980175  0.55191950
   0.93502381  0.37951971  0.22453287
   0.86571211  0.41658314  0.87993034
   0.78427482  0.45303005  0.54044694
   0.72258007  0.52408848  0.21661793
   0.67266468  0.56628490  0.88406327
   0.57062984  0.57267782  0.54439951
   0.51272833  0.61356373  0.22508635
   0.36126122  0.17918032  0.55157186
   0.27760435  0.22537809  0.22575867
   0.24409495  0.28304513  0.88238584
   0.15717412  0.31505662  0.55708373
   0.06442152  0.38665770  0.23282047
   0.03134650  0.42345924  0.90550653
   0.92567426  0.45196045  0.54322983
   0.85170733  0.50009748  0.22460582
   0.78967327  0.56041980  0.88653863
   0.71166450  0.55209059  0.55801764
   0.64570407  0.62181189  0.19574384
   0.57250463  0.67239418  0.87225733
   0.42947265  0.22834006  0.22825593
   0.38643469  0.26960759  0.88750836
   0.28264248  0.31892199  0.56772805
   0.21487662  0.36240795  0.21845322
   0.15557530  0.42834878  0.88565621
   0.07688091  0.44951853  0.54929230
   0.00136592  0.51008433  0.21299400
   0.92767706  0.53822591  0.89480727
   0.83963484  0.58309308  0.54623195
   0.76112242  0.62785456  0.22476482
   0.72729529  0.68072996  0.88070164
   0.65481575  0.71022695  0.54823613
   0.16855567  0.48954512  0.20301763
   0.06590387  0.55055147  0.88566433
   0.99731108  0.56012429  0.54811755
   0.91670271  0.62749945  0.23628888
   0.86607528  0.66297886  0.89252600
   0.76583161  0.70254355  0.55415381
   0.70146514  0.76016297  0.21175519
   0.23447569  0.55462587  0.86651566
   0.13288926  0.56737665  0.54223088
   0.08017774  0.62605042  0.23106791
   0.98318911  0.67411147  0.90128355
   0.91431049  0.71290656  0.54839080
   0.84015456  0.75832586  0.21770742
   0.80037236  0.81783224  0.88448429
   0.26774961  0.58825924  0.55326916
   0.20989142  0.61681075  0.22012241
   0.14322996  0.66794297  0.89690840
   0.07527128  0.72090861  0.54938541
   0.99184844  0.76738349  0.24158976
   0.93610409  0.77781589  0.89346511
   0.81274132  0.82335290  0.56458221
   0.34509253  0.63155881  0.23909734
   0.28755286  0.68046304  0.89943064
   0.20681379  0.69110887  0.57547884
   0.12285426  0.75650270  0.22743944
   0.07894071  0.78947426  0.89380616
   0.96459067  0.84504003  0.56467731
   0.93224665  0.87494685  0.23808082
   0.45409816  0.67454441  0.87358887
   0.35950537  0.72063467  0.57895407
   0.28119575  0.75641510  0.20800746
   0.22562412  0.80138201  0.90311316
   0.11555914  0.82859492  0.58233825
   0.07200738  0.86759834  0.23019053
   0.99281073  0.90520014  0.90226224
   0.91174722  0.96941942  0.56712461
   0.84969609  0.01404984  0.24302868
   0.79674614  0.05611036  0.88434687
   0.70435140  0.08447902  0.55443838
   0.61660320  0.12465570  0.23840598
   0.58967296  0.16942318  0.87581486
   0.50452107  0.20975893  0.55263266
   0.08765680  0.96822609  0.58128322
   0.14432911  0.98045516  0.22702656
   0.22490834  0.03870750  0.91770052
   0.27856325  0.07185975  0.55080216
   0.33824633  0.09711658  0.22283948
   0.43710261  0.16313537  0.85959660
   0.88280056  0.94090619  0.89459500
   0.78522036  0.97308957  0.54793165
   0.72138744  0.01399897  0.22350679
   0.66785312  0.05465359  0.86145276
   0.56819584  0.05722459  0.54107904
   0.49095334  0.12632505  0.18720280
   0.14268235  0.92991891  0.90128925
   0.21198864  0.95344620  0.57807025
   0.27472913  0.98446484  0.20905419
   0.37447634  0.02973490  0.89040354
   0.42441574  0.06685835  0.54899799
   0.79582130  0.88788975  0.23009982
   0.74467416  0.91848720  0.88800511
   0.64436491  0.96375831  0.55646047
   0.55836895  0.01448529  0.23062605
   0.51142944  0.06152457  0.87772615
   0.22403986  0.86772959  0.23290349
   0.29584872  0.91843952  0.91071496
   0.34599888  0.95045736  0.56760745
   0.41369526  0.99465989  0.24119708
   0.70344583  0.83393007  0.55793884
   0.63591461  0.89233038  0.21296846
   0.58723701  0.93245219  0.89493930
   0.48289313  0.94390780  0.56214651
   0.26439372  0.82862553  0.55956222
   0.35108442  0.87247776  0.23378389
   0.45518655  0.93298957  0.87601164
   0.65294901  0.81625407  0.88298538
   0.56169418  0.83374820  0.54385999
   0.48775903  0.86923856  0.22691466
   0.37450808  0.79112261  0.87783635
   0.42267094  0.83927779  0.55669256
   0.56490056  0.74750910  0.22415612
   0.51340034  0.80816374  0.90081377
   0.43359244  0.76640496  0.23716701
   0.49383261  0.70763412  0.55963005
