 504 504   0   0
  0.1922536E+02  0.2105579E-08  0.2083983E-08  0.2208205E-08  0.5000000E-15
  1.000000000000000E-004
  CAR 
 Li                                      
      3.66804568     -3.36326629  301      0.53064593      1.00000000
     -3.363  0.0000E+00  0.0000E+00
     -3.340  0.0000E+00  0.0000E+00
     -3.316  0.0000E+00  0.0000E+00
     -3.293  0.0000E+00  0.0000E+00
     -3.270  0.0000E+00  0.0000E+00
     -3.246  0.0000E+00  0.0000E+00
     -3.223  0.0000E+00  0.0000E+00
     -3.199  0.8912E-11  0.2089E-12
     -3.176  0.1888E-07  0.4428E-09
     -3.152  0.1213E-04  0.2847E-06
     -3.129  0.2383E-02  0.5614E-04
     -3.105  0.1452E+00  0.3460E-02
     -3.082  0.2794E+01  0.6894E-01
     -3.059  0.1734E+02  0.4752E+00
     -3.035  0.3536E+02  0.1304E+01
     -3.012  0.2398E+02  0.1866E+01
     -2.988  0.6572E+01  0.2020E+01
     -2.965  0.1314E+02  0.2328E+01
     -2.941  0.5025E+02  0.3506E+01
     -2.918  0.8554E+02  0.5511E+01
     -2.895  0.7154E+02  0.7188E+01
     -2.871  0.2990E+02  0.7888E+01
     -2.848  0.1344E+02  0.8204E+01
     -2.824  0.3952E+02  0.9130E+01
     -2.801  0.8004E+02  0.1101E+02
     -2.777  0.8029E+02  0.1289E+02
     -2.754  0.4110E+02  0.1385E+02
     -2.730  0.2484E+02  0.1443E+02
     -2.707  0.5254E+02  0.1566E+02
     -2.684  0.8848E+02  0.1774E+02
     -2.660  0.9857E+02  0.2005E+02
     -2.637  0.6485E+02  0.2157E+02
     -2.613  0.3883E+02  0.2248E+02
     -2.590  0.6827E+02  0.2408E+02
     -2.566  0.1113E+03  0.2669E+02
     -2.543  0.1317E+03  0.2977E+02
     -2.520  0.1153E+03  0.3247E+02
     -2.496  0.5840E+02  0.3384E+02
     -2.473  0.3615E+02  0.3469E+02
     -2.449  0.6195E+02  0.3614E+02
     -2.426  0.7997E+02  0.3802E+02
     -2.402  0.6642E+02  0.3957E+02
     -2.379  0.5089E+02  0.4077E+02
     -2.355  0.6413E+02  0.4227E+02
     -2.332  0.8698E+02  0.4431E+02
     -2.309  0.1079E+03  0.4684E+02
     -2.285  0.1180E+03  0.4960E+02
     -2.262  0.1102E+03  0.5218E+02
     -2.238  0.1058E+03  0.5466E+02
     -2.215  0.1191E+03  0.5745E+02
     -2.191  0.1458E+03  0.6087E+02
     -2.168  0.1571E+03  0.6455E+02
     -2.145  0.1372E+03  0.6777E+02
     -2.121  0.9122E+02  0.6991E+02
     -2.098  0.5956E+02  0.7130E+02
     -2.074  0.5141E+02  0.7251E+02
     -2.051  0.6302E+02  0.7399E+02
     -2.027  0.7019E+02  0.7563E+02
     -2.004  0.7636E+02  0.7742E+02
     -1.980  0.1028E+03  0.7983E+02
     -1.957  0.1280E+03  0.8283E+02
     -1.934  0.1388E+03  0.8608E+02
     -1.910  0.1348E+03  0.8924E+02
     -1.887  0.1158E+03  0.9196E+02
     -1.863  0.1062E+03  0.9445E+02
     -1.840  0.1237E+03  0.9735E+02
     -1.816  0.1501E+03  0.1009E+03
     -1.793  0.1695E+03  0.1048E+03
     -1.770  0.1581E+03  0.1085E+03
     -1.746  0.1037E+03  0.1110E+03
     -1.723  0.5335E+02  0.1122E+03
     -1.699  0.6495E+02  0.1137E+03
     -1.676  0.1154E+03  0.1165E+03
     -1.652  0.1414E+03  0.1198E+03
     -1.629  0.1322E+03  0.1229E+03
     -1.605  0.1323E+03  0.1260E+03
     -1.582  0.1499E+03  0.1295E+03
     -1.559  0.1697E+03  0.1335E+03
     -1.535  0.1706E+03  0.1375E+03
     -1.512  0.1453E+03  0.1409E+03
     -1.488  0.1218E+03  0.1437E+03
     -1.465  0.1270E+03  0.1467E+03
     -1.441  0.1401E+03  0.1500E+03
     -1.418  0.1487E+03  0.1535E+03
     -1.394  0.1495E+03  0.1570E+03
     -1.371  0.1270E+03  0.1599E+03
     -1.348  0.1036E+03  0.1624E+03
     -1.324  0.1035E+03  0.1648E+03
     -1.301  0.1041E+03  0.1672E+03
     -1.277  0.1007E+03  0.1696E+03
     -1.254  0.1172E+03  0.1723E+03
     -1.230  0.1277E+03  0.1753E+03
     -1.207  0.1386E+03  0.1786E+03
     -1.184  0.1518E+03  0.1821E+03
     -1.160  0.1627E+03  0.1860E+03
     -1.137  0.1665E+03  0.1899E+03
     -1.113  0.1635E+03  0.1937E+03
     -1.090  0.1687E+03  0.1976E+03
     -1.066  0.1865E+03  0.2020E+03
     -1.043  0.2146E+03  0.2070E+03
     -1.019  0.2214E+03  0.2122E+03
     -0.996  0.1997E+03  0.2169E+03
     -0.973  0.1685E+03  0.2209E+03
     -0.949  0.1452E+03  0.2243E+03
     -0.926  0.1359E+03  0.2274E+03
     -0.902  0.1279E+03  0.2304E+03
     -0.879  0.1131E+03  0.2331E+03
     -0.855  0.1282E+03  0.2361E+03
     -0.832  0.1475E+03  0.2396E+03
     -0.809  0.1503E+03  0.2431E+03
     -0.785  0.1584E+03  0.2468E+03
     -0.762  0.1684E+03  0.2507E+03
     -0.738  0.1761E+03  0.2549E+03
     -0.715  0.1882E+03  0.2593E+03
     -0.691  0.1837E+03  0.2636E+03
     -0.668  0.1598E+03  0.2673E+03
     -0.644  0.1371E+03  0.2705E+03
     -0.621  0.1319E+03  0.2736E+03
     -0.598  0.1475E+03  0.2771E+03
     -0.574  0.1636E+03  0.2809E+03
     -0.551  0.1678E+03  0.2849E+03
     -0.527  0.1670E+03  0.2888E+03
     -0.504  0.1658E+03  0.2927E+03
     -0.480  0.1799E+03  0.2969E+03
     -0.457  0.2089E+03  0.3018E+03
     -0.434  0.2224E+03  0.3070E+03
     -0.410  0.2133E+03  0.3120E+03
     -0.387  0.2005E+03  0.3167E+03
     -0.363  0.2063E+03  0.3215E+03
     -0.340  0.2162E+03  0.3266E+03
     -0.316  0.2119E+03  0.3315E+03
     -0.293  0.1956E+03  0.3361E+03
     -0.269  0.1727E+03  0.3402E+03
     -0.246  0.1649E+03  0.3440E+03
     -0.223  0.1741E+03  0.3481E+03
     -0.199  0.1697E+03  0.3521E+03
     -0.176  0.1617E+03  0.3559E+03
     -0.152  0.1627E+03  0.3597E+03
     -0.129  0.1725E+03  0.3638E+03
     -0.105  0.1857E+03  0.3681E+03
     -0.082  0.2064E+03  0.3729E+03
     -0.059  0.2119E+03  0.3779E+03
     -0.035  0.1999E+03  0.3826E+03
     -0.012  0.1994E+03  0.3873E+03
      0.012  0.2015E+03  0.3920E+03
      0.035  0.2147E+03  0.3970E+03
      0.059  0.2370E+03  0.4026E+03
      0.082  0.2388E+03  0.4082E+03
      0.106  0.2322E+03  0.4136E+03
      0.129  0.2219E+03  0.4188E+03
      0.152  0.2110E+03  0.4238E+03
      0.176  0.2123E+03  0.4287E+03
      0.199  0.2070E+03  0.4336E+03
      0.223  0.1944E+03  0.4381E+03
      0.246  0.1916E+03  0.4426E+03
      0.270  0.1942E+03  0.4472E+03
      0.293  0.1974E+03  0.4518E+03
      0.316  0.1955E+03  0.4564E+03
      0.340  0.1942E+03  0.4609E+03
      0.363  0.2016E+03  0.4657E+03
      0.387  0.2089E+03  0.4706E+03
      0.410  0.2061E+03  0.4754E+03
      0.434  0.2063E+03  0.4802E+03
      0.457  0.2240E+03  0.4855E+03
      0.481  0.2417E+03  0.4911E+03
      0.504  0.2505E+03  0.4970E+03
      0.527  0.2609E+03  0.5031E+03
      0.551  0.2676E+03  0.5094E+03
      0.574  0.2694E+03  0.5157E+03
      0.598  0.2665E+03  0.5220E+03
      0.621  0.2620E+03  0.5281E+03
      0.645  0.2600E+03  0.5342E+03
      0.668  0.2593E+03  0.5403E+03
      0.691  0.2539E+03  0.5462E+03
      0.715  0.2470E+03  0.5520E+03
      0.738  0.2447E+03  0.5578E+03
      0.762  0.2413E+03  0.5634E+03
      0.785  0.2344E+03  0.5689E+03
      0.809  0.2296E+03  0.5743E+03
      0.832  0.2263E+03  0.5796E+03
      0.856  0.2244E+03  0.5848E+03
      0.879  0.2153E+03  0.5899E+03
      0.902  0.2010E+03  0.5946E+03
      0.926  0.1980E+03  0.5992E+03
      0.949  0.1997E+03  0.6039E+03
      0.973  0.1966E+03  0.6085E+03
      0.996  0.1980E+03  0.6132E+03
      1.020  0.2059E+03  0.6180E+03
      1.043  0.2039E+03  0.6228E+03
      1.066  0.2008E+03  0.6275E+03
      1.090  0.2056E+03  0.6323E+03
      1.113  0.2111E+03  0.6373E+03
      1.137  0.2149E+03  0.6423E+03
      1.160  0.2146E+03  0.6473E+03
      1.184  0.2095E+03  0.6522E+03
      1.207  0.2134E+03  0.6572E+03
      1.231  0.2266E+03  0.6625E+03
      1.254  0.2285E+03  0.6679E+03
      1.277  0.2100E+03  0.6728E+03
      1.301  0.2022E+03  0.6776E+03
      1.324  0.2073E+03  0.6824E+03
      1.348  0.2107E+03  0.6874E+03
      1.371  0.2079E+03  0.6922E+03
      1.395  0.2038E+03  0.6970E+03
      1.418  0.2071E+03  0.7019E+03
      1.441  0.2174E+03  0.7070E+03
      1.465  0.2199E+03  0.7121E+03
      1.488  0.2163E+03  0.7172E+03
      1.512  0.2033E+03  0.7219E+03
      1.535  0.1949E+03  0.7265E+03
      1.559  0.2027E+03  0.7313E+03
      1.582  0.2039E+03  0.7360E+03
      1.606  0.1909E+03  0.7405E+03
      1.629  0.1869E+03  0.7449E+03
      1.652  0.2011E+03  0.7496E+03
      1.676  0.2070E+03  0.7545E+03
      1.699  0.2024E+03  0.7592E+03
      1.723  0.2039E+03  0.7640E+03
      1.746  0.2052E+03  0.7688E+03
      1.770  0.1998E+03  0.7735E+03
      1.793  0.2005E+03  0.7782E+03
      1.816  0.1935E+03  0.7827E+03
      1.840  0.1856E+03  0.7871E+03
      1.863  0.1969E+03  0.7917E+03
      1.887  0.2071E+03  0.7965E+03
      1.910  0.2038E+03  0.8013E+03
      1.934  0.2013E+03  0.8060E+03
      1.957  0.1939E+03  0.8106E+03
      1.981  0.1950E+03  0.8151E+03
      2.004  0.2035E+03  0.8199E+03
      2.027  0.1914E+03  0.8244E+03
      2.051  0.1838E+03  0.8287E+03
      2.074  0.1990E+03  0.8334E+03
      2.098  0.2093E+03  0.8383E+03
      2.121  0.1966E+03  0.8429E+03
      2.145  0.1866E+03  0.8473E+03
      2.168  0.1899E+03  0.8517E+03
      2.191  0.1783E+03  0.8559E+03
      2.215  0.1693E+03  0.8599E+03
      2.238  0.1761E+03  0.8640E+03
      2.262  0.1826E+03  0.8683E+03
      2.285  0.1812E+03  0.8725E+03
      2.309  0.1769E+03  0.8767E+03
      2.332  0.1746E+03  0.8807E+03
      2.356  0.1844E+03  0.8851E+03
      2.379  0.1797E+03  0.8893E+03
      2.402  0.1597E+03  0.8930E+03
      2.426  0.1508E+03  0.8966E+03
      2.449  0.1466E+03  0.9000E+03
      2.473  0.1470E+03  0.9034E+03
      2.496  0.1510E+03  0.9070E+03
      2.520  0.1486E+03  0.9105E+03
      2.543  0.1522E+03  0.9140E+03
      2.566  0.1586E+03  0.9178E+03
      2.590  0.1538E+03  0.9214E+03
      2.613  0.1501E+03  0.9249E+03
      2.637  0.1507E+03  0.9284E+03
      2.660  0.1429E+03  0.9318E+03
      2.684  0.1333E+03  0.9349E+03
      2.707  0.1386E+03  0.9381E+03
      2.731  0.1482E+03  0.9416E+03
      2.754  0.1446E+03  0.9450E+03
      2.777  0.1349E+03  0.9482E+03
      2.801  0.1341E+03  0.9513E+03
      2.824  0.1389E+03  0.9546E+03
      2.848  0.1443E+03  0.9579E+03
      2.871  0.1389E+03  0.9612E+03
      2.895  0.1373E+03  0.9644E+03
      2.918  0.1367E+03  0.9676E+03
      2.941  0.1348E+03  0.9708E+03
      2.965  0.1310E+03  0.9738E+03
      2.988  0.1243E+03  0.9768E+03
      3.012  0.1200E+03  0.9796E+03
      3.035  0.1155E+03  0.9823E+03
      3.059  0.1166E+03  0.9850E+03
      3.082  0.1267E+03  0.9880E+03
      3.106  0.1202E+03  0.9908E+03
      3.129  0.1026E+03  0.9932E+03
      3.152  0.9904E+02  0.9955E+03
      3.176  0.9695E+02  0.9978E+03
      3.199  0.9004E+02  0.9999E+03
      3.223  0.8554E+02  0.1002E+04
      3.246  0.8526E+02  0.1004E+04
      3.270  0.8374E+02  0.1006E+04
      3.293  0.6464E+02  0.1007E+04
      3.316  0.4303E+02  0.1008E+04
      3.340  0.3685E+02  0.1009E+04
      3.363  0.2375E+02  0.1010E+04
      3.387  0.7154E+01  0.1010E+04
      3.410  0.8888E+00  0.1010E+04
      3.434  0.4112E-01  0.1010E+04
      3.457  0.6465E-03  0.1010E+04
      3.481  0.3256E-05  0.1010E+04
      3.504  0.5083E-08  0.1010E+04
      3.527  0.2421E-11  0.1010E+04
      3.551  0.0000E+00  0.1010E+04
      3.574  0.0000E+00  0.1010E+04
      3.598  0.0000E+00  0.1010E+04
      3.621  0.0000E+00  0.1010E+04
      3.645  0.0000E+00  0.1010E+04
      3.668  0.0000E+00  0.1010E+04
