 running on   64 total cores
 distrk:  each k-point on   32 cores,    2 groups
 distr:  one band on   32 cores,    1 groups
 vasp.6.2.1 16May21 (build Nov 23 2021 15:40:41) complex                        
  
 POSCAR found type information on POSCAR Li
 POSCAR found :  1 types and     504 ions
 scaLAPACK will be used
 -----------------------------------------------------------------------------
|                                                                             |
|           W    W    AA    RRRRR   N    N  II  N    N   GGGG   !!!           |
|           W    W   A  A   R    R  NN   N  II  NN   N  G    G  !!!           |
|           W    W  A    A  R    R  N N  N  II  N N  N  G       !!!           |
|           W WW W  AAAAAA  RRRRR   N  N N  II  N  N N  G  GGG   !            |
|           WW  WW  A    A  R   R   N   NN  II  N   NN  G    G                |
|           W    W  A    A  R    R  N    N  II  N    N   GGGG   !!!           |
|                                                                             |
|     For optimal performance we recommend to set                             |
|       NCORE = 2 up to number-of-cores-per-socket                            |
|     NCORE specifies how many cores store one orbital (NPAR=cpu/NCORE).      |
|     This setting can greatly improve the performance of VASP for DFT.       |
|     The default, NCORE=1 might be grossly inefficient on modern             |
|     multi-core architectures or massively parallel machines. Do your        |
|     own testing! More info at https://www.vasp.at/wiki/index.php/NCORE      |
|     Unfortunately you need to use the default for GW and RPA                |
|     calculations (for HF NCORE is supported but not extensively tested      |
|     yet).                                                                   |
|                                                                             |
 -----------------------------------------------------------------------------

 -----------------------------------------------------------------------------
|                                                                             |
|               ----> ADVICE to this user running VASP <----                  |
|                                                                             |
|     You have a (more or less) 'large supercell' and for larger cells it     |
|     might be more efficient to use real-space projection operators.         |
|     Therefore, try LREAL= Auto in the INCAR file.                           |
|     Mind: If you want to do very accurate calculations, keep the            |
|     reciprocal projection scheme (i.e. LREAL=.FALSE.).                      |
|                                                                             |
 -----------------------------------------------------------------------------

 LDA part: xc-table for Pade appr. of Perdew
 POSCAR found type information on POSCAR Li
 POSCAR found :  1 types and     504 ions
 POSCAR, INCAR and KPOINTS ok, starting setup
 FFT: planning ...
 WAVECAR not read
 entering main loop
       N       E                     dE             d eps       ncg     rms          rms(c)
DAV:   1    -0.238876701628E+03   -0.23888E+03   -0.12442E+05  4040   0.662E+02
DAV:   2    -0.869279341670E+03   -0.63040E+03   -0.57595E+03  4644   0.692E+01
DAV:   3    -0.914762159667E+03   -0.45483E+02   -0.41510E+02  5216   0.147E+01
DAV:   4    -0.916319872604E+03   -0.15577E+01   -0.15329E+01  4752   0.296E+00
DAV:   5    -0.916357371088E+03   -0.37498E-01   -0.37423E-01  4896   0.482E-01    0.115E+01
DAV:   6    -0.909589393398E+03    0.67680E+01   -0.18297E+01  4768   0.591E+00    0.927E+00
DAV:   7    -0.901105121286E+03    0.84843E+01   -0.13992E+01  4840   0.547E+00    0.619E+00
DAV:   8    -0.896640874702E+03    0.44642E+01   -0.71638E+00  4744   0.317E+00    0.334E+00
DAV:   9    -0.896042147576E+03    0.59873E+00   -0.39627E+00  4592   0.185E+00    0.217E+00
DAV:  10    -0.895797745815E+03    0.24440E+00   -0.14647E+00  4712   0.126E+00    0.155E+00
DAV:  11    -0.895616588592E+03    0.18116E+00   -0.52727E-01  4568   0.678E-01    0.825E-01
DAV:  12    -0.895635828106E+03   -0.19240E-01   -0.13641E-01  4816   0.436E-01    0.736E-01
DAV:  13    -0.895580262317E+03    0.55566E-01   -0.76173E-02  4776   0.318E-01    0.328E-01
DAV:  14    -0.895578655352E+03    0.16070E-02   -0.25907E-02  4584   0.151E-01    0.193E-01
DAV:  15    -0.895579682154E+03   -0.10268E-02   -0.94242E-03  4736   0.113E-01    0.165E-01
DAV:  16    -0.895576431882E+03    0.32503E-02   -0.40469E-03  4680   0.766E-02    0.705E-02
DAV:  17    -0.895576279335E+03    0.15255E-03   -0.12379E-03  4488   0.324E-02    0.383E-02
DAV:  18    -0.895576226160E+03    0.53176E-04   -0.44493E-04  4808   0.230E-02    0.288E-02
DAV:  19    -0.895576144478E+03    0.81681E-04   -0.14447E-04  4672   0.130E-02    0.135E-02
DAV:  20    -0.895576127023E+03    0.17455E-04   -0.51912E-05  4528   0.709E-03    0.710E-03
DAV:  21    -0.895576124172E+03    0.28511E-05   -0.15193E-05  2864   0.442E-03
   1 F= -.89557612E+03 E0= -.89551626E+03  d E =-.119720E+00
