Li                                      
           1
   -10.527895   18.234849   -0.000000
   -18.047820  -10.419914    0.000000
    -0.000000    0.000000   22.082050
   Li
   504
Direct configuration=     1
   0.99693817  0.98766291  0.03209997
   0.92688438  0.04226027  0.68618817
   0.85845417  0.08383338  0.34055507
   0.79664377  0.14926932  0.01084418
   0.72774452  0.16832582  0.65688376
   0.63559396  0.18519878  0.32542195
   0.60898129  0.23581247  0.98534207
   0.52995126  0.29655200  0.64321481
   0.42711379  0.34199912  0.32675354
   0.36039803  0.37435543  0.00329540
   0.30036195  0.40568462  0.65744583
   0.19832481  0.50090700  0.32028235
   0.09124567  0.02609442  0.66601393
   0.00382214  0.07183839  0.32926880
   0.94468250  0.15114165  0.99913514
   0.86297924  0.15322885  0.67126624
   0.77795923  0.20695880  0.32777368
   0.74489561  0.25662440  0.98968591
   0.64802285  0.30860319  0.66840413
   0.55287618  0.32535174  0.33780569
   0.49209495  0.36098914  0.98077587
   0.45075858  0.39478249  0.66204350
   0.34505235  0.46075739  0.32613420
   0.26471896  0.52738572  0.00957048
   0.13861568  0.04339655  0.35038404
   0.09789980  0.12639724  0.00697804
   0.00544721  0.15724660  0.67603681
   0.91701749  0.21073399  0.34147022
   0.85259874  0.25238447  0.98546401
   0.78460991  0.30545826  0.66486470
   0.69867275  0.31358466  0.32252678
   0.65593193  0.35357159  0.97104158
   0.60478256  0.43606141  0.66264979
   0.48799657  0.47701405  0.32009505
   0.42408647  0.50633266  0.98579553
   0.36446255  0.53289499  0.65494501
   0.23296860  0.13612421  0.99609934
   0.17163034  0.17906930  0.66203734
   0.07326678  0.20464643  0.33572833
   0.98703559  0.26848521  0.00554407
   0.94701532  0.27685454  0.63996991
   0.85614900  0.35000829  0.32865600
   0.79015639  0.40590794  0.95962349
   0.76022091  0.41998178  0.65792275
   0.61562441  0.44952715  0.31074103
   0.59671075  0.50026577  0.00113874
   0.52946785  0.52533874  0.65936387
   0.42135805  0.58410922  0.32811853
   0.30322918  0.16509259  0.67839584
   0.19894090  0.21560374  0.33283374
   0.13623086  0.25417038  0.00407905
   0.08510362  0.30776859  0.68140031
   0.98667146  0.32919913  0.31351428
   0.93768320  0.40527006  0.95821141
   0.88051771  0.43515208  0.67308823
   0.77722021  0.44607947  0.34250639
   0.68654715  0.50836034  0.00565213
   0.66740911  0.55725707  0.65766477
   0.56033590  0.59524928  0.32666689
   0.51787244  0.59810407  0.00289345
   0.35441360  0.20221818  0.33792163
   0.27579356  0.23800647  0.01995239
   0.25092621  0.29840461  0.67455968
   0.12726755  0.34236736  0.33562574
   0.07896305  0.37785983  0.00251585
   0.02079709  0.40850084  0.64484699
   0.93088425  0.45484310  0.30256674
   0.84564802  0.54131081  0.97413259
   0.79457944  0.56009054  0.66739063
   0.68557219  0.58613450  0.33222522
   0.63954044  0.62954734  0.01680868
   0.60962012  0.66133863  0.67288552
   0.43373670  0.22839896  0.00540795
   0.39338617  0.26882613  0.64805885
   0.28547651  0.35237191  0.32283343
   0.21680950  0.38178418  0.99121169
   0.15999345  0.42084186  0.64993799
   0.04897071  0.47157941  0.31440273
   0.97811665  0.52172154  0.96368577
   0.92986938  0.53583572  0.64032548
   0.84863859  0.57681655  0.33681432
   0.76175169  0.63994579  0.99911190
   0.73156633  0.69031111  0.66946041
   0.62649527  0.73732981  0.35111594
   0.14424472  0.51137500  0.99768289
   0.06765953  0.53518075  0.67627735
   0.96952206  0.58553808  0.33014402
   0.91109065  0.66554036  0.99324607
   0.88939871  0.65568034  0.67951951
   0.75922083  0.71636744  0.33431604
   0.71799788  0.75676649  0.01756990
   0.20792416  0.52751219  0.65490347
   0.10583182  0.57571225  0.32270208
   0.05971742  0.60778924  0.99825830
   0.00023362  0.66867878  0.66253743
   0.89964195  0.71214259  0.31978206
   0.85944559  0.74639464  0.01906592
   0.82924307  0.79270564  0.68409300
   0.26463852  0.61272216  0.31476300
   0.20005012  0.64100595  0.00673669
   0.11808716  0.67617720  0.69248863
   0.04585814  0.69652118  0.33722832
   0.99781977  0.74253450  0.00729125
   0.96452149  0.77523972  0.68654321
   0.83797454  0.84226130  0.35223424
   0.36052706  0.63927861  0.02656104
   0.27805982  0.64569368  0.64659412
   0.20627966  0.71774102  0.33561404
   0.13859999  0.73078030  0.01822544
   0.07791585  0.80865954  0.65778678
   0.99026093  0.81982922  0.33704742
   0.92414738  0.86640270  0.00158512
   0.43996108  0.64205458  0.69285400
   0.35587726  0.72766209  0.33896329
   0.28725918  0.74923905  0.00389998
   0.24111363  0.77723836  0.67163972
   0.12980374  0.81257399  0.35415559
   0.08925831  0.87749628  0.01369597
   0.00430102  0.92275913  0.65439859
   0.92907255  0.93370447  0.34353345
   0.87705196  0.02057341  0.02265959
   0.81825992  0.02823848  0.69649831
   0.70098261  0.09137487  0.34624223
   0.64977370  0.09622073  0.01366332
   0.59263081  0.16068940  0.64933720
   0.47621032  0.19932524  0.32663005
   0.07173225  0.93610005  0.33967422
   0.16171991  0.00439009  0.00917661
   0.20073312  0.04189344  0.65525619
   0.27159115  0.06945976  0.34842058
   0.38525764  0.11134513  0.01324547
   0.42940320  0.15357213  0.64688830
   0.87503467  0.92368295  0.68617599
   0.75744968  0.96300739  0.32925273
   0.72584229  0.00773945  0.01064915
   0.68157723  0.02952743  0.65171729
   0.55587519  0.08506569  0.32374611
   0.50871878  0.11971476  0.99306176
   0.16425563  0.89925075  0.66204427
   0.19353400  0.92016411  0.34100622
   0.26861918  0.00474069  0.99820335
   0.36517056  0.06667228  0.66672995
   0.42773865  0.07157645  0.31301156
   0.78620447  0.88848074  0.01766280
   0.73111253  0.91355100  0.68321292
   0.61905314  0.95293428  0.33360227
   0.55530272  0.97979054  0.00577697
   0.51261065  0.04300552  0.62890533
   0.20372851  0.85980883  0.00328496
   0.30081507  0.92396494  0.66728431
   0.32625703  0.94658463  0.33654592
   0.42889704  0.99055048  0.99465638
   0.69485636  0.84270185  0.34828630
   0.65663864  0.87882201  0.98583248
   0.56491210  0.91525701  0.67457793
   0.47423371  0.95580450  0.32193117
   0.28526033  0.86179583  0.34892473
   0.35290364  0.88544832  0.00776623
   0.42382270  0.92330218  0.66283580
   0.64274589  0.78748859  0.68141925
   0.55071835  0.86573805  0.33480671
   0.51826379  0.88443417  0.00252730
   0.35626329  0.76604690  0.67454358
   0.40916663  0.81952463  0.35877340
   0.59409104  0.76371658  0.99997097
   0.50528474  0.77094323  0.66896040
   0.44689142  0.75294613  0.99594613
   0.51466131  0.72440821  0.32674132
   0.00675652  0.00917021  0.75766217
   0.93112648  0.05400873  0.45927534
   0.85493940  0.09680665  0.12106002
   0.78811138  0.14175495  0.77399264
   0.70859832  0.16266603  0.44109173
   0.63215206  0.19928573  0.12036636
   0.58670050  0.25251623  0.76808816
   0.47470856  0.29005914  0.43245056
   0.39980798  0.34317028  0.10452247
   0.36290871  0.39399556  0.77114063
   0.29136460  0.42030439  0.41920391
   0.19739389  0.45363479  0.11041639
   0.07862883  0.01695867  0.43696087
   0.00429993  0.08357368  0.13408610
   0.94867284  0.12263498  0.77628202
   0.83846044  0.16025857  0.43003308
   0.78902649  0.20633196  0.12982998
   0.73386858  0.22129785  0.77090344
   0.63333561  0.26910289  0.42955687
   0.55550638  0.34716588  0.08569790
   0.50648072  0.36338939  0.76693377
   0.41863269  0.42529787  0.45686976
   0.34355461  0.46717005  0.10423862
   0.28344072  0.49962564  0.77873512
   0.15268724  0.06030621  0.12935767
   0.10069773  0.10033314  0.78238854
   0.97645365  0.16731961  0.43781362
   0.92432599  0.19895565  0.11954639
   0.89785249  0.22535135  0.75054983
   0.76343456  0.28550280  0.42964572
   0.74372993  0.31586268  0.09920180
   0.66244256  0.38717607  0.79463225
   0.54918213  0.42043012  0.43516934
   0.46513860  0.44819368  0.11762912
   0.43460513  0.51202759  0.78183041
   0.35684561  0.53703488  0.45055597
   0.22915578  0.10649570  0.77031396
   0.16137338  0.15489070  0.44302223
   0.05013758  0.22191423  0.10657669
   0.01828052  0.23669969  0.78419373
   0.90673695  0.30334399  0.43291656
   0.86622982  0.33476169  0.07709071
   0.80068140  0.36971965  0.76085253
   0.69835120  0.40468403  0.43954299
   0.64235460  0.42899305  0.10054591
   0.58033170  0.50841175  0.76120098
   0.49781808  0.54959852  0.44728416
   0.41652275  0.57794612  0.11696324
   0.28381559  0.17434942  0.44899394
   0.18512879  0.19859072  0.12561702
   0.15164115  0.25251797  0.78481089
   0.05067888  0.29434201  0.43903694
   0.00175359  0.34902044  0.09164234
   0.94575764  0.36221472  0.76079494
   0.85075777  0.40971721  0.44049750
   0.77525833  0.46678717  0.08780965
   0.72704869  0.51534417  0.76602057
   0.66072484  0.54969615  0.41144952
   0.55865797  0.56029745  0.12222716
   0.51835662  0.64023936  0.77553693
   0.36116196  0.19251664  0.12890380
   0.29344213  0.24585953  0.76181376
   0.22245054  0.30668036  0.44125719
   0.11452309  0.36540524  0.11439827
   0.06178583  0.37666278  0.78687314
   0.99649848  0.43762142  0.42610858
   0.91971171  0.45801939  0.10325541
   0.87112954  0.52843520  0.76324096
   0.79970671  0.55314157  0.42550826
   0.70239171  0.58028919  0.12815989
   0.62395925  0.62763431  0.76547317
   0.56582464  0.66445701  0.44426876
   0.42035960  0.27193691  0.75852411
   0.34566282  0.28804971  0.42596967
   0.26244598  0.33376902  0.10947716
   0.21170080  0.39668490  0.80002348
   0.14610229  0.44023294  0.42841918
   0.06650435  0.50174541  0.10328646
   0.98692383  0.48256482  0.77569218
   0.92720700  0.52775901  0.44415790
   0.83645083  0.58506393  0.10159907
   0.79805461  0.63850579  0.79363579
   0.72573224  0.68410921  0.45145056
   0.62652388  0.70872467  0.11499753
   0.15662082  0.48214874  0.77980655
   0.06669938  0.54301865  0.44414717
   0.98418793  0.59631028  0.10332865
   0.93146772  0.64444294  0.79479009
   0.85200464  0.67500271  0.44235415
   0.75355854  0.69027062  0.11453808
   0.71743552  0.75044364  0.79825308
   0.22628260  0.54207251  0.42981113
   0.14334270  0.60212926  0.10852759
   0.07087174  0.59599772  0.79402114
   0.99528570  0.64308047  0.44575902
   0.90662864  0.72042032  0.12058312
   0.86472725  0.74965816  0.79129422
   0.78892019  0.78484221  0.46611217
   0.25778621  0.59360455  0.11764767
   0.22032394  0.62050687  0.78434012
   0.14453462  0.66587653  0.45178283
   0.05692573  0.70585228  0.12985276
   0.01231460  0.74727742  0.80086097
   0.95052115  0.79738547  0.45084407
   0.82410823  0.83325250  0.10904963
   0.35162573  0.62000549  0.77864028
   0.28231002  0.67717312  0.43333096
   0.21352847  0.73320668  0.13019548
   0.14825920  0.74944973  0.77538219
   0.06513503  0.75279985  0.46505156
   0.97333072  0.82849037  0.10676933
   0.92144001  0.88472744  0.79022766
   0.39608665  0.66687203  0.45298843
   0.36799615  0.69867336  0.09711031
   0.27879641  0.73689309  0.79197109
   0.22432815  0.79579796  0.45472705
   0.14062913  0.83172150  0.12537866
   0.08265742  0.89098634  0.78364680
   0.99765728  0.90326757  0.47252553
   0.90081090  0.94671150  0.12117334
   0.85268293  0.02514589  0.80267059
   0.77655896  0.00237426  0.45342204
   0.74201050  0.10923737  0.12109381
   0.64666625  0.12064215  0.78278279
   0.54547136  0.15662067  0.44757112
   0.50113470  0.20812235  0.10995273
   0.05955748  0.95826965  0.13968266
   0.15988028  0.98794739  0.76251218
   0.21941524  0.04783706  0.46017034
   0.28642739  0.07766586  0.11150337
   0.37737856  0.14315211  0.79286836
   0.41628011  0.16530079  0.44699126
   0.87328702  0.92025027  0.45456609
   0.75097171  0.95324144  0.11398522
   0.72161963  0.01504709  0.78227576
   0.64243036  0.02655769  0.45590327
   0.56953854  0.08465546  0.12151796
   0.50918350  0.14373930  0.77218854
   0.12902014  0.88656653  0.43487042
   0.21585915  0.93385743  0.09870601
   0.29677425  0.00225735  0.77618082
   0.36554452  0.05232796  0.46247346
   0.46614677  0.06316724  0.11317262
   0.77990139  0.85733053  0.80021398
   0.72860856  0.90162148  0.45952475
   0.63710858  0.97863629  0.10461836
   0.57189602  0.99847859  0.76457349
   0.50148134  0.05326204  0.46132302
   0.23486053  0.85237959  0.77355850
   0.25819462  0.93296827  0.47489099
   0.34787838  0.96254338  0.08198611
   0.44197645  0.02240823  0.75689089
   0.69533482  0.84277668  0.09852062
   0.63591159  0.88060962  0.78221091
   0.57210199  0.92233747  0.44490984
   0.50988964  0.95585122  0.13298395
   0.31642361  0.83318757  0.13686110
   0.39328729  0.86577248  0.78157461
   0.42992123  0.93115975  0.42480500
   0.64804249  0.78959880  0.45352550
   0.55926131  0.84320427  0.10669118
   0.50484080  0.84596566  0.76432039
   0.34728539  0.81682850  0.45896743
   0.43783244  0.82324930  0.11626828
   0.59987316  0.77894559  0.79101359
   0.51126663  0.80039523  0.45190995
   0.44912764  0.73714399  0.77394900
   0.51119316  0.70654318  0.08534911
   0.98608631  0.98174048  0.22132740
   0.94629624  0.04392716  0.89208188
   0.88527958  0.10218084  0.56365425
   0.80559465  0.14461273  0.25031430
   0.71564786  0.17765931  0.89073458
   0.64152829  0.18695960  0.54196319
   0.56549230  0.24746348  0.22942725
   0.51129706  0.28081161  0.88858364
   0.43618237  0.32542255  0.54863415
   0.34850924  0.38576069  0.19820165
   0.29941490  0.44149645  0.89130025
   0.22829754  0.44161336  0.52588609
   0.07182605  0.01507591  0.87981884
   0.03056872  0.07521966  0.55992945
   0.93028650  0.13748538  0.23443516
   0.85939003  0.15328809  0.88638653
   0.80411853  0.21522485  0.55448332
   0.69462977  0.27552739  0.22795733
   0.66548673  0.28766042  0.85255679
   0.59032226  0.35083293  0.53707236
   0.49836932  0.37521915  0.22660839
   0.43785718  0.40616607  0.86991747
   0.35730132  0.45103699  0.55450070
   0.25702350  0.50276242  0.20110314
   0.13087402  0.07417684  0.54064391
   0.06170155  0.12753414  0.20833754
   0.02353840  0.15917861  0.87474500
   0.94615750  0.19728120  0.53137897
   0.85975896  0.28278638  0.23575520
   0.79046511  0.30404082  0.85303489
   0.70074926  0.32759798  0.54232698
   0.60839584  0.36934916  0.20863387
   0.60116971  0.41673882  0.89709993
   0.51104077  0.44576532  0.55775741
   0.41624079  0.50116849  0.22758043
   0.37428754  0.53696391  0.90315234
   0.17916874  0.12394703  0.23176937
   0.14570110  0.15550520  0.89394329
   0.08051937  0.19951730  0.57756062
   0.99077854  0.25915003  0.20353409
   0.92578587  0.28068766  0.89022631
   0.85824416  0.32725246  0.56960984
   0.77543724  0.37757648  0.22084053
   0.73274713  0.43426590  0.87988557
   0.65732311  0.45361285  0.55387114
   0.55050017  0.50173322  0.19581117
   0.52403490  0.52331556  0.87425729
   0.44890688  0.58387266  0.56710761
   0.30340837  0.17248539  0.89552907
   0.20414996  0.17645470  0.55867805
   0.15294597  0.27019755  0.21711031
   0.08132874  0.29746788  0.89848614
   0.97940992  0.31733994  0.53435519
   0.91482477  0.37617859  0.20740853
   0.89308756  0.43762427  0.86807399
   0.81747463  0.44470938  0.55068918
   0.68771298  0.50565423  0.21419291
   0.65120727  0.56203926  0.85965336
   0.56975230  0.58350665  0.54250591
   0.48879826  0.61801120  0.21222850
   0.36954442  0.19034928  0.53935401
   0.28571188  0.24242586  0.22812139
   0.24331173  0.29451147  0.88951597
   0.16333235  0.30146105  0.55521378
   0.03527381  0.39646940  0.22080133
   0.02385793  0.43141615  0.87788858
   0.94888765  0.44020919  0.53616957
   0.84742462  0.51329770  0.19718109
   0.78467623  0.55339043  0.86642236
   0.71679286  0.58003027  0.54199645
   0.62517229  0.64153153  0.23616394
   0.55119505  0.68266665  0.88685957
   0.40887042  0.26267204  0.22803548
   0.36349284  0.29219298  0.88277605
   0.29979299  0.31878010  0.52499989
   0.18469767  0.38360748  0.23508262
   0.14733740  0.42551169  0.89661609
   0.10010837  0.43350016  0.54748758
   0.97869737  0.52066025  0.21600473
   0.93380448  0.56353372  0.86765431
   0.85806846  0.57961797  0.53829258
   0.80159196  0.64645418  0.22664969
   0.70822861  0.69299609  0.89022810
   0.64698686  0.71912941  0.56271884
   0.12106835  0.51037604  0.19823779
   0.05859561  0.52868376  0.87638262
   0.03629831  0.56099517  0.54490679
   0.90211331  0.63618263  0.19216274
   0.84996009  0.66854253  0.90284511
   0.79024125  0.68533170  0.57340212
   0.70456903  0.75883129  0.22495071
   0.22069652  0.53540548  0.88551257
   0.14874156  0.57160049  0.56800508
   0.04188497  0.62618713  0.23026888
   0.99862877  0.68142490  0.91620076
   0.94083407  0.69674940  0.56884784
   0.83222189  0.77548489  0.24199915
   0.81675630  0.79791770  0.90515980
   0.28392385  0.58956745  0.54514504
   0.20080296  0.61175943  0.23041929
   0.13918955  0.66034255  0.88630080
   0.07416644  0.71245378  0.57180961
   0.99040555  0.76109631  0.21872162
   0.94014152  0.80442617  0.90383400
   0.87772081  0.84003631  0.57086250
   0.35022022  0.61552274  0.21476325
   0.28532737  0.65628223  0.90916464
   0.18655027  0.70833215  0.54855491
   0.11748865  0.72287951  0.24443390
   0.08985651  0.82660917  0.91937904
   0.99965040  0.81866517  0.56933382
   0.90817111  0.85674200  0.23724146
   0.43234868  0.64634187  0.87660664
   0.31764317  0.70140971  0.54506009
   0.28374653  0.72618328  0.24033241
   0.21213438  0.80258902  0.91270482
   0.15044751  0.82215433  0.56570953
   0.06210711  0.85806775  0.23063407
   0.99235521  0.92916056  0.88116381
   0.92979959  0.97486565  0.57311788
   0.85202872  0.02202836  0.24114264
   0.79824078  0.02909371  0.89365390
   0.73961559  0.07325579  0.56009194
   0.64320491  0.13721845  0.23634515
   0.57510554  0.15258281  0.90153248
   0.50230108  0.17600066  0.54750950
   0.07483831  0.94512435  0.55249180
   0.12161547  0.99984371  0.25416947
   0.21061835  0.04489410  0.89261616
   0.28104393  0.09287774  0.55914410
   0.33892501  0.11358418  0.24103365
   0.44234408  0.16221327  0.89089768
   0.84840884  0.94450973  0.92757357
   0.79794538  0.94112696  0.58074728
   0.69935174  0.01059855  0.21671546
   0.65144175  0.03142989  0.90206881
   0.59150434  0.07501627  0.55767187
   0.48295381  0.13024158  0.23983904
   0.16333620  0.91995636  0.90007472
   0.20233683  0.95745505  0.55438950
   0.24431950  0.97497585  0.21141496
   0.34099644  0.03692735  0.87331354
   0.43204840  0.07957292  0.55539953
   0.77127377  0.88491526  0.21237574
   0.71099181  0.89687334  0.88662830
   0.65602701  0.93307136  0.55815348
   0.56216620  0.00399560  0.22930821
   0.49516122  0.06576419  0.89167269
   0.20698829  0.84778650  0.23659907
   0.27807177  0.90007322  0.90189358
   0.34836187  0.96447975  0.56716382
   0.40866701  0.00005349  0.20908357
   0.72187289  0.79885754  0.57920750
   0.61811750  0.88522973  0.20335686
   0.56090351  0.91590036  0.86674463
   0.48908814  0.96492051  0.53976940
   0.26298426  0.84991451  0.55893979
   0.36385145  0.87563263  0.23049198
   0.42671736  0.93627015  0.89034806
   0.67653922  0.80216387  0.88022381
   0.56068752  0.82350331  0.56256231
   0.48176156  0.87713590  0.22233129
   0.36334205  0.77754470  0.90289858
   0.40984838  0.82388916  0.55451505
   0.55017296  0.76171170  0.22651768
   0.51191685  0.80145523  0.89912882
   0.41619359  0.73161000  0.21417145
   0.47629374  0.67756386  0.56442897
