 504 504   0   0
  0.2301818E+02  0.2235821E-08  0.2212889E-08  0.2344795E-08  0.5000000E-15
  1.000000000000000E-004
  CAR 
 Li                                      
      2.82625076     -3.56909918  301      0.07822670      1.00000000
     -3.569  0.0000E+00  0.0000E+00
     -3.548  0.0000E+00  0.0000E+00
     -3.526  0.0000E+00  0.0000E+00
     -3.505  0.0000E+00  0.0000E+00
     -3.484  0.0000E+00  0.0000E+00
     -3.463  0.0000E+00  0.0000E+00
     -3.441  0.2083E-13  0.4441E-15
     -3.420  0.5012E-10  0.1069E-11
     -3.399  0.4483E-07  0.9567E-09
     -3.377  0.1494E-04  0.3195E-06
     -3.356  0.1868E-02  0.4013E-04
     -3.335  0.8834E-01  0.1923E-02
     -3.313  0.1598E+01  0.3600E-01
     -3.292  0.1120E+02  0.2748E+00
     -3.271  0.3076E+02  0.9305E+00
     -3.249  0.3336E+02  0.1642E+01
     -3.228  0.1480E+02  0.1957E+01
     -3.207  0.8255E+01  0.2133E+01
     -3.185  0.2913E+02  0.2754E+01
     -3.164  0.7019E+02  0.4250E+01
     -3.143  0.9010E+02  0.6171E+01
     -3.121  0.6155E+02  0.7483E+01
     -3.100  0.2355E+02  0.7985E+01
     -3.079  0.2241E+02  0.8463E+01
     -3.057  0.5977E+02  0.9737E+01
     -3.036  0.8782E+02  0.1161E+02
     -3.015  0.7046E+02  0.1311E+02
     -2.994  0.3764E+02  0.1391E+02
     -2.972  0.3207E+02  0.1460E+02
     -2.951  0.6142E+02  0.1591E+02
     -2.930  0.9686E+02  0.1797E+02
     -2.908  0.1038E+03  0.2018E+02
     -2.887  0.6867E+02  0.2165E+02
     -2.866  0.4823E+02  0.2268E+02
     -2.844  0.8363E+02  0.2446E+02
     -2.823  0.1288E+03  0.2721E+02
     -2.802  0.1371E+03  0.3013E+02
     -2.780  0.1069E+03  0.3241E+02
     -2.759  0.5998E+02  0.3369E+02
     -2.738  0.3962E+02  0.3453E+02
     -2.716  0.6456E+02  0.3591E+02
     -2.695  0.8750E+02  0.3777E+02
     -2.674  0.7436E+02  0.3936E+02
     -2.652  0.5672E+02  0.4057E+02
     -2.631  0.6667E+02  0.4199E+02
     -2.610  0.9228E+02  0.4396E+02
     -2.588  0.1173E+03  0.4646E+02
     -2.567  0.1268E+03  0.4916E+02
     -2.546  0.1151E+03  0.5161E+02
     -2.525  0.1074E+03  0.5390E+02
     -2.503  0.1187E+03  0.5643E+02
     -2.482  0.1426E+03  0.5947E+02
     -2.461  0.1711E+03  0.6312E+02
     -2.439  0.1685E+03  0.6671E+02
     -2.418  0.1249E+03  0.6937E+02
     -2.397  0.7732E+02  0.7102E+02
     -2.375  0.4926E+02  0.7207E+02
     -2.354  0.5481E+02  0.7324E+02
     -2.333  0.7469E+02  0.7483E+02
     -2.311  0.7913E+02  0.7652E+02
     -2.290  0.9500E+02  0.7854E+02
     -2.269  0.1166E+03  0.8103E+02
     -2.247  0.1375E+03  0.8396E+02
     -2.226  0.1500E+03  0.8716E+02
     -2.205  0.1345E+03  0.9003E+02
     -2.183  0.1143E+03  0.9246E+02
     -2.162  0.1172E+03  0.9496E+02
     -2.141  0.1459E+03  0.9807E+02
     -2.119  0.1792E+03  0.1019E+03
     -2.098  0.1822E+03  0.1058E+03
     -2.077  0.1500E+03  0.1090E+03
     -2.056  0.1019E+03  0.1111E+03
     -2.034  0.7060E+02  0.1127E+03
     -2.013  0.8725E+02  0.1145E+03
     -1.992  0.1211E+03  0.1171E+03
     -1.970  0.1359E+03  0.1200E+03
     -1.949  0.1385E+03  0.1229E+03
     -1.928  0.1487E+03  0.1261E+03
     -1.906  0.1607E+03  0.1295E+03
     -1.885  0.1666E+03  0.1331E+03
     -1.864  0.1695E+03  0.1367E+03
     -1.842  0.1628E+03  0.1402E+03
     -1.821  0.1483E+03  0.1433E+03
     -1.800  0.1418E+03  0.1464E+03
     -1.778  0.1476E+03  0.1495E+03
     -1.757  0.1629E+03  0.1530E+03
     -1.736  0.1572E+03  0.1563E+03
     -1.714  0.1270E+03  0.1590E+03
     -1.693  0.1045E+03  0.1613E+03
     -1.672  0.1059E+03  0.1635E+03
     -1.650  0.1190E+03  0.1661E+03
     -1.629  0.1166E+03  0.1685E+03
     -1.608  0.1125E+03  0.1709E+03
     -1.587  0.1349E+03  0.1738E+03
     -1.565  0.1581E+03  0.1772E+03
     -1.544  0.1628E+03  0.1807E+03
     -1.523  0.1653E+03  0.1842E+03
     -1.501  0.1673E+03  0.1878E+03
     -1.480  0.1684E+03  0.1913E+03
     -1.459  0.1786E+03  0.1951E+03
     -1.437  0.2061E+03  0.1995E+03
     -1.416  0.2290E+03  0.2044E+03
     -1.395  0.2185E+03  0.2091E+03
     -1.373  0.1999E+03  0.2133E+03
     -1.352  0.1949E+03  0.2175E+03
     -1.331  0.1805E+03  0.2213E+03
     -1.309  0.1609E+03  0.2248E+03
     -1.288  0.1497E+03  0.2280E+03
     -1.267  0.1338E+03  0.2308E+03
     -1.245  0.1219E+03  0.2334E+03
     -1.224  0.1358E+03  0.2363E+03
     -1.203  0.1596E+03  0.2397E+03
     -1.182  0.1683E+03  0.2433E+03
     -1.160  0.1697E+03  0.2469E+03
     -1.139  0.1743E+03  0.2506E+03
     -1.118  0.1825E+03  0.2545E+03
     -1.096  0.1926E+03  0.2586E+03
     -1.075  0.2000E+03  0.2629E+03
     -1.054  0.1842E+03  0.2668E+03
     -1.032  0.1490E+03  0.2700E+03
     -1.011  0.1300E+03  0.2728E+03
     -0.990  0.1434E+03  0.2758E+03
     -0.968  0.1694E+03  0.2794E+03
     -0.947  0.1749E+03  0.2832E+03
     -0.926  0.1643E+03  0.2867E+03
     -0.904  0.1732E+03  0.2904E+03
     -0.883  0.2002E+03  0.2946E+03
     -0.862  0.2313E+03  0.2996E+03
     -0.840  0.2447E+03  0.3048E+03
     -0.819  0.2268E+03  0.3096E+03
     -0.798  0.2082E+03  0.3140E+03
     -0.776  0.2182E+03  0.3187E+03
     -0.755  0.2368E+03  0.3237E+03
     -0.734  0.2404E+03  0.3289E+03
     -0.713  0.2277E+03  0.3337E+03
     -0.691  0.2035E+03  0.3381E+03
     -0.670  0.1669E+03  0.3416E+03
     -0.649  0.1495E+03  0.3448E+03
     -0.627  0.1680E+03  0.3484E+03
     -0.606  0.1882E+03  0.3524E+03
     -0.585  0.1950E+03  0.3566E+03
     -0.563  0.1916E+03  0.3607E+03
     -0.542  0.1855E+03  0.3646E+03
     -0.521  0.1871E+03  0.3686E+03
     -0.499  0.1975E+03  0.3728E+03
     -0.478  0.2043E+03  0.3772E+03
     -0.457  0.2036E+03  0.3815E+03
     -0.435  0.2125E+03  0.3860E+03
     -0.414  0.2301E+03  0.3909E+03
     -0.393  0.2429E+03  0.3961E+03
     -0.371  0.2501E+03  0.4014E+03
     -0.350  0.2467E+03  0.4067E+03
     -0.329  0.2386E+03  0.4118E+03
     -0.307  0.2371E+03  0.4168E+03
     -0.286  0.2309E+03  0.4218E+03
     -0.265  0.2254E+03  0.4266E+03
     -0.244  0.2261E+03  0.4314E+03
     -0.222  0.2198E+03  0.4361E+03
     -0.201  0.2140E+03  0.4406E+03
     -0.180  0.2232E+03  0.4454E+03
     -0.158  0.2256E+03  0.4502E+03
     -0.137  0.2096E+03  0.4547E+03
     -0.116  0.1953E+03  0.4588E+03
     -0.094  0.1850E+03  0.4628E+03
     -0.073  0.1907E+03  0.4669E+03
     -0.052  0.2167E+03  0.4715E+03
     -0.030  0.2318E+03  0.4764E+03
     -0.009  0.2333E+03  0.4814E+03
      0.012  0.2403E+03  0.4865E+03
      0.034  0.2575E+03  0.4920E+03
      0.055  0.2694E+03  0.4977E+03
      0.076  0.2686E+03  0.5035E+03
      0.098  0.2763E+03  0.5094E+03
      0.119  0.2924E+03  0.5156E+03
      0.140  0.2946E+03  0.5219E+03
      0.162  0.2871E+03  0.5280E+03
      0.183  0.2785E+03  0.5339E+03
      0.204  0.2764E+03  0.5398E+03
      0.225  0.2834E+03  0.5459E+03
      0.247  0.2813E+03  0.5519E+03
      0.268  0.2709E+03  0.5576E+03
      0.289  0.2657E+03  0.5633E+03
      0.311  0.2537E+03  0.5687E+03
      0.332  0.2464E+03  0.5740E+03
      0.353  0.2503E+03  0.5793E+03
      0.375  0.2520E+03  0.5847E+03
      0.396  0.2446E+03  0.5899E+03
      0.417  0.2275E+03  0.5947E+03
      0.439  0.2152E+03  0.5993E+03
      0.460  0.2190E+03  0.6040E+03
      0.481  0.2258E+03  0.6088E+03
      0.503  0.2202E+03  0.6135E+03
      0.524  0.2163E+03  0.6181E+03
      0.545  0.2237E+03  0.6229E+03
      0.567  0.2312E+03  0.6278E+03
      0.588  0.2356E+03  0.6328E+03
      0.609  0.2413E+03  0.6380E+03
      0.631  0.2502E+03  0.6433E+03
      0.652  0.2516E+03  0.6487E+03
      0.673  0.2554E+03  0.6541E+03
      0.694  0.2657E+03  0.6598E+03
      0.716  0.2648E+03  0.6654E+03
      0.737  0.2535E+03  0.6708E+03
      0.758  0.2428E+03  0.6760E+03
      0.780  0.2440E+03  0.6812E+03
      0.801  0.2526E+03  0.6866E+03
      0.822  0.2492E+03  0.6919E+03
      0.844  0.2385E+03  0.6970E+03
      0.865  0.2349E+03  0.7020E+03
      0.886  0.2369E+03  0.7070E+03
      0.908  0.2351E+03  0.7121E+03
      0.929  0.2300E+03  0.7170E+03
      0.950  0.2302E+03  0.7219E+03
      0.972  0.2291E+03  0.7267E+03
      0.993  0.2261E+03  0.7316E+03
      1.014  0.2298E+03  0.7365E+03
      1.036  0.2305E+03  0.7414E+03
      1.057  0.2225E+03  0.7461E+03
      1.078  0.2286E+03  0.7510E+03
      1.100  0.2384E+03  0.7561E+03
      1.121  0.2428E+03  0.7613E+03
      1.142  0.2486E+03  0.7666E+03
      1.163  0.2391E+03  0.7717E+03
      1.185  0.2277E+03  0.7765E+03
      1.206  0.2318E+03  0.7814E+03
      1.227  0.2384E+03  0.7865E+03
      1.249  0.2347E+03  0.7915E+03
      1.270  0.2284E+03  0.7964E+03
      1.291  0.2314E+03  0.8013E+03
      1.313  0.2382E+03  0.8064E+03
      1.334  0.2386E+03  0.8115E+03
      1.355  0.2299E+03  0.8164E+03
      1.377  0.2263E+03  0.8212E+03
      1.398  0.2315E+03  0.8262E+03
      1.419  0.2295E+03  0.8311E+03
      1.441  0.2145E+03  0.8356E+03
      1.462  0.2051E+03  0.8400E+03
      1.483  0.2117E+03  0.8445E+03
      1.505  0.2166E+03  0.8491E+03
      1.526  0.2147E+03  0.8537E+03
      1.547  0.2124E+03  0.8582E+03
      1.568  0.2112E+03  0.8627E+03
      1.590  0.2062E+03  0.8671E+03
      1.611  0.2015E+03  0.8714E+03
      1.632  0.1995E+03  0.8757E+03
      1.654  0.1987E+03  0.8799E+03
      1.675  0.1936E+03  0.8840E+03
      1.696  0.1895E+03  0.8881E+03
      1.718  0.1868E+03  0.8921E+03
      1.739  0.1795E+03  0.8959E+03
      1.760  0.1741E+03  0.8996E+03
      1.782  0.1796E+03  0.9034E+03
      1.803  0.1764E+03  0.9072E+03
      1.824  0.1625E+03  0.9107E+03
      1.846  0.1620E+03  0.9141E+03
      1.867  0.1675E+03  0.9177E+03
      1.888  0.1678E+03  0.9213E+03
      1.910  0.1704E+03  0.9249E+03
      1.931  0.1697E+03  0.9285E+03
      1.952  0.1587E+03  0.9319E+03
      1.974  0.1531E+03  0.9352E+03
      1.995  0.1566E+03  0.9385E+03
      2.016  0.1550E+03  0.9418E+03
      2.037  0.1505E+03  0.9450E+03
      2.059  0.1481E+03  0.9482E+03
      2.080  0.1424E+03  0.9512E+03
      2.101  0.1409E+03  0.9542E+03
      2.123  0.1419E+03  0.9572E+03
      2.144  0.1432E+03  0.9603E+03
      2.165  0.1513E+03  0.9635E+03
      2.187  0.1581E+03  0.9669E+03
      2.208  0.1525E+03  0.9701E+03
      2.229  0.1480E+03  0.9733E+03
      2.251  0.1511E+03  0.9765E+03
      2.272  0.1497E+03  0.9797E+03
      2.293  0.1404E+03  0.9827E+03
      2.315  0.1266E+03  0.9854E+03
      2.336  0.1176E+03  0.9879E+03
      2.357  0.1220E+03  0.9905E+03
      2.379  0.1331E+03  0.9933E+03
      2.400  0.1303E+03  0.9961E+03
      2.421  0.1203E+03  0.9987E+03
      2.443  0.1206E+03  0.1001E+04
      2.464  0.1226E+03  0.1004E+04
      2.485  0.1129E+03  0.1006E+04
      2.506  0.8881E+02  0.1008E+04
      2.528  0.5606E+02  0.1009E+04
      2.549  0.2386E+02  0.1010E+04
      2.570  0.5609E+01  0.1010E+04
      2.592  0.6274E+00  0.1010E+04
      2.613  0.3025E-01  0.1010E+04
      2.634  0.5917E-03  0.1010E+04
      2.656  0.4526E-05  0.1010E+04
      2.677  0.1324E-07  0.1010E+04
      2.698  0.1462E-10  0.1010E+04
      2.720  0.5208E-14  0.1010E+04
      2.741  0.0000E+00  0.1010E+04
      2.762  0.0000E+00  0.1010E+04
      2.784  0.0000E+00  0.1010E+04
      2.805  0.0000E+00  0.1010E+04
      2.826  0.0000E+00  0.1010E+04
