       N       E                     dE             d eps       ncg     rms          rms(c)
DAV:   1    -0.308278266152E+03   -0.30828E+03   -0.11804E+05  4040   0.644E+02
DAV:   2    -0.875244333462E+03   -0.56697E+03   -0.51877E+03  4660   0.639E+01
DAV:   3    -0.917055094919E+03   -0.41811E+02   -0.38294E+02  5240   0.137E+01
DAV:   4    -0.918553436648E+03   -0.14983E+01   -0.14744E+01  4720   0.282E+00
DAV:   5    -0.918589244750E+03   -0.35808E-01   -0.35737E-01  4888   0.461E-01    0.950E+00
DAV:   6    -0.913767913357E+03    0.48213E+01   -0.10304E+01  4776   0.421E+00    0.739E+00
DAV:   7    -0.908877268081E+03    0.48906E+01   -0.98679E+00  4856   0.434E+00    0.524E+00
DAV:   8    -0.905798310095E+03    0.30790E+01   -0.57953E+00  4712   0.265E+00    0.315E+00
DAV:   9    -0.905309179424E+03    0.48913E+00   -0.33486E+00  4672   0.177E+00    0.213E+00
DAV:  10    -0.904809853723E+03    0.49933E+00   -0.15892E+00  4680   0.122E+00    0.114E+00
DAV:  11    -0.904759688591E+03    0.50165E-01   -0.49198E-01  4424   0.561E-01    0.692E-01
DAV:  12    -0.904787539764E+03   -0.27851E-01   -0.11142E-01  5024   0.387E-01    0.670E-01
DAV:  13    -0.904733613649E+03    0.53926E-01   -0.60600E-02  4880   0.289E-01    0.300E-01
DAV:  14    -0.904733195437E+03    0.41821E-03   -0.22621E-02  4608   0.144E-01    0.187E-01
DAV:  15    -0.904732938132E+03    0.25731E-03   -0.10604E-02  4640   0.112E-01    0.145E-01
DAV:  16    -0.904730493802E+03    0.24443E-02   -0.39364E-03  4576   0.682E-02    0.619E-02
DAV:  17    -0.904730396398E+03    0.97404E-04   -0.11759E-03  4408   0.303E-02    0.362E-02
DAV:  18    -0.904730363859E+03    0.32538E-04   -0.38224E-04  4808   0.210E-02    0.279E-02
DAV:  19    -0.904730288303E+03    0.75556E-04   -0.14332E-04  4632   0.134E-02    0.151E-02
DAV:  20    -0.904730267514E+03    0.20790E-04   -0.60771E-05  4488   0.741E-03    0.688E-03
DAV:  21    -0.904730265606E+03    0.19074E-05   -0.19955E-05  2616   0.398E-03
   1 F= -.90473027E+03 E0= -.90466948E+03  d E =-.121567E+00
