 500 500   0   0
  0.2349479E+02  0.2273250E-08  0.2273250E-08  0.2273250E-08  0.5000000E-15
  1.000000000000000E-004
  CAR 
 Li                                      
      2.74050578     -3.59305570  301      0.03005541      1.00000000
     -3.593  0.0000E+00  0.0000E+00
     -3.572  0.0000E+00  0.0000E+00
     -3.551  0.0000E+00  0.0000E+00
     -3.530  0.0000E+00  0.0000E+00
     -3.509  0.0000E+00  0.0000E+00
     -3.487  0.0000E+00  0.0000E+00
     -3.466  0.1578E-13  0.3331E-15
     -3.445  0.3312E-10  0.6995E-12
     -3.424  0.2951E-07  0.6237E-09
     -3.403  0.9979E-05  0.2113E-06
     -3.382  0.1289E-02  0.2742E-04
     -3.361  0.6410E-01  0.1381E-02
     -3.340  0.1240E+01  0.2756E-01
     -3.319  0.9444E+01  0.2270E+00
     -3.297  0.2863E+02  0.8313E+00
     -3.276  0.3481E+02  0.1566E+01
     -3.255  0.1746E+02  0.1935E+01
     -3.234  0.8941E+01  0.2124E+01
     -3.213  0.2872E+02  0.2730E+01
     -3.192  0.6635E+02  0.4131E+01
     -3.171  0.8196E+02  0.5861E+01
     -3.150  0.6330E+02  0.7197E+01
     -3.129  0.3320E+02  0.7898E+01
     -3.107  0.2716E+02  0.8472E+01
     -3.086  0.5563E+02  0.9646E+01
     -3.065  0.7831E+02  0.1130E+02
     -3.044  0.7004E+02  0.1278E+02
     -3.023  0.4458E+02  0.1372E+02
     -3.002  0.3129E+02  0.1438E+02
     -2.981  0.5547E+02  0.1555E+02
     -2.960  0.9211E+02  0.1750E+02
     -2.939  0.1001E+03  0.1961E+02
     -2.917  0.7550E+02  0.2120E+02
     -2.896  0.5274E+02  0.2232E+02
     -2.875  0.7182E+02  0.2383E+02
     -2.854  0.1136E+03  0.2623E+02
     -2.833  0.1314E+03  0.2901E+02
     -2.812  0.1200E+03  0.3154E+02
     -2.791  0.8145E+02  0.3326E+02
     -2.770  0.4261E+02  0.3416E+02
     -2.749  0.5184E+02  0.3525E+02
     -2.727  0.8679E+02  0.3709E+02
     -2.706  0.8386E+02  0.3886E+02
     -2.685  0.4716E+02  0.3985E+02
     -2.664  0.3837E+02  0.4066E+02
     -2.643  0.8108E+02  0.4237E+02
     -2.622  0.1296E+03  0.4511E+02
     -2.601  0.1388E+03  0.4804E+02
     -2.580  0.1135E+03  0.5043E+02
     -2.559  0.8870E+02  0.5231E+02
     -2.537  0.1102E+03  0.5463E+02
     -2.516  0.1589E+03  0.5799E+02
     -2.495  0.1824E+03  0.6184E+02
     -2.474  0.1733E+03  0.6550E+02
     -2.453  0.1310E+03  0.6826E+02
     -2.432  0.7669E+02  0.6988E+02
     -2.411  0.6157E+02  0.7118E+02
     -2.390  0.7783E+02  0.7282E+02
     -2.369  0.7504E+02  0.7441E+02
     -2.347  0.5533E+02  0.7558E+02
     -2.326  0.5092E+02  0.7665E+02
     -2.305  0.9246E+02  0.7860E+02
     -2.284  0.1476E+03  0.8172E+02
     -2.263  0.1650E+03  0.8520E+02
     -2.242  0.1375E+03  0.8811E+02
     -2.221  0.9764E+02  0.9017E+02
     -2.200  0.1102E+03  0.9249E+02
     -2.179  0.1654E+03  0.9598E+02
     -2.157  0.1914E+03  0.1000E+03
     -2.136  0.1782E+03  0.1038E+03
     -2.115  0.1313E+03  0.1066E+03
     -2.094  0.8758E+02  0.1084E+03
     -2.073  0.9882E+02  0.1105E+03
     -2.052  0.1339E+03  0.1133E+03
     -2.031  0.1401E+03  0.1163E+03
     -2.010  0.1130E+03  0.1187E+03
     -1.989  0.9114E+02  0.1206E+03
     -1.967  0.1268E+03  0.1233E+03
     -1.946  0.1859E+03  0.1272E+03
     -1.925  0.2009E+03  0.1314E+03
     -1.904  0.1707E+03  0.1350E+03
     -1.883  0.1303E+03  0.1378E+03
     -1.862  0.1231E+03  0.1404E+03
     -1.841  0.1509E+03  0.1436E+03
     -1.820  0.1719E+03  0.1472E+03
     -1.799  0.1703E+03  0.1508E+03
     -1.777  0.1495E+03  0.1540E+03
     -1.756  0.1177E+03  0.1564E+03
     -1.735  0.1121E+03  0.1588E+03
     -1.714  0.1275E+03  0.1615E+03
     -1.693  0.1304E+03  0.1642E+03
     -1.672  0.1106E+03  0.1666E+03
     -1.651  0.9228E+02  0.1685E+03
     -1.630  0.1107E+03  0.1709E+03
     -1.609  0.1401E+03  0.1738E+03
     -1.587  0.1417E+03  0.1768E+03
     -1.566  0.1177E+03  0.1793E+03
     -1.545  0.1198E+03  0.1818E+03
     -1.524  0.1797E+03  0.1856E+03
     -1.503  0.2413E+03  0.1907E+03
     -1.482  0.2688E+03  0.1964E+03
     -1.461  0.2628E+03  0.2019E+03
     -1.440  0.2246E+03  0.2067E+03
     -1.419  0.1808E+03  0.2105E+03
     -1.397  0.1752E+03  0.2142E+03
     -1.376  0.1907E+03  0.2182E+03
     -1.355  0.1904E+03  0.2222E+03
     -1.334  0.1609E+03  0.2256E+03
     -1.313  0.1147E+03  0.2281E+03
     -1.292  0.1048E+03  0.2303E+03
     -1.271  0.1371E+03  0.2332E+03
     -1.250  0.1641E+03  0.2366E+03
     -1.229  0.1660E+03  0.2401E+03
     -1.207  0.1693E+03  0.2437E+03
     -1.186  0.1987E+03  0.2479E+03
     -1.165  0.2280E+03  0.2527E+03
     -1.144  0.2326E+03  0.2576E+03
     -1.123  0.2006E+03  0.2619E+03
     -1.102  0.1347E+03  0.2647E+03
     -1.081  0.7435E+02  0.2663E+03
     -1.060  0.6646E+02  0.2677E+03
     -1.039  0.8210E+02  0.2694E+03
     -1.017  0.8629E+02  0.2712E+03
     -0.996  0.1032E+03  0.2734E+03
     -0.975  0.1674E+03  0.2770E+03
     -0.954  0.2458E+03  0.2821E+03
     -0.933  0.2906E+03  0.2883E+03
     -0.912  0.2887E+03  0.2944E+03
     -0.891  0.2604E+03  0.2999E+03
     -0.870  0.2451E+03  0.3051E+03
     -0.849  0.2475E+03  0.3103E+03
     -0.827  0.2516E+03  0.3156E+03
     -0.806  0.2544E+03  0.3210E+03
     -0.785  0.2505E+03  0.3262E+03
     -0.764  0.2233E+03  0.3310E+03
     -0.743  0.1688E+03  0.3345E+03
     -0.722  0.1353E+03  0.3374E+03
     -0.701  0.1483E+03  0.3405E+03
     -0.680  0.1496E+03  0.3437E+03
     -0.659  0.1509E+03  0.3469E+03
     -0.637  0.1863E+03  0.3508E+03
     -0.616  0.2116E+03  0.3553E+03
     -0.595  0.2049E+03  0.3596E+03
     -0.574  0.1863E+03  0.3635E+03
     -0.553  0.1778E+03  0.3673E+03
     -0.532  0.1924E+03  0.3713E+03
     -0.511  0.2238E+03  0.3761E+03
     -0.490  0.2574E+03  0.3815E+03
     -0.468  0.2773E+03  0.3873E+03
     -0.447  0.2676E+03  0.3930E+03
     -0.426  0.2343E+03  0.3979E+03
     -0.405  0.2141E+03  0.4025E+03
     -0.384  0.2093E+03  0.4069E+03
     -0.363  0.1867E+03  0.4108E+03
     -0.342  0.1537E+03  0.4141E+03
     -0.321  0.1537E+03  0.4173E+03
     -0.300  0.1907E+03  0.4213E+03
     -0.278  0.2306E+03  0.4262E+03
     -0.257  0.2520E+03  0.4315E+03
     -0.236  0.2508E+03  0.4368E+03
     -0.215  0.2341E+03  0.4418E+03
     -0.194  0.2261E+03  0.4465E+03
     -0.173  0.2356E+03  0.4515E+03
     -0.152  0.2408E+03  0.4566E+03
     -0.131  0.2226E+03  0.4613E+03
     -0.110  0.1927E+03  0.4654E+03
     -0.088  0.1976E+03  0.4695E+03
     -0.067  0.2360E+03  0.4745E+03
     -0.046  0.2574E+03  0.4800E+03
     -0.025  0.2595E+03  0.4854E+03
     -0.004  0.2610E+03  0.4909E+03
      0.017  0.2660E+03  0.4966E+03
      0.038  0.2632E+03  0.5021E+03
      0.059  0.2490E+03  0.5074E+03
      0.080  0.2303E+03  0.5122E+03
      0.102  0.2275E+03  0.5170E+03
      0.123  0.2541E+03  0.5224E+03
      0.144  0.2881E+03  0.5285E+03
      0.165  0.3148E+03  0.5351E+03
      0.186  0.3237E+03  0.5420E+03
      0.207  0.3246E+03  0.5488E+03
      0.228  0.3292E+03  0.5558E+03
      0.249  0.3303E+03  0.5627E+03
      0.270  0.3236E+03  0.5696E+03
      0.292  0.3107E+03  0.5761E+03
      0.313  0.2914E+03  0.5823E+03
      0.334  0.2617E+03  0.5878E+03
      0.355  0.2274E+03  0.5926E+03
      0.376  0.2098E+03  0.5970E+03
      0.397  0.2134E+03  0.6015E+03
      0.418  0.2147E+03  0.6061E+03
      0.439  0.2113E+03  0.6105E+03
      0.460  0.2157E+03  0.6151E+03
      0.482  0.2178E+03  0.6197E+03
      0.503  0.2132E+03  0.6242E+03
      0.524  0.2042E+03  0.6285E+03
      0.545  0.1871E+03  0.6325E+03
      0.566  0.1844E+03  0.6363E+03
      0.587  0.2080E+03  0.6407E+03
      0.608  0.2257E+03  0.6455E+03
      0.629  0.2296E+03  0.6503E+03
      0.650  0.2435E+03  0.6555E+03
      0.672  0.2618E+03  0.6610E+03
      0.693  0.2762E+03  0.6668E+03
      0.714  0.2816E+03  0.6728E+03
      0.735  0.2729E+03  0.6785E+03
      0.756  0.2649E+03  0.6841E+03
      0.777  0.2683E+03  0.6898E+03
      0.798  0.2702E+03  0.6955E+03
      0.819  0.2631E+03  0.7011E+03
      0.840  0.2526E+03  0.7064E+03
      0.862  0.2396E+03  0.7115E+03
      0.883  0.2282E+03  0.7163E+03
      0.904  0.2193E+03  0.7209E+03
      0.925  0.2178E+03  0.7255E+03
      0.946  0.2261E+03  0.7303E+03
      0.967  0.2355E+03  0.7352E+03
      0.988  0.2399E+03  0.7403E+03
      1.009  0.2360E+03  0.7453E+03
      1.030  0.2269E+03  0.7501E+03
      1.052  0.2211E+03  0.7548E+03
      1.073  0.2126E+03  0.7592E+03
      1.094  0.2023E+03  0.7635E+03
      1.115  0.1966E+03  0.7677E+03
      1.136  0.1828E+03  0.7715E+03
      1.157  0.1640E+03  0.7750E+03
      1.178  0.1544E+03  0.7782E+03
      1.199  0.1555E+03  0.7815E+03
      1.220  0.1563E+03  0.7848E+03
      1.242  0.1580E+03  0.7882E+03
      1.263  0.1631E+03  0.7916E+03
      1.284  0.1666E+03  0.7951E+03
      1.305  0.1765E+03  0.7989E+03
      1.326  0.1942E+03  0.8029E+03
      1.347  0.2078E+03  0.8073E+03
      1.368  0.2204E+03  0.8120E+03
      1.389  0.2344E+03  0.8169E+03
      1.410  0.2418E+03  0.8220E+03
      1.432  0.2469E+03  0.8273E+03
      1.453  0.2490E+03  0.8325E+03
      1.474  0.2404E+03  0.8376E+03
      1.495  0.2340E+03  0.8425E+03
      1.516  0.2310E+03  0.8474E+03
      1.537  0.2158E+03  0.8520E+03
      1.558  0.2042E+03  0.8563E+03
      1.579  0.2070E+03  0.8606E+03
      1.600  0.1976E+03  0.8648E+03
      1.622  0.1777E+03  0.8686E+03
      1.643  0.1691E+03  0.8721E+03
      1.664  0.1672E+03  0.8757E+03
      1.685  0.1572E+03  0.8790E+03
      1.706  0.1504E+03  0.8822E+03
      1.727  0.1609E+03  0.8856E+03
      1.748  0.1764E+03  0.8893E+03
      1.769  0.1777E+03  0.8930E+03
      1.790  0.1744E+03  0.8967E+03
      1.812  0.1729E+03  0.9004E+03
      1.833  0.1622E+03  0.9038E+03
      1.854  0.1516E+03  0.9070E+03
      1.875  0.1530E+03  0.9102E+03
      1.896  0.1539E+03  0.9135E+03
      1.917  0.1573E+03  0.9168E+03
      1.938  0.1701E+03  0.9204E+03
      1.959  0.1743E+03  0.9241E+03
      1.980  0.1709E+03  0.9277E+03
      2.002  0.1700E+03  0.9313E+03
      2.023  0.1666E+03  0.9348E+03
      2.044  0.1621E+03  0.9382E+03
      2.065  0.1517E+03  0.9414E+03
      2.086  0.1436E+03  0.9444E+03
      2.107  0.1471E+03  0.9475E+03
      2.128  0.1569E+03  0.9509E+03
      2.149  0.1624E+03  0.9543E+03
      2.170  0.1595E+03  0.9576E+03
      2.192  0.1627E+03  0.9611E+03
      2.213  0.1682E+03  0.9646E+03
      2.234  0.1688E+03  0.9682E+03
      2.255  0.1736E+03  0.9719E+03
      2.276  0.1745E+03  0.9755E+03
      2.297  0.1686E+03  0.9791E+03
      2.318  0.1641E+03  0.9826E+03
      2.339  0.1606E+03  0.9860E+03
      2.360  0.1559E+03  0.9893E+03
      2.382  0.1531E+03  0.9925E+03
      2.403  0.1528E+03  0.9957E+03
      2.424  0.1417E+03  0.9987E+03
      2.445  0.1022E+03  0.1001E+04
      2.466  0.4390E+02  0.1002E+04
      2.487  0.9273E+01  0.1002E+04
      2.508  0.8763E+00  0.1002E+04
      2.529  0.3531E-01  0.1002E+04
      2.550  0.5880E-03  0.1002E+04
      2.572  0.3951E-05  0.1002E+04
      2.593  0.1051E-07  0.1002E+04
      2.614  0.1092E-10  0.1002E+04
      2.635  0.5259E-14  0.1002E+04
      2.656  0.0000E+00  0.1002E+04
      2.677  0.0000E+00  0.1002E+04
      2.698  0.0000E+00  0.1002E+04
      2.719  0.0000E+00  0.1002E+04
      2.741  0.0000E+00  0.1002E+04
