       N       E                     dE             d eps       ncg     rms          rms(c)
DAV:   1    -0.317366883967E+03   -0.31737E+03   -0.11629E+05  4008   0.642E+02
DAV:   2    -0.871913481536E+03   -0.55455E+03   -0.50714E+03  4604   0.632E+01
DAV:   3    -0.913411011510E+03   -0.41498E+02   -0.38029E+02  5232   0.136E+01
DAV:   4    -0.914898301596E+03   -0.14873E+01   -0.14647E+01  4728   0.282E+00
DAV:   5    -0.914934354779E+03   -0.36053E-01   -0.35986E-01  4912   0.460E-01    0.951E+00
DAV:   6    -0.909288796638E+03    0.56456E+01   -0.12403E+01  4736   0.470E+00    0.737E+00
DAV:   7    -0.904572615190E+03    0.47162E+01   -0.10775E+01  4856   0.446E+00    0.538E+00
DAV:   8    -0.900773995115E+03    0.37986E+01   -0.60460E+00  4848   0.279E+00    0.289E+00
DAV:   9    -0.900014652155E+03    0.75934E+00   -0.35961E+00  4504   0.146E+00    0.131E+00
DAV:  10    -0.900189517988E+03   -0.17487E+00   -0.86127E-01  4848   0.916E-01    0.130E+00
DAV:  11    -0.899985568139E+03    0.20395E+00   -0.38974E-01  4736   0.648E-01    0.617E-01
DAV:  12    -0.899984019485E+03    0.15487E-02   -0.85328E-02  4656   0.287E-01    0.423E-01
DAV:  13    -0.899977453673E+03    0.65658E-02   -0.43600E-02  4720   0.230E-01    0.297E-01
DAV:  14    -0.899969739416E+03    0.77143E-02   -0.16136E-02  4616   0.136E-01    0.149E-01
DAV:  15    -0.899968919709E+03    0.81971E-03   -0.57031E-03  4368   0.661E-02    0.692E-02
DAV:  16    -0.899969306802E+03   -0.38709E-03   -0.12398E-03  5096   0.413E-02    0.650E-02
DAV:  17    -0.899968730368E+03    0.57643E-03   -0.72360E-04  4896   0.318E-02    0.268E-02
DAV:  18    -0.899968700254E+03    0.30114E-04   -0.23426E-04  4544   0.150E-02    0.158E-02
DAV:  19    -0.899968694281E+03    0.59735E-05   -0.94881E-05  4592   0.955E-03
   1 F= -.89996869E+03 E0= -.89990963E+03  d E =-.118125E+00
