Li                                      
           1
    22.732500   -0.000000    0.000000
    -0.000000   22.732500    0.000000
     0.000000    0.000000   22.732500
   Li
   500
Direct configuration=     1
   0.03255183  0.00459508  0.00322698
   0.01619599  0.10143493  0.09776395
   0.01363294  0.22012312  0.20047503
   0.00820258  0.30615634  0.30397776
   0.98938638  0.42256000  0.41040103
   0.97956763  0.49959035  0.51316374
   0.98599498  0.60707814  0.59560784
   0.01462121  0.70659711  0.71514928
   0.98038940  0.79648474  0.81343904
   0.00900759  0.92295801  0.91500458
   0.11262329  0.99751385  0.10505871
   0.12230268  0.12980979  0.20249686
   0.11213146  0.20393029  0.30883017
   0.09540058  0.31762250  0.39612396
   0.09241577  0.39047693  0.53897697
   0.07959500  0.52198025  0.61877987
   0.09305545  0.60209275  0.70238392
   0.09891793  0.70142591  0.80112499
   0.10098018  0.79951883  0.89562334
   0.14179877  0.90451233  0.00983470
   0.21292198  0.99243965  0.18752668
   0.21068853  0.09121401  0.30437908
   0.19771003  0.20223278  0.42105450
   0.21836852  0.30143262  0.51552917
   0.17512645  0.39634550  0.62206496
   0.18744461  0.51767327  0.69107419
   0.18401528  0.61765041  0.83287504
   0.20669943  0.71491764  0.90652144
   0.21137278  0.79307918  0.01099889
   0.21097814  0.89993751  0.11165683
   0.28457391  0.01878747  0.28975512
   0.28864702  0.09424255  0.39872571
   0.31624996  0.21344841  0.51108277
   0.33220632  0.31283988  0.60024307
   0.29740027  0.39914339  0.69928062
   0.28977699  0.49383506  0.78325468
   0.30241755  0.60001048  0.88710597
   0.30577046  0.67351550  0.00151757
   0.29562964  0.77236631  0.12178311
   0.29191227  0.90941685  0.19508769
   0.40929827  0.99454101  0.38647829
   0.40226132  0.10747523  0.48555452
   0.41573509  0.20928699  0.58771284
   0.40017104  0.30436951  0.70388832
   0.39269089  0.40000735  0.78059894
   0.40028155  0.49825437  0.87953012
   0.41148011  0.59616784  0.00108446
   0.39684647  0.67539637  0.10370638
   0.40837515  0.79917701  0.20426407
   0.39137505  0.91181878  0.28929200
   0.48402493  0.99289528  0.50506323
   0.47233011  0.07587959  0.57683280
   0.50378184  0.20453109  0.70450610
   0.52123221  0.30699737  0.77371181
   0.49146265  0.40399003  0.88452040
   0.49334446  0.48990699  0.00976512
   0.50606289  0.59609328  0.10007171
   0.49677515  0.68101313  0.22500811
   0.50174093  0.82311031  0.30679340
   0.47365958  0.90321452  0.40212330
   0.59117425  0.00887780  0.60458949
   0.56659580  0.07786068  0.69900339
   0.59842297  0.19024571  0.80339743
   0.59596042  0.30288108  0.88113798
   0.59783764  0.39232736  0.99133106
   0.60951060  0.51297026  0.11624874
   0.60815250  0.60509833  0.21198699
   0.60823939  0.70698614  0.30305986
   0.60513482  0.81092975  0.42521515
   0.59350709  0.90050064  0.51159635
   0.68504004  0.98346201  0.68973365
   0.69019967  0.09417696  0.78498766
   0.70197538  0.19259257  0.92602915
   0.69101782  0.28272785  0.98481567
   0.70307338  0.40049862  0.08676634
   0.69167304  0.49217531  0.20476245
   0.67447723  0.60464691  0.31102081
   0.72323888  0.71021684  0.40051511
   0.70322690  0.77116983  0.49460838
   0.70009523  0.90170374  0.59515843
   0.80380935  0.99594018  0.79286348
   0.80426193  0.10153761  0.91937334
   0.81365375  0.21198438  0.01253442
   0.77902661  0.30218320  0.09081215
   0.78466972  0.40772810  0.19847174
   0.80596812  0.52452434  0.31009312
   0.78547997  0.61410297  0.43172022
   0.80281125  0.70350286  0.52967866
   0.81049454  0.80267453  0.60605615
   0.81604207  0.91425759  0.68848012
   0.91031036  0.00987770  0.90460644
   0.90873196  0.07825017  0.99247785
   0.90980877  0.19990529  0.09181948
   0.91026676  0.28897054  0.18941788
   0.89916844  0.39087088  0.28324861
   0.87304998  0.48983908  0.40639316
   0.90792305  0.60264455  0.49458440
   0.91596517  0.70311491  0.60052272
   0.91099434  0.79168323  0.72201146
   0.92222741  0.93217285  0.79160284
   0.10969943  0.10043335  0.99305328
   0.13874403  0.23025577  0.10179426
   0.11825633  0.30573978  0.17835724
   0.10697795  0.39109828  0.28391945
   0.10137511  0.49443257  0.39626002
   0.07553505  0.59789761  0.49908484
   0.11115936  0.70992785  0.58688502
   0.09294722  0.80165774  0.69872146
   0.09664013  0.90548155  0.80299086
   0.10721457  0.99041509  0.89052703
   0.21124663  0.10782938  0.09166569
   0.21821973  0.19235185  0.20443068
   0.22365367  0.29783433  0.30594981
   0.20938764  0.39979990  0.42368041
   0.17816586  0.49708734  0.53495456
   0.18668269  0.61474700  0.59906558
   0.18856013  0.71031574  0.67663721
   0.19072956  0.79288709  0.77459709
   0.20064174  0.90079013  0.89964961
   0.20817800  0.01200946  0.01696470
   0.29709199  0.09203993  0.20803928
   0.31024846  0.18927110  0.32567472
   0.31490167  0.29407585  0.41025277
   0.30125889  0.42500983  0.52736347
   0.30884009  0.51531059  0.60668269
   0.28754099  0.61796632  0.69859586
   0.28703987  0.68638555  0.77979725
   0.30164034  0.79727612  0.87741640
   0.28305524  0.88937015  0.99496532
   0.30914146  0.99444731  0.13290572
   0.42372710  0.09897825  0.30526855
   0.41342469  0.18759077  0.39627519
   0.39977128  0.31738510  0.47987372
   0.40076485  0.40187057  0.58309308
   0.39278970  0.50610668  0.70106644
   0.39676612  0.58947029  0.76535419
   0.39033166  0.69217513  0.88630280
   0.38774822  0.80410739  0.00933657
   0.39873785  0.89499473  0.11371903
   0.41473881  0.01168318  0.21087425
   0.51681406  0.09966580  0.39902721
   0.51462234  0.18416261  0.49039496
   0.48746924  0.29836267  0.58863409
   0.48690582  0.40840470  0.68315765
   0.48615187  0.51022563  0.77175331
   0.48858687  0.60145073  0.90430203
   0.49534529  0.70022706  0.99902304
   0.50590700  0.77892704  0.11558191
   0.51257870  0.88951301  0.17394739
   0.51330053  0.99317121  0.29107657
   0.60895465  0.07157735  0.48705962
   0.58439613  0.18411258  0.59234575
   0.58581840  0.31301110  0.67788057
   0.60328832  0.40244216  0.79531278
   0.58470417  0.51136023  0.88760865
   0.59046170  0.59732918  0.99025839
   0.59943746  0.67251676  0.10782248
   0.59921966  0.79122863  0.19405363
   0.60861743  0.89126868  0.30811712
   0.61852866  0.96473076  0.41561851
   0.70870717  0.09440143  0.58885442
   0.69894876  0.18462051  0.72087850
   0.70518039  0.32208085  0.80797632
   0.68669629  0.40609149  0.90969043
   0.69371684  0.51994230  0.99855887
   0.70718255  0.60090091  0.10728983
   0.70580546  0.67713075  0.21486356
   0.70572782  0.79139933  0.28469058
   0.72821267  0.88016462  0.40862622
   0.72830372  0.99401797  0.50403548
   0.79378605  0.10868494  0.70997344
   0.81143202  0.20034127  0.82182814
   0.79236965  0.30550375  0.91789001
   0.79888697  0.42187738  0.99708302
   0.78995526  0.50832786  0.10059688
   0.79609279  0.59476673  0.21071730
   0.79075370  0.68730871  0.31995910
   0.80609636  0.78471646  0.42179540
   0.80626051  0.89433801  0.51123224
   0.81965398  0.02070172  0.61854427
   0.90263609  0.11043336  0.81228292
   0.90787292  0.19862731  0.91133138
   0.90291726  0.31413240  0.99236858
   0.88870989  0.40042946  0.08285913
   0.90215462  0.51513059  0.20291276
   0.88847797  0.61440368  0.30804399
   0.89715569  0.70548102  0.41680702
   0.89587777  0.79740967  0.49286370
   0.91582502  0.90025403  0.60822318
   0.90935642  0.02566126  0.70263078
   0.00989361  0.11174811  0.91673875
   0.99429859  0.20851353  0.01384569
   0.00581904  0.31193643  0.09688462
   0.98272483  0.39775731  0.18512936
   0.96998798  0.50012467  0.31225929
   0.98237518  0.57498410  0.40856942
   0.00786669  0.70483519  0.49426726
   0.02718906  0.79776731  0.59149367
   0.02887131  0.89905484  0.70834522
   0.99784239  0.04241421  0.80008407
   0.20479094  0.19846600  0.01570124
   0.22090490  0.31486380  0.09834725
   0.20758828  0.40323498  0.20896493
   0.19724896  0.48372615  0.30777951
   0.19968549  0.60700312  0.41337819
   0.18153060  0.70119432  0.48520319
   0.18130264  0.81549102  0.58109504
   0.18914348  0.90442213  0.69607345
   0.20690804  0.99191200  0.77952842
   0.20424579  0.10936675  0.89868585
   0.33059918  0.20853860  0.09867295
   0.31419379  0.30495294  0.20552761
   0.30870920  0.41178113  0.31043350
   0.28236790  0.52327213  0.41894404
   0.28659398  0.60829523  0.48957598
   0.29031884  0.71977629  0.58530651
   0.28291870  0.80402603  0.67565240
   0.29264254  0.90210747  0.77639326
   0.29068760  0.99732425  0.89107730
   0.30472498  0.10784187  0.00495369
   0.42145279  0.21400089  0.19145596
   0.40831233  0.29711076  0.31887643
   0.38956571  0.42722418  0.40594975
   0.40618573  0.52479133  0.49611812
   0.38373203  0.61072835  0.58197624
   0.40078898  0.70502578  0.67585109
   0.37818645  0.79688384  0.79987929
   0.38602904  0.90145374  0.90182528
   0.36489598  0.99889652  0.99359646
   0.40184698  0.09384502  0.09871699
   0.51834439  0.19654685  0.28880306
   0.50301950  0.31224925  0.39401773
   0.49098220  0.39685746  0.49248185
   0.49939770  0.50558693  0.58818870
   0.49618803  0.60105815  0.66602160
   0.49238655  0.69506278  0.79109225
   0.47971089  0.77710668  0.92056411
   0.50195047  0.88262398  0.00305620
   0.47785547  0.98823920  0.09463007
   0.51280249  0.10255505  0.16736054
   0.61323177  0.20296726  0.40430357
   0.58370263  0.28045389  0.52346462
   0.62284291  0.37823593  0.57677439
   0.58731115  0.50064481  0.68182858
   0.59520776  0.59662899  0.78134972
   0.58750495  0.67587584  0.88488414
   0.61323067  0.77683347  0.99613095
   0.59467014  0.88990479  0.09598789
   0.60096782  0.98674409  0.17698370
   0.61861577  0.09018182  0.30589144
   0.71785175  0.19885517  0.48052765
   0.69821882  0.29279589  0.61659330
   0.71193943  0.38504980  0.69762251
   0.69616135  0.48206364  0.79844942
   0.69368561  0.59120080  0.88231084
   0.68351610  0.68725542  0.00452876
   0.67780074  0.77850754  0.09634567
   0.70045848  0.87355661  0.20031316
   0.70688337  0.97925802  0.28088966
   0.71681900  0.09109375  0.38220947
   0.81901585  0.17908407  0.60756106
   0.80315488  0.30291884  0.71810185
   0.79806741  0.42309065  0.81548951
   0.80318181  0.50015509  0.90650999
   0.79058169  0.59334971  0.98557292
   0.78455464  0.69558573  0.12162763
   0.80471004  0.78829062  0.20762615
   0.81864096  0.89853980  0.30319655
   0.79966188  0.99683167  0.39277972
   0.81861803  0.11788003  0.48823401
   0.90658871  0.18878467  0.72117712
   0.89057884  0.29801945  0.81703224
   0.88341752  0.40711117  0.90596231
   0.90317768  0.51242773  0.99117842
   0.88908834  0.61081134  0.08411454
   0.90945397  0.72582364  0.19914313
   0.90389439  0.80208487  0.31385625
   0.87969410  0.91006436  0.41111264
   0.92104650  0.00608142  0.49755536
   0.90877770  0.12129729  0.60536302
   0.01331444  0.20897696  0.79303319
   0.00820204  0.27710427  0.87710689
   0.97980633  0.39387417  0.00309118
   0.98408139  0.49514572  0.11767826
   0.98636230  0.61033344  0.19633502
   0.98631891  0.71737783  0.29057957
   0.00686757  0.81292250  0.38735210
   0.99936752  0.90435581  0.50772941
   0.99905822  0.00957364  0.58902802
   0.99118538  0.12836807  0.68747286
   0.11274034  0.20997876  0.91237320
   0.10082450  0.31603786  0.00492166
   0.11284267  0.40687206  0.08391351
   0.09843330  0.50942134  0.21338665
   0.09746155  0.60191758  0.32334928
   0.08646606  0.68109320  0.40235209
   0.09924100  0.81449345  0.49375579
   0.11355546  0.91900891  0.59519515
   0.08170067  0.01254003  0.71175352
   0.11331810  0.09548053  0.80581833
   0.32721660  0.28159880  0.00121784
   0.31093101  0.40065935  0.10975678
   0.30054485  0.51895169  0.20696420
   0.28742195  0.60416356  0.29946173
   0.29328672  0.72093624  0.40258240
   0.30656823  0.81055034  0.49437184
   0.29745264  0.91688856  0.60106278
   0.30291416  0.00418568  0.68428982
   0.29463455  0.11206293  0.79932132
   0.31382887  0.19909096  0.91486222
   0.41398904  0.31221000  0.09734278
   0.39721306  0.41046679  0.21517572
   0.38207626  0.51390542  0.27402141
   0.38522755  0.60046894  0.37674876
   0.39239994  0.67636145  0.46836515
   0.39772331  0.79797472  0.56849420
   0.39421774  0.88043522  0.70567887
   0.39639321  0.99417976  0.79756283
   0.42055210  0.07940311  0.91098755
   0.43313882  0.19704337  0.99031757
   0.50481558  0.30946842  0.18961977
   0.51203737  0.40689417  0.26408859
   0.49459236  0.50161941  0.40076678
   0.49368827  0.60518255  0.50112400
   0.48742243  0.71569117  0.57646932
   0.48586309  0.78998945  0.71851093
   0.49414103  0.90575054  0.80756332
   0.50042918  0.99515827  0.91432187
   0.49393301  0.08775824  0.99608909
   0.49904743  0.20701639  0.08611632
   0.59673672  0.29543959  0.29459842
   0.60283786  0.40885097  0.41309900
   0.58864708  0.51061923  0.47985295
   0.58329573  0.57577720  0.59373718
   0.60661869  0.68167781  0.68956578
   0.59663287  0.75893974  0.82999100
   0.59764212  0.88820944  0.92220989
   0.62325243  0.99248854  0.02798725
   0.57432379  0.09913597  0.09330915
   0.57729973  0.19611765  0.17786612
   0.70393938  0.29770716  0.39929070
   0.69539590  0.38293254  0.48118961
   0.69203015  0.48300548  0.57875389
   0.68007581  0.57370210  0.70693482
   0.69429841  0.68804932  0.80049390
   0.69970193  0.77557035  0.90766944
   0.69034672  0.86427639  0.03116782
   0.70639947  0.00052452  0.10674510
   0.69604895  0.10500107  0.17961774
   0.69750280  0.19198135  0.28571712
   0.79420980  0.27314641  0.50847966
   0.80314908  0.38902865  0.59541636
   0.78867094  0.49828558  0.72007924
   0.80754664  0.60536883  0.78717719
   0.81380608  0.69377332  0.89360703
   0.80350927  0.78117388  0.00516606
   0.78712280  0.87976681  0.09869841
   0.80716391  0.99850699  0.19687551
   0.79586532  0.09074850  0.28192213
   0.79374712  0.18579785  0.38600884
   0.86875693  0.29612470  0.60415831
   0.88641426  0.40263262  0.70255262
   0.90336844  0.49920486  0.81416070
   0.89385137  0.60631892  0.89376069
   0.90513072  0.68447501  0.00043399
   0.88970714  0.79752194  0.08599365
   0.89689272  0.90025603  0.18552798
   0.89712331  0.00182199  0.28655298
   0.92104893  0.10484228  0.38673812
   0.90111108  0.20517099  0.47453722
   0.99301929  0.29722067  0.69284511
   0.98959314  0.39353100  0.78206608
   0.00436565  0.49122498  0.88573119
   0.98383303  0.59929751  0.00989422
   0.00480388  0.71440822  0.10410299
   0.99317032  0.82577131  0.20369397
   0.00029096  0.90617497  0.29962030
   0.02007482  0.99397397  0.41259475
   0.00716238  0.10085374  0.49777939
   0.98285317  0.20852333  0.58147150
   0.08364455  0.29707342  0.78746700
   0.10452086  0.39664703  0.92450186
   0.07694219  0.49455317  0.00253691
   0.07191909  0.59456428  0.08991137
   0.08989372  0.70336049  0.20167163
   0.08441005  0.81295953  0.31124495
   0.08715236  0.92618247  0.39946182
   0.10967626  0.00885544  0.51107600
   0.08729565  0.10987172  0.61476423
   0.11314546  0.20230171  0.70550056
   0.20211769  0.29851308  0.91417163
   0.23652644  0.39361065  0.01524173
   0.21686464  0.52281249  0.11531483
   0.18373879  0.62554832  0.21244391
   0.19973674  0.71534779  0.31888772
   0.18001311  0.81339892  0.40908357
   0.20356193  0.91469154  0.49655308
   0.21406429  0.03412640  0.60382428
   0.19778325  0.11084381  0.70945058
   0.20191462  0.20317642  0.80904313
   0.39453257  0.40760303  0.00269187
   0.40648672  0.51401079  0.11527028
   0.42154459  0.61028714  0.19761288
   0.39784709  0.69077367  0.31021682
   0.38672282  0.79897329  0.40544308
   0.39939950  0.89753346  0.49642678
   0.40623959  0.97886330  0.59209498
   0.41263595  0.08400248  0.70336057
   0.42588409  0.20056584  0.81121857
   0.40847199  0.31170639  0.88131127
   0.50026864  0.41180922  0.10399731
   0.50086422  0.50061341  0.20900373
   0.51814954  0.58020364  0.30576383
   0.50814359  0.70369852  0.37814405
   0.51198949  0.80989679  0.48514112
   0.49415031  0.92204559  0.61938861
   0.49391404  0.98263392  0.71910722
   0.50193570  0.11204473  0.83865838
   0.51408505  0.20712451  0.88636609
   0.51398754  0.30578736  0.99559119
   0.59783799  0.38417325  0.18841223
   0.59554863  0.49424878  0.31105456
   0.60415333  0.59753736  0.40437506
   0.60747956  0.68379651  0.49506332
   0.57464019  0.79413228  0.60009101
   0.60072239  0.88176594  0.69867335
   0.60667736  0.99364373  0.81316617
   0.62167795  0.08309918  0.92347505
   0.58024166  0.20697029  0.01342065
   0.58693932  0.30428294  0.12336508
   0.69206567  0.39078367  0.30311447
   0.71154042  0.51316309  0.37634098
   0.71220334  0.58879254  0.47983148
   0.68089885  0.67094501  0.60243119
   0.66660701  0.80500737  0.70190233
   0.68709925  0.90046888  0.78605169
   0.70383890  0.01388038  0.91686008
   0.69430069  0.11716942  0.01736353
   0.67186923  0.20730946  0.11792426
   0.68733431  0.30806819  0.21730571
   0.79302045  0.40089464  0.40719565
   0.80878727  0.48342209  0.49817758
   0.80435910  0.58579238  0.59086621
   0.78649955  0.69243506  0.67458648
   0.81431865  0.81225835  0.78288370
   0.79520002  0.90082814  0.90627750
   0.77640776  0.98712625  0.00311722
   0.79893517  0.09048113  0.10879885
   0.81461830  0.21524624  0.19838850
   0.80335840  0.29490593  0.28355229
   0.87716247  0.39768845  0.52897157
   0.88657613  0.49958196  0.61523503
   0.88516330  0.59723573  0.71754822
   0.89587595  0.68395025  0.78536487
   0.87612412  0.81243384  0.90383064
   0.90368666  0.91292189  0.00610714
   0.90850161  0.98709487  0.09817919
   0.91886760  0.10205692  0.18766876
   0.89668685  0.17542840  0.29717413
   0.88183376  0.29911118  0.41176510
   0.96412164  0.40405000  0.62451766
   0.98619669  0.50661461  0.70639544
   0.01518361  0.58545088  0.79041833
   0.98322021  0.67800359  0.89838261
   0.01686403  0.80718553  0.99147449
   0.01944680  0.88710946  0.08325646
   0.00909990  0.00163640  0.19750155
   0.01977366  0.08958529  0.29407798
   0.01598687  0.20578973  0.39400922
   0.99248447  0.30276424  0.50137796
   0.07312361  0.39750523  0.68574396
   0.10485097  0.48781529  0.76918148
   0.09364657  0.60091154  0.89865750
   0.10361924  0.69198492  0.01583141
   0.10200980  0.80718135  0.09333951
   0.10623381  0.89758450  0.19996941
   0.13216310  0.99441699  0.30091144
   0.11030106  0.08165294  0.39534548
   0.11054989  0.19880239  0.49363676
   0.08999113  0.28916821  0.61652706
   0.20612733  0.39139317  0.78873097
   0.18941380  0.49427336  0.91619598
   0.17608982  0.59625094  0.98893839
   0.20472864  0.68772893  0.10538305
   0.18449106  0.79515106  0.17769500
   0.20233983  0.88581685  0.29616684
   0.20091304  0.98957877  0.40444252
   0.22004399  0.10561061  0.49974630
   0.21131581  0.19851881  0.60274805
   0.19938552  0.28475889  0.70047572
   0.29380772  0.40098739  0.89887706
   0.30783204  0.50286339  0.00801224
   0.29997800  0.59873126  0.09278104
   0.29906374  0.69606929  0.18821023
   0.29894043  0.80071889  0.28928019
   0.30368752  0.92100489  0.38864446
   0.30900037  0.00181474  0.49529144
   0.32888978  0.10777732  0.58820521
   0.30527152  0.20691175  0.69192994
   0.30434548  0.29886313  0.79331039
