 500 500   0   0
  0.2349479E+02  0.2273250E-08  0.2273250E-08  0.2273250E-08  0.5000000E-15
  1.000000000000000E-004
  CAR 
 Li                                      
      2.82748053     -3.59159751  301      0.03472914      1.00000000
     -3.592  0.0000E+00  0.0000E+00
     -3.570  0.0000E+00  0.0000E+00
     -3.549  0.0000E+00  0.0000E+00
     -3.527  0.0000E+00  0.0000E+00
     -3.506  0.0000E+00  0.0000E+00
     -3.485  0.0000E+00  0.0000E+00
     -3.463  0.2594E-13  0.5551E-15
     -3.442  0.6406E-10  0.1371E-11
     -3.420  0.5671E-07  0.1215E-08
     -3.399  0.1857E-04  0.3986E-06
     -3.378  0.2265E-02  0.4887E-04
     -3.356  0.1038E+00  0.2271E-02
     -3.335  0.1809E+01  0.4099E-01
     -3.313  0.1214E+02  0.3007E+00
     -3.292  0.3170E+02  0.9790E+00
     -3.271  0.3249E+02  0.1674E+01
     -3.249  0.1329E+02  0.1958E+01
     -3.228  0.5836E+01  0.2083E+01
     -3.206  0.2665E+02  0.2654E+01
     -3.185  0.7868E+02  0.4337E+01
     -3.164  0.1005E+03  0.6488E+01
     -3.142  0.5589E+02  0.7684E+01
     -3.121  0.1539E+02  0.8014E+01
     -3.099  0.1869E+02  0.8414E+01
     -3.078  0.6431E+02  0.9790E+01
     -3.057  0.1024E+03  0.1198E+02
     -3.035  0.7073E+02  0.1350E+02
     -3.014  0.2291E+02  0.1399E+02
     -2.992  0.1937E+02  0.1440E+02
     -2.971  0.6625E+02  0.1582E+02
     -2.950  0.1241E+03  0.1847E+02
     -2.928  0.1104E+03  0.2083E+02
     -2.907  0.4743E+02  0.2185E+02
     -2.885  0.2607E+02  0.2241E+02
     -2.864  0.7484E+02  0.2401E+02
     -2.843  0.1570E+03  0.2737E+02
     -2.821  0.1746E+03  0.3110E+02
     -2.800  0.1015E+03  0.3328E+02
     -2.779  0.3318E+02  0.3399E+02
     -2.757  0.2822E+02  0.3459E+02
     -2.736  0.7146E+02  0.3612E+02
     -2.714  0.9769E+02  0.3821E+02
     -2.693  0.6314E+02  0.3956E+02
     -2.672  0.2439E+02  0.4008E+02
     -2.650  0.4153E+02  0.4097E+02
     -2.629  0.1190E+03  0.4352E+02
     -2.607  0.1799E+03  0.4737E+02
     -2.586  0.1437E+03  0.5044E+02
     -2.565  0.6687E+02  0.5187E+02
     -2.543  0.5668E+02  0.5309E+02
     -2.522  0.1343E+03  0.5596E+02
     -2.500  0.2232E+03  0.6074E+02
     -2.479  0.2319E+03  0.6570E+02
     -2.458  0.1442E+03  0.6878E+02
     -2.436  0.5182E+02  0.6989E+02
     -2.415  0.3337E+02  0.7060E+02
     -2.393  0.7754E+02  0.7226E+02
     -2.372  0.1011E+03  0.7443E+02
     -2.351  0.5866E+02  0.7568E+02
     -2.329  0.2582E+02  0.7623E+02
     -2.308  0.6375E+02  0.7760E+02
     -2.286  0.1572E+03  0.8096E+02
     -2.265  0.2047E+03  0.8534E+02
     -2.244  0.1483E+03  0.8851E+02
     -2.222  0.6800E+02  0.8997E+02
     -2.201  0.6761E+02  0.9142E+02
     -2.179  0.1539E+03  0.9471E+02
     -2.158  0.2326E+03  0.9969E+02
     -2.137  0.2193E+03  0.1044E+03
     -2.115  0.1260E+03  0.1071E+03
     -2.094  0.5156E+02  0.1082E+03
     -2.072  0.7017E+02  0.1097E+03
     -2.051  0.1496E+03  0.1129E+03
     -2.030  0.1765E+03  0.1167E+03
     -2.008  0.1156E+03  0.1191E+03
     -1.987  0.6477E+02  0.1205E+03
     -1.965  0.1084E+03  0.1228E+03
     -1.944  0.2078E+03  0.1273E+03
     -1.923  0.2454E+03  0.1325E+03
     -1.901  0.1742E+03  0.1363E+03
     -1.880  0.7786E+02  0.1379E+03
     -1.858  0.6994E+02  0.1394E+03
     -1.837  0.1625E+03  0.1429E+03
     -1.816  0.2492E+03  0.1482E+03
     -1.794  0.2199E+03  0.1529E+03
     -1.773  0.1132E+03  0.1554E+03
     -1.751  0.5655E+02  0.1566E+03
     -1.730  0.9793E+02  0.1587E+03
     -1.709  0.1631E+03  0.1622E+03
     -1.687  0.1580E+03  0.1655E+03
     -1.666  0.9219E+02  0.1675E+03
     -1.644  0.5590E+02  0.1687E+03
     -1.623  0.9607E+02  0.1708E+03
     -1.602  0.1573E+03  0.1741E+03
     -1.580  0.1581E+03  0.1775E+03
     -1.559  0.9632E+02  0.1796E+03
     -1.537  0.7676E+02  0.1812E+03
     -1.516  0.1693E+03  0.1848E+03
     -1.495  0.2989E+03  0.1912E+03
     -1.473  0.3502E+03  0.1987E+03
     -1.452  0.2932E+03  0.2050E+03
     -1.431  0.1786E+03  0.2088E+03
     -1.409  0.1178E+03  0.2113E+03
     -1.388  0.1711E+03  0.2150E+03
     -1.366  0.2400E+03  0.2201E+03
     -1.345  0.2149E+03  0.2247E+03
     -1.324  0.1223E+03  0.2274E+03
     -1.302  0.6979E+02  0.2288E+03
     -1.281  0.1000E+03  0.2310E+03
     -1.259  0.1692E+03  0.2346E+03
     -1.238  0.1925E+03  0.2387E+03
     -1.217  0.1421E+03  0.2418E+03
     -1.195  0.1395E+03  0.2447E+03
     -1.174  0.2232E+03  0.2495E+03
     -1.152  0.2777E+03  0.2555E+03
     -1.131  0.2501E+03  0.2608E+03
     -1.110  0.1631E+03  0.2643E+03
     -1.088  0.7042E+02  0.2658E+03
     -1.067  0.4169E+02  0.2667E+03
     -1.045  0.7235E+02  0.2683E+03
     -1.024  0.9277E+02  0.2702E+03
     -1.003  0.7250E+02  0.2718E+03
     -0.981  0.8386E+02  0.2736E+03
     -0.960  0.1845E+03  0.2775E+03
     -0.938  0.2981E+03  0.2839E+03
     -0.917  0.3436E+03  0.2913E+03
     -0.896  0.3098E+03  0.2979E+03
     -0.874  0.2387E+03  0.3030E+03
     -0.853  0.2063E+03  0.3074E+03
     -0.831  0.2290E+03  0.3123E+03
     -0.810  0.2967E+03  0.3187E+03
     -0.789  0.3202E+03  0.3255E+03
     -0.767  0.2474E+03  0.3308E+03
     -0.746  0.1671E+03  0.3344E+03
     -0.724  0.1257E+03  0.3371E+03
     -0.703  0.1148E+03  0.3395E+03
     -0.682  0.1258E+03  0.3422E+03
     -0.660  0.1289E+03  0.3450E+03
     -0.639  0.1676E+03  0.3486E+03
     -0.617  0.2250E+03  0.3534E+03
     -0.596  0.2386E+03  0.3585E+03
     -0.575  0.2054E+03  0.3629E+03
     -0.553  0.1517E+03  0.3661E+03
     -0.532  0.1251E+03  0.3688E+03
     -0.510  0.1802E+03  0.3727E+03
     -0.489  0.2826E+03  0.3787E+03
     -0.468  0.3361E+03  0.3859E+03
     -0.446  0.3025E+03  0.3924E+03
     -0.425  0.2247E+03  0.3972E+03
     -0.403  0.1902E+03  0.4013E+03
     -0.382  0.2092E+03  0.4057E+03
     -0.361  0.2109E+03  0.4102E+03
     -0.339  0.1682E+03  0.4138E+03
     -0.318  0.1210E+03  0.4164E+03
     -0.296  0.1330E+03  0.4193E+03
     -0.275  0.2053E+03  0.4237E+03
     -0.254  0.2781E+03  0.4296E+03
     -0.232  0.3045E+03  0.4361E+03
     -0.211  0.2696E+03  0.4419E+03
     -0.189  0.2194E+03  0.4466E+03
     -0.168  0.2242E+03  0.4514E+03
     -0.147  0.2560E+03  0.4569E+03
     -0.125  0.2361E+03  0.4619E+03
     -0.104  0.1596E+03  0.4653E+03
     -0.083  0.1302E+03  0.4681E+03
     -0.061  0.2015E+03  0.4724E+03
     -0.040  0.2915E+03  0.4787E+03
     -0.018  0.3237E+03  0.4856E+03
      0.003  0.2983E+03  0.4920E+03
      0.024  0.2612E+03  0.4976E+03
      0.046  0.2307E+03  0.5025E+03
      0.067  0.2203E+03  0.5072E+03
      0.089  0.2256E+03  0.5120E+03
      0.110  0.2377E+03  0.5171E+03
      0.131  0.2566E+03  0.5226E+03
      0.153  0.2774E+03  0.5286E+03
      0.174  0.3134E+03  0.5353E+03
      0.196  0.3515E+03  0.5428E+03
      0.217  0.3777E+03  0.5509E+03
      0.238  0.3841E+03  0.5591E+03
      0.260  0.3646E+03  0.5669E+03
      0.281  0.3390E+03  0.5741E+03
      0.303  0.3179E+03  0.5809E+03
      0.324  0.2887E+03  0.5871E+03
      0.345  0.2468E+03  0.5924E+03
      0.367  0.2195E+03  0.5971E+03
      0.388  0.2209E+03  0.6018E+03
      0.410  0.2308E+03  0.6068E+03
      0.431  0.2158E+03  0.6114E+03
      0.452  0.1707E+03  0.6150E+03
      0.474  0.1513E+03  0.6183E+03
      0.495  0.1725E+03  0.6220E+03
      0.517  0.1874E+03  0.6260E+03
      0.538  0.1849E+03  0.6299E+03
      0.559  0.1613E+03  0.6334E+03
      0.581  0.1572E+03  0.6367E+03
      0.602  0.1930E+03  0.6409E+03
      0.624  0.2243E+03  0.6457E+03
      0.645  0.2456E+03  0.6509E+03
      0.666  0.2733E+03  0.6568E+03
      0.688  0.2930E+03  0.6630E+03
      0.709  0.3125E+03  0.6697E+03
      0.731  0.3295E+03  0.6768E+03
      0.752  0.3310E+03  0.6839E+03
      0.773  0.3226E+03  0.6908E+03
      0.795  0.3005E+03  0.6972E+03
      0.816  0.2776E+03  0.7031E+03
      0.838  0.2698E+03  0.7089E+03
      0.859  0.2429E+03  0.7141E+03
      0.880  0.1880E+03  0.7181E+03
      0.902  0.1703E+03  0.7218E+03
      0.923  0.2027E+03  0.7261E+03
      0.945  0.2375E+03  0.7312E+03
      0.966  0.2594E+03  0.7367E+03
      0.987  0.2689E+03  0.7425E+03
      1.009  0.2651E+03  0.7482E+03
      1.030  0.2541E+03  0.7536E+03
      1.052  0.2367E+03  0.7587E+03
      1.073  0.2227E+03  0.7634E+03
      1.094  0.2027E+03  0.7678E+03
      1.116  0.1629E+03  0.7713E+03
      1.137  0.1379E+03  0.7742E+03
      1.159  0.1457E+03  0.7773E+03
      1.180  0.1510E+03  0.7806E+03
      1.201  0.1340E+03  0.7834E+03
      1.223  0.1130E+03  0.7858E+03
      1.244  0.1082E+03  0.7882E+03
      1.266  0.1150E+03  0.7906E+03
      1.287  0.1421E+03  0.7937E+03
      1.308  0.1887E+03  0.7977E+03
      1.330  0.2270E+03  0.8025E+03
      1.351  0.2454E+03  0.8078E+03
      1.372  0.2592E+03  0.8133E+03
      1.394  0.2677E+03  0.8191E+03
      1.415  0.2669E+03  0.8248E+03
      1.437  0.2670E+03  0.8305E+03
      1.458  0.2722E+03  0.8363E+03
      1.479  0.2755E+03  0.8422E+03
      1.501  0.2670E+03  0.8479E+03
      1.522  0.2517E+03  0.8533E+03
      1.544  0.2412E+03  0.8585E+03
      1.565  0.2219E+03  0.8632E+03
      1.586  0.1868E+03  0.8672E+03
      1.608  0.1658E+03  0.8708E+03
      1.629  0.1620E+03  0.8742E+03
      1.651  0.1443E+03  0.8773E+03
      1.672  0.1092E+03  0.8797E+03
      1.693  0.9721E+02  0.8817E+03
      1.715  0.1228E+03  0.8844E+03
      1.736  0.1567E+03  0.8877E+03
      1.758  0.1849E+03  0.8917E+03
      1.779  0.2005E+03  0.8960E+03
      1.800  0.1984E+03  0.9002E+03
      1.822  0.1854E+03  0.9042E+03
      1.843  0.1657E+03  0.9077E+03
      1.865  0.1501E+03  0.9109E+03
      1.886  0.1550E+03  0.9143E+03
      1.907  0.1602E+03  0.9177E+03
      1.929  0.1503E+03  0.9209E+03
      1.950  0.1437E+03  0.9240E+03
      1.972  0.1444E+03  0.9271E+03
      1.993  0.1410E+03  0.9301E+03
      2.014  0.1475E+03  0.9332E+03
      2.036  0.1537E+03  0.9365E+03
      2.057  0.1475E+03  0.9397E+03
      2.079  0.1342E+03  0.9426E+03
      2.100  0.1116E+03  0.9449E+03
      2.121  0.1005E+03  0.9471E+03
      2.143  0.1156E+03  0.9496E+03
      2.164  0.1435E+03  0.9526E+03
      2.186  0.1635E+03  0.9561E+03
      2.207  0.1691E+03  0.9598E+03
      2.228  0.1627E+03  0.9632E+03
      2.250  0.1613E+03  0.9667E+03
      2.271  0.1750E+03  0.9704E+03
      2.293  0.1928E+03  0.9746E+03
      2.314  0.1992E+03  0.9788E+03
      2.335  0.1786E+03  0.9826E+03
      2.357  0.1325E+03  0.9855E+03
      2.378  0.7868E+02  0.9872E+03
      2.400  0.4320E+02  0.9881E+03
      2.421  0.5155E+02  0.9892E+03
      2.442  0.8908E+02  0.9911E+03
      2.464  0.1083E+03  0.9934E+03
      2.485  0.1137E+03  0.9958E+03
      2.507  0.1223E+03  0.9985E+03
      2.528  0.1024E+03  0.1001E+04
      2.549  0.4990E+02  0.1002E+04
      2.571  0.1202E+02  0.1002E+04
      2.592  0.1302E+01  0.1002E+04
      2.614  0.5960E-01  0.1002E+04
      2.635  0.1103E-02  0.1002E+04
      2.656  0.7996E-05  0.1002E+04
      2.678  0.2221E-07  0.1002E+04
      2.699  0.2330E-10  0.1002E+04
      2.720  0.5189E-14  0.1002E+04
      2.742  0.0000E+00  0.1002E+04
      2.763  0.0000E+00  0.1002E+04
      2.785  0.0000E+00  0.1002E+04
      2.806  0.0000E+00  0.1002E+04
      2.827  0.0000E+00  0.1002E+04
