Li                                      
           1
    22.732500   -0.000000    0.000000
    -0.000000   22.732500    0.000000
     0.000000    0.000000   22.732500
   Li
   500
Direct configuration=     1
   0.00324398  0.99743659  0.98682478
   0.99358767  0.11043254  0.09935494
   0.01168941  0.20429455  0.20493593
   0.98311469  0.31069850  0.30699055
   0.00282970  0.40180801  0.41629208
   0.00863005  0.51088954  0.48118644
   0.00792017  0.58296665  0.61896134
   0.98819318  0.70102480  0.70045542
   0.98826301  0.79300006  0.80846978
   0.00196870  0.88452895  0.89292760
   0.09759163  0.98045432  0.10335861
   0.09346773  0.10172560  0.19776283
   0.10614312  0.19977428  0.29494696
   0.10191301  0.30016831  0.40779601
   0.08743435  0.39867822  0.49873758
   0.09428242  0.49851956  0.61127066
   0.09385408  0.61027830  0.71135480
   0.10056521  0.69946575  0.80058265
   0.09764174  0.79842160  0.89201419
   0.09738334  0.89174815  0.98653454
   0.20685405  0.99308553  0.21033184
   0.19082527  0.11182417  0.29724112
   0.21010039  0.19208003  0.40282380
   0.18809913  0.29184036  0.49850627
   0.19341905  0.39147446  0.60227226
   0.20432369  0.50474412  0.69905726
   0.19674174  0.60091612  0.79751771
   0.20165796  0.69233562  0.90919354
   0.21295814  0.80358464  0.00254231
   0.20869888  0.88691307  0.10185258
   0.30916278  0.01249666  0.30355259
   0.30601877  0.11276425  0.39458185
   0.28845632  0.20968339  0.50380719
   0.29281471  0.30715708  0.59415622
   0.28487970  0.39939590  0.69823038
   0.29790158  0.48281171  0.80664058
   0.29472106  0.59092798  0.89803117
   0.30822010  0.69551324  0.00645093
   0.31636609  0.79329678  0.10785884
   0.31055748  0.89854078  0.20566495
   0.40148590  0.00123392  0.41366863
   0.39577715  0.12425153  0.51015117
   0.39114136  0.21936195  0.61299892
   0.40074761  0.30224159  0.68942763
   0.38959516  0.40511106  0.79383988
   0.39574316  0.48797974  0.89809857
   0.41283879  0.60408749  0.99226907
   0.39862493  0.69724320  0.10008306
   0.38844913  0.78265959  0.21970108
   0.38469597  0.90871149  0.30378604
   0.49143285  0.02334193  0.49547870
   0.48951013  0.13337579  0.61906112
   0.49465635  0.20344426  0.70275366
   0.50937782  0.29082576  0.79875843
   0.50610359  0.39982347  0.89823285
   0.51026882  0.48837613  0.99679992
   0.51090738  0.58852653  0.10184214
   0.51083159  0.70801166  0.21358906
   0.49763441  0.80620624  0.32285549
   0.49865294  0.90560069  0.40512261
   0.58873326  0.01160554  0.58854105
   0.61505599  0.09618593  0.70655185
   0.59104156  0.18827661  0.81260089
   0.59934981  0.29080926  0.90817053
   0.59115715  0.40180552  0.00263872
   0.60701473  0.48538565  0.11665138
   0.60123218  0.59040901  0.20297420
   0.59404293  0.69091425  0.30377055
   0.60276637  0.78550969  0.40061604
   0.58902443  0.91301426  0.50533940
   0.69267176  0.00540131  0.69415230
   0.70469746  0.10444794  0.79812887
   0.68382600  0.20173733  0.89655579
   0.69117616  0.29478734  0.01287435
   0.70105530  0.38975710  0.10496027
   0.71003395  0.50723740  0.20002352
   0.70832753  0.60162297  0.30684411
   0.69407709  0.69022021  0.37986285
   0.70552054  0.80168112  0.49540247
   0.67969074  0.90583561  0.60323297
   0.79947512  0.98125504  0.78626756
   0.79383773  0.09833307  0.90825091
   0.80283450  0.20494268  0.98549129
   0.80281640  0.28761702  0.10227983
   0.80440161  0.39028512  0.18552590
   0.81087436  0.50512966  0.28842635
   0.80923395  0.59828381  0.38459827
   0.80754179  0.71134700  0.49135081
   0.79570754  0.79808771  0.58641772
   0.79668649  0.89196859  0.68218813
   0.89089650  0.98312695  0.89871700
   0.90294427  0.09942652  0.99332776
   0.90879097  0.20681799  0.09539052
   0.90612124  0.29777829  0.20008566
   0.89248278  0.38044295  0.30202627
   0.91736475  0.51095368  0.39909313
   0.90153062  0.61273952  0.51448870
   0.90044469  0.69213777  0.59131948
   0.89110655  0.79513593  0.69919869
   0.89694244  0.88685760  0.79710379
   0.09704293  0.09846068  0.99728888
   0.09006297  0.21622032  0.09073105
   0.10156161  0.31398843  0.20698790
   0.10072970  0.39789187  0.30632605
   0.11511445  0.50224536  0.39794894
   0.08667079  0.58831195  0.49604976
   0.11323909  0.70167613  0.59498111
   0.09829623  0.78101843  0.69815699
   0.10718441  0.90480256  0.79828760
   0.09529540  0.00841725  0.87986201
   0.19865616  0.10850011  0.10834857
   0.18836950  0.19639947  0.19828632
   0.20045482  0.30088602  0.30027107
   0.19536211  0.40454300  0.39664441
   0.19937823  0.48467409  0.49670368
   0.20458518  0.57404750  0.60335913
   0.19252590  0.70375304  0.70119833
   0.19776532  0.80291956  0.80280674
   0.20451536  0.90192776  0.89769900
   0.17960293  0.99293906  0.00497316
   0.30399223  0.10267032  0.19626522
   0.30144385  0.20376387  0.28340248
   0.30289163  0.30190044  0.38700247
   0.29562366  0.37474127  0.49989163
   0.30985054  0.46900987  0.58340214
   0.31616664  0.59519718  0.72143121
   0.30478799  0.69914998  0.79258351
   0.29272073  0.79103835  0.89758335
   0.31295252  0.89702259  0.99260649
   0.28881044  0.99417931  0.09717342
   0.40514942  0.11424654  0.30401566
   0.41152147  0.20852821  0.39931234
   0.41851205  0.29459875  0.49354788
   0.40392433  0.40452952  0.59075768
   0.39818640  0.46975617  0.71189086
   0.40155833  0.59258022  0.80098621
   0.38889489  0.69454300  0.89546142
   0.41901110  0.80842254  0.00954200
   0.40962473  0.90682163  0.09730786
   0.40049620  0.01864367  0.19669186
   0.50363952  0.12388015  0.40193265
   0.50925291  0.20338044  0.49606478
   0.49965875  0.30107076  0.59925502
   0.50494911  0.38260736  0.70406345
   0.49791422  0.48029610  0.80721826
   0.51170090  0.59762106  0.89999407
   0.49654728  0.70251800  0.99638161
   0.49784064  0.78246491  0.09531270
   0.49274916  0.90814341  0.20517765
   0.48591705  0.00313078  0.30993626
   0.60539681  0.12125989  0.51364953
   0.61134735  0.21021174  0.61281190
   0.60542053  0.30448952  0.69616259
   0.59533451  0.41101395  0.81872854
   0.60013119  0.50913696  0.90376796
   0.60355338  0.59598056  0.01376056
   0.58132392  0.71098484  0.10969690
   0.59454578  0.80629665  0.21206028
   0.59642404  0.91064738  0.31830467
   0.60063717  0.00997099  0.41900778
   0.69654028  0.09790929  0.59757805
   0.70242013  0.20820625  0.67869470
   0.71267679  0.28991542  0.79484143
   0.68994072  0.38728112  0.90635582
   0.70066802  0.49609111  0.01203444
   0.69615325  0.59598839  0.09528756
   0.68635577  0.70876663  0.20768504
   0.69589226  0.81601229  0.30265554
   0.69915612  0.90872816  0.41604178
   0.69991839  0.00504448  0.50618855
   0.80587890  0.09394349  0.70393146
   0.79775682  0.20173386  0.80381397
   0.79871538  0.30649735  0.88844054
   0.79674024  0.40160448  0.01710276
   0.81385597  0.50260375  0.11564247
   0.79754523  0.62355605  0.20702198
   0.81580033  0.70270585  0.29829742
   0.80212428  0.81761332  0.40706760
   0.79356626  0.90169331  0.50004586
   0.79896491  0.00102352  0.59855790
   0.89959130  0.09456464  0.81393660
   0.89786153  0.20782296  0.89311429
   0.90182580  0.31239807  0.99832789
   0.91360244  0.40714142  0.10153719
   0.91747788  0.51260210  0.19451048
   0.90573566  0.61330118  0.29376812
   0.89852970  0.71020323  0.40132297
   0.90220317  0.79545544  0.50907104
   0.89748970  0.88318727  0.59686904
   0.89003274  0.01263261  0.68810290
   0.98826497  0.10602782  0.90060896
   0.99513858  0.20267595  0.99456424
   0.00147386  0.31494344  0.09888625
   0.01420497  0.40871069  0.19680542
   0.00112246  0.49921125  0.32258828
   0.98954209  0.60705777  0.39651368
   0.99561516  0.70069290  0.51242030
   0.99845304  0.79880249  0.60505989
   0.99138012  0.88776259  0.69810417
   0.98171329  0.00135776  0.80625724
   0.20625780  0.21779149  0.99258439
   0.18819481  0.31003996  0.10258286
   0.19407224  0.40587262  0.20452817
   0.19294419  0.49875819  0.29058378
   0.20860010  0.60261094  0.41002887
   0.21759000  0.69000696  0.49927327
   0.20362809  0.80216505  0.60520180
   0.19588514  0.89395780  0.68887658
   0.20429883  0.01335249  0.79505191
   0.18827738  0.09671726  0.89530918
   0.29110809  0.20012906  0.09795571
   0.28321830  0.31467965  0.19974855
   0.29741493  0.39465676  0.31532995
   0.29953127  0.49509980  0.39373130
   0.30236222  0.58909225  0.49428066
   0.29587497  0.69268730  0.60652337
   0.29750881  0.81426692  0.70485359
   0.30230514  0.89941775  0.80426220
   0.28333471  0.00082638  0.90899144
   0.29144857  0.09568993  0.99961489
   0.38699316  0.21094558  0.19927672
   0.40441419  0.29886056  0.28957243
   0.39571707  0.40479229  0.38711495
   0.41336646  0.49309455  0.48732114
   0.39422205  0.58382509  0.59557914
   0.41509805  0.69542890  0.68987180
   0.41055011  0.79661701  0.79544026
   0.39940313  0.88889841  0.89506527
   0.39962104  0.99045106  0.98751953
   0.38641251  0.09575316  0.09570506
   0.50569650  0.21446353  0.28815402
   0.51113441  0.30610429  0.38289132
   0.51400024  0.40321652  0.48144498
   0.50499671  0.50139463  0.61143853
   0.48831894  0.57144591  0.70642819
   0.49842113  0.69127720  0.80338052
   0.48646199  0.79698169  0.90085768
   0.48800437  0.90955640  0.00606211
   0.48592388  0.00799289  0.07874976
   0.48914010  0.11433970  0.19962591
   0.60559151  0.20413703  0.39613568
   0.59592158  0.28539230  0.49826218
   0.59599693  0.40821120  0.59795801
   0.60523402  0.49012392  0.71105620
   0.59374184  0.60085305  0.78975729
   0.59337272  0.70477325  0.90009881
   0.60074271  0.82216088  0.01567296
   0.58221831  0.90139449  0.09359129
   0.58496673  0.01314978  0.20974526
   0.59454805  0.10841907  0.29573261
   0.70927954  0.19775522  0.50320579
   0.71155953  0.30568210  0.59376934
   0.70780963  0.39095571  0.69428864
   0.69045831  0.50444678  0.79298530
   0.68524597  0.61528544  0.89945299
   0.68638396  0.71291268  0.01736736
   0.66653097  0.81128792  0.11987772
   0.69337291  0.90128392  0.19754056
   0.69833416  0.00871682  0.29728089
   0.70033055  0.10743280  0.39306860
   0.80150328  0.18879139  0.59993124
   0.80350877  0.30024103  0.68732980
   0.79376675  0.41372451  0.78694345
   0.79536425  0.50055680  0.90611034
   0.79520968  0.59770013  0.00663299
   0.76729952  0.69567816  0.09979428
   0.80235186  0.80091750  0.20684997
   0.78994565  0.90842596  0.30615869
   0.78662374  0.99561463  0.40040413
   0.78814526  0.09499588  0.48859681
   0.89491205  0.18752207  0.70059042
   0.89897678  0.30971285  0.80852560
   0.90089472  0.39484151  0.89720746
   0.90397920  0.50374875  0.99391375
   0.90766201  0.59913088  0.09789658
   0.90878384  0.70874463  0.18305296
   0.90214649  0.80936095  0.30004184
   0.88566193  0.90625498  0.40967361
   0.90998067  0.99192244  0.50007233
   0.90282544  0.09244709  0.59505882
   0.99623826  0.20382599  0.79501107
   0.99280838  0.30320391  0.90203332
   0.99982504  0.39670469  0.99834246
   0.98429599  0.50424377  0.09473185
   0.01209180  0.58831028  0.20302944
   0.00727091  0.72411100  0.28979876
   0.00749163  0.80913233  0.40249344
   0.99863491  0.89902147  0.49957643
   0.02015865  0.99848984  0.60016881
   0.98490845  0.08350966  0.70568074
   0.10022273  0.20067376  0.88104697
   0.09397297  0.30353232  0.98640956
   0.09683746  0.41195090  0.10472571
   0.09186159  0.50075908  0.21065318
   0.10154604  0.60724082  0.31162009
   0.09946246  0.70824287  0.40890897
   0.12787316  0.80448525  0.50956325
   0.11447196  0.89471008  0.61000092
   0.09126679  0.99016465  0.70345436
   0.07542975  0.10010581  0.78629882
   0.30227346  0.29447784  0.99032917
   0.29510030  0.40963668  0.11237293
   0.30374506  0.51095288  0.19955346
   0.29341710  0.59292177  0.29476095
   0.30976224  0.68804978  0.39984317
   0.31356291  0.78977000  0.49736971
   0.31950885  0.89233855  0.60239624
   0.30056706  0.00055570  0.69778137
   0.30860475  0.10446418  0.79725292
   0.29426278  0.20237586  0.89460591
   0.39652464  0.30567915  0.09757425
   0.39321778  0.39665152  0.19529867
   0.40375654  0.48919383  0.29417417
   0.40093419  0.59933496  0.40517202
   0.39202452  0.68703971  0.51961985
   0.41839768  0.80400323  0.60485181
   0.40363102  0.90711282  0.68231658
   0.39683133  0.98189881  0.80546667
   0.39676171  0.08159691  0.89241877
   0.38708265  0.19555202  0.98733928
   0.49408529  0.28478578  0.20306575
   0.49669898  0.39156425  0.29024319
   0.51379643  0.50265610  0.39723167
   0.50918520  0.60042419  0.52006885
   0.51801384  0.69089294  0.60540350
   0.51349781  0.80515925  0.70427432
   0.48730833  0.91265508  0.80298668
   0.50513490  0.99699727  0.89834452
   0.49065336  0.10872020  0.97980634
   0.48299009  0.18382555  0.09982424
   0.60494003  0.30275860  0.27744122
   0.61557200  0.40003729  0.39223022
   0.61269420  0.50095476  0.49665839
   0.60494268  0.59674069  0.61763209
   0.58766275  0.70036220  0.68851644
   0.59447707  0.79495260  0.80303116
   0.58819255  0.90537811  0.88536698
   0.59155565  0.99895026  0.98206213
   0.60243882  0.10665651  0.08817387
   0.60542287  0.19011809  0.18784870
   0.69093767  0.29909005  0.39203576
   0.71963671  0.40104009  0.51028254
   0.71002212  0.51286426  0.61026457
   0.70633457  0.59508239  0.71519817
   0.69975393  0.69528775  0.79038578
   0.70118112  0.79754914  0.88957917
   0.68728927  0.89213493  0.02067934
   0.69906296  0.00786465  0.09030598
   0.71304758  0.10318498  0.18790665
   0.71385762  0.20969904  0.27813860
   0.80803825  0.30653500  0.50896308
   0.82027500  0.41206423  0.60158762
   0.78853880  0.50649700  0.69702228
   0.79816172  0.60271310  0.80349953
   0.78322878  0.70280532  0.90529122
   0.79678487  0.81322400  0.02132441
   0.80717706  0.89761806  0.11297483
   0.79408303  0.00602801  0.20833448
   0.80751617  0.10019773  0.30717331
   0.80726102  0.20652871  0.40972849
   0.91278963  0.29787684  0.59777880
   0.90477125  0.41315164  0.69392993
   0.88751948  0.50747526  0.80128265
   0.89511293  0.60467086  0.90345294
   0.88672441  0.69046298  0.00068619
   0.90945879  0.78800842  0.09124007
   0.89735460  0.88962904  0.21443605
   0.90569420  0.00180699  0.31146434
   0.91227513  0.08993252  0.40196673
   0.92046469  0.19786053  0.49809279
   0.99115280  0.31246973  0.69750841
   0.99180457  0.40628261  0.80173595
   0.99169100  0.49552206  0.88656946
   0.99661246  0.60580135  0.98566176
   0.01012164  0.69259623  0.10118664
   0.00549176  0.81105290  0.18961932
   0.00516407  0.89646538  0.31083577
   0.01263335  0.98911644  0.41008497
   0.00017445  0.09057124  0.49755946
   0.01132130  0.20466465  0.60606950
   0.08676807  0.29996644  0.80082330
   0.08759292  0.39728916  0.88694210
   0.09026632  0.49607446  0.98753963
   0.10100815  0.61185079  0.09911899
   0.10272000  0.70308600  0.19533534
   0.12031024  0.80407503  0.29867254
   0.11760513  0.89299369  0.41105007
   0.10423574  0.00256309  0.51295092
   0.08997351  0.10565672  0.61041694
   0.08587979  0.19288902  0.71718405
   0.20931641  0.30252233  0.87594898
   0.18131404  0.39766359  0.99191450
   0.18371574  0.50929418  0.10184044
   0.19846786  0.60157654  0.20556326
   0.21241360  0.68994677  0.30527681
   0.22237119  0.78824537  0.38753608
   0.22389768  0.89359045  0.51795246
   0.20207210  0.00266867  0.61941382
   0.19965198  0.10183050  0.70444723
   0.20342426  0.18778321  0.79431625
   0.40568135  0.40639286  0.99271166
   0.40078722  0.49485041  0.07509337
   0.41127158  0.60240002  0.19896377
   0.41838630  0.69704547  0.32323916
   0.39025934  0.78552960  0.41356192
   0.40082106  0.89898936  0.50620624
   0.40528567  0.02323541  0.59111669
   0.40482058  0.09533641  0.71227227
   0.39217790  0.21597346  0.80224334
   0.39218944  0.31651909  0.88643241
   0.48781500  0.39258803  0.10887190
   0.48914568  0.49520010  0.19988207
   0.51639159  0.58539901  0.29589561
   0.50131357  0.69042163  0.40757076
   0.50049347  0.80180403  0.49124085
   0.51410635  0.90922749  0.59020876
   0.49130686  0.00445979  0.70635022
   0.49709000  0.10704074  0.80433105
   0.47875305  0.20772686  0.88242628
   0.48972559  0.28373433  0.98585159
   0.60903014  0.40344205  0.19048798
   0.61183257  0.49020877  0.28191595
   0.59601814  0.58910732  0.39341154
   0.60748566  0.68736162  0.49652332
   0.59641659  0.79544920  0.58563961
   0.58802234  0.89945359  0.68994662
   0.59931382  0.00900049  0.79809525
   0.59442868  0.09109082  0.90653748
   0.58997472  0.18642761  0.98889606
   0.58232639  0.29007547  0.07885554
   0.71144561  0.39766963  0.29074058
   0.69721113  0.49820200  0.39405555
   0.71568407  0.59794674  0.49194947
   0.70671614  0.69178770  0.59250196
   0.71241271  0.79825353  0.68755741
   0.70041773  0.88929470  0.79557217
   0.69811966  0.98957003  0.89071452
   0.68983150  0.09423698  0.00518444
   0.69364517  0.19059020  0.09786800
   0.70316484  0.29416843  0.18047820
   0.80565614  0.40295043  0.39304824
   0.82068153  0.50513797  0.48353844
   0.79887470  0.59345271  0.59785498
   0.79515610  0.69385290  0.69261080
   0.80951326  0.78908021  0.81442087
   0.81087882  0.88904507  0.90027598
   0.78628725  0.98786911  0.01092426
   0.79744631  0.10567791  0.09306444
   0.80586094  0.18157482  0.20524805
   0.79256507  0.29754021  0.29446722
   0.89688786  0.39031178  0.48455233
   0.91173879  0.49865357  0.59122664
   0.88932385  0.59712799  0.69021893
   0.88935530  0.68907246  0.80021165
   0.89312311  0.79798763  0.91110049
   0.91330958  0.89893621  0.99005361
   0.90654337  0.99478591  0.09390243
   0.91126925  0.10748331  0.20186104
   0.89803717  0.19412837  0.29424078
   0.90320279  0.29604325  0.40362663
   0.00034731  0.41679712  0.60435590
   0.00552056  0.51827324  0.70613250
   0.00176534  0.59171982  0.81150100
   0.99651270  0.70490677  0.88958258
   0.00890397  0.78328035  0.00357427
   0.97503589  0.89021820  0.09539808
   0.99892461  0.99743139  0.20074801
   0.01134058  0.09722029  0.28490988
   0.00994728  0.18811033  0.38762981
   0.00427276  0.29894889  0.51096554
   0.11133940  0.40522028  0.71387083
   0.09448664  0.50244225  0.80384381
   0.09088036  0.60481095  0.89949199
   0.11355262  0.70595623  0.00925055
   0.10491682  0.80570402  0.09634879
   0.10098004  0.89682377  0.20121337
   0.11484234  0.99441600  0.30723243
   0.10143473  0.09268467  0.39603988
   0.09960987  0.21187144  0.49821194
   0.09299927  0.31498758  0.61647677
   0.19142156  0.40241453  0.79927755
   0.19081971  0.50295627  0.90187217
   0.20465727  0.58865420  0.00444163
   0.20570779  0.69522701  0.10155143
   0.20018364  0.79755888  0.21697831
   0.22421887  0.90094267  0.30761471
   0.22193360  0.01377844  0.41360884
   0.20741297  0.11462519  0.51976799
   0.19808450  0.20974392  0.61288935
   0.20202340  0.29307117  0.72037860
   0.28674754  0.40257888  0.89167432
   0.28178581  0.48202647  0.99581467
   0.30515761  0.59115356  0.10107163
   0.29327170  0.68684535  0.19610987
   0.31450118  0.80289161  0.30502858
   0.30716269  0.90267445  0.39967688
   0.30439491  0.00738831  0.50234499
   0.30602091  0.11244388  0.61155528
   0.29568333  0.21921931  0.70944873
   0.28956689  0.30952225  0.80974889
