 500 500   0   0
  0.2029568E+02  0.2165000E-08  0.2165000E-08  0.2165000E-08  0.5000000E-15
  1.000000000000000E-004
  CAR 
 Li                                      
      3.47865227     -3.43877567  301      0.39065415      1.00000000
     -3.439  0.0000E+00  0.0000E+00
     -3.416  0.0000E+00  0.0000E+00
     -3.393  0.0000E+00  0.0000E+00
     -3.370  0.0000E+00  0.0000E+00
     -3.347  0.0000E+00  0.0000E+00
     -3.323  0.0000E+00  0.0000E+00
     -3.300  0.4815E-14  0.1110E-15
     -3.277  0.2272E-10  0.5239E-12
     -3.254  0.3761E-07  0.8678E-09
     -3.231  0.1963E-04  0.4534E-06
     -3.208  0.3257E-02  0.7555E-04
     -3.185  0.1741E+00  0.4090E-02
     -3.162  0.3049E+01  0.7439E-01
     -3.139  0.1784E+02  0.4857E+00
     -3.116  0.3546E+02  0.1303E+01
     -3.093  0.2418E+02  0.1861E+01
     -3.070  0.6501E+01  0.2011E+01
     -3.047  0.1069E+02  0.2257E+01
     -3.024  0.4617E+02  0.3322E+01
     -3.001  0.8934E+02  0.5382E+01
     -2.978  0.7840E+02  0.7190E+01
     -2.955  0.3066E+02  0.7897E+01
     -2.931  0.1152E+02  0.8162E+01
     -2.908  0.3756E+02  0.9028E+01
     -2.885  0.8442E+02  0.1097E+02
     -2.862  0.8490E+02  0.1293E+02
     -2.839  0.3886E+02  0.1383E+02
     -2.816  0.1447E+02  0.1416E+02
     -2.793  0.4113E+02  0.1511E+02
     -2.770  0.1001E+03  0.1742E+02
     -2.747  0.1162E+03  0.2010E+02
     -2.724  0.6554E+02  0.2161E+02
     -2.701  0.2673E+02  0.2223E+02
     -2.678  0.5407E+02  0.2347E+02
     -2.655  0.1249E+03  0.2635E+02
     -2.632  0.1651E+03  0.3016E+02
     -2.609  0.1197E+03  0.3292E+02
     -2.586  0.4206E+02  0.3389E+02
     -2.563  0.1951E+02  0.3434E+02
     -2.540  0.5984E+02  0.3572E+02
     -2.516  0.9960E+02  0.3802E+02
     -2.493  0.6669E+02  0.3955E+02
     -2.470  0.2169E+02  0.4005E+02
     -2.447  0.3107E+02  0.4077E+02
     -2.424  0.9965E+02  0.4307E+02
     -2.401  0.1698E+03  0.4698E+02
     -2.378  0.1464E+03  0.5036E+02
     -2.355  0.6559E+02  0.5187E+02
     -2.332  0.5077E+02  0.5304E+02
     -2.309  0.1281E+03  0.5600E+02
     -2.286  0.2122E+03  0.6089E+02
     -2.263  0.2136E+03  0.6582E+02
     -2.240  0.1326E+03  0.6887E+02
     -2.217  0.4829E+02  0.6999E+02
     -2.194  0.3676E+02  0.7083E+02
     -2.171  0.7407E+02  0.7254E+02
     -2.148  0.8442E+02  0.7449E+02
     -2.124  0.5113E+02  0.7567E+02
     -2.101  0.2854E+02  0.7632E+02
     -2.078  0.7144E+02  0.7797E+02
     -2.055  0.1609E+03  0.8168E+02
     -2.032  0.1943E+03  0.8616E+02
     -2.009  0.1240E+03  0.8902E+02
     -1.986  0.5144E+02  0.9021E+02
     -1.963  0.7735E+02  0.9199E+02
     -1.940  0.1776E+03  0.9609E+02
     -1.917  0.2322E+03  0.1014E+03
     -1.894  0.1820E+03  0.1056E+03
     -1.871  0.8444E+02  0.1076E+03
     -1.848  0.3856E+02  0.1085E+03
     -1.825  0.8562E+02  0.1104E+03
     -1.802  0.1616E+03  0.1142E+03
     -1.779  0.1564E+03  0.1178E+03
     -1.756  0.8351E+02  0.1197E+03
     -1.732  0.6501E+02  0.1212E+03
     -1.709  0.1482E+03  0.1246E+03
     -1.686  0.2300E+03  0.1299E+03
     -1.663  0.2092E+03  0.1347E+03
     -1.640  0.1145E+03  0.1374E+03
     -1.617  0.6233E+02  0.1388E+03
     -1.594  0.1136E+03  0.1414E+03
     -1.571  0.1973E+03  0.1460E+03
     -1.548  0.2199E+03  0.1511E+03
     -1.525  0.1510E+03  0.1545E+03
     -1.502  0.6663E+02  0.1561E+03
     -1.479  0.7013E+02  0.1577E+03
     -1.456  0.1374E+03  0.1609E+03
     -1.433  0.1577E+03  0.1645E+03
     -1.410  0.1074E+03  0.1670E+03
     -1.387  0.5708E+02  0.1683E+03
     -1.364  0.7942E+02  0.1701E+03
     -1.340  0.1389E+03  0.1733E+03
     -1.317  0.1501E+03  0.1768E+03
     -1.294  0.1050E+03  0.1792E+03
     -1.271  0.7355E+02  0.1809E+03
     -1.248  0.1393E+03  0.1841E+03
     -1.225  0.2572E+03  0.1900E+03
     -1.202  0.3299E+03  0.1977E+03
     -1.179  0.2971E+03  0.2045E+03
     -1.156  0.1812E+03  0.2087E+03
     -1.133  0.1065E+03  0.2111E+03
     -1.110  0.1555E+03  0.2147E+03
     -1.087  0.2246E+03  0.2199E+03
     -1.064  0.2027E+03  0.2246E+03
     -1.041  0.1204E+03  0.2274E+03
     -1.018  0.6985E+02  0.2290E+03
     -0.995  0.9213E+02  0.2311E+03
     -0.972  0.1574E+03  0.2347E+03
     -0.949  0.1833E+03  0.2389E+03
     -0.925  0.1427E+03  0.2422E+03
     -0.902  0.1516E+03  0.2457E+03
     -0.879  0.2141E+03  0.2507E+03
     -0.856  0.2468E+03  0.2564E+03
     -0.833  0.2268E+03  0.2616E+03
     -0.810  0.1407E+03  0.2648E+03
     -0.787  0.5335E+02  0.2661E+03
     -0.764  0.4940E+02  0.2672E+03
     -0.741  0.8960E+02  0.2693E+03
     -0.718  0.8252E+02  0.2712E+03
     -0.695  0.5521E+02  0.2724E+03
     -0.672  0.1071E+03  0.2749E+03
     -0.649  0.2217E+03  0.2800E+03
     -0.626  0.2935E+03  0.2868E+03
     -0.603  0.3045E+03  0.2938E+03
     -0.580  0.2809E+03  0.3003E+03
     -0.557  0.2303E+03  0.3056E+03
     -0.533  0.1952E+03  0.3101E+03
     -0.510  0.2222E+03  0.3152E+03
     -0.487  0.2805E+03  0.3217E+03
     -0.464  0.2813E+03  0.3282E+03
     -0.441  0.2035E+03  0.3329E+03
     -0.418  0.1263E+03  0.3358E+03
     -0.395  0.1029E+03  0.3382E+03
     -0.372  0.1267E+03  0.3411E+03
     -0.349  0.1438E+03  0.3444E+03
     -0.326  0.1620E+03  0.3481E+03
     -0.303  0.1879E+03  0.3525E+03
     -0.280  0.1892E+03  0.3568E+03
     -0.257  0.1881E+03  0.3612E+03
     -0.234  0.1712E+03  0.3651E+03
     -0.211  0.1489E+03  0.3685E+03
     -0.188  0.1836E+03  0.3728E+03
     -0.165  0.2527E+03  0.3786E+03
     -0.141  0.2993E+03  0.3855E+03
     -0.118  0.2865E+03  0.3921E+03
     -0.095  0.2197E+03  0.3972E+03
     -0.072  0.1873E+03  0.4015E+03
     -0.049  0.2044E+03  0.4062E+03
     -0.026  0.1967E+03  0.4107E+03
     -0.003  0.1462E+03  0.4141E+03
      0.020  0.1179E+03  0.4168E+03
      0.043  0.1614E+03  0.4206E+03
      0.066  0.2332E+03  0.4259E+03
      0.089  0.2681E+03  0.4321E+03
      0.112  0.2557E+03  0.4380E+03
      0.135  0.2236E+03  0.4432E+03
      0.158  0.1983E+03  0.4477E+03
      0.181  0.1999E+03  0.4523E+03
      0.204  0.2095E+03  0.4572E+03
      0.227  0.1969E+03  0.4617E+03
      0.251  0.1880E+03  0.4661E+03
      0.274  0.2065E+03  0.4708E+03
      0.297  0.2332E+03  0.4762E+03
      0.320  0.2557E+03  0.4821E+03
      0.343  0.2677E+03  0.4883E+03
      0.366  0.2563E+03  0.4942E+03
      0.389  0.2354E+03  0.4996E+03
      0.412  0.2210E+03  0.5047E+03
      0.435  0.2272E+03  0.5099E+03
      0.458  0.2379E+03  0.5154E+03
      0.481  0.2362E+03  0.5209E+03
      0.504  0.2388E+03  0.5264E+03
      0.527  0.2576E+03  0.5323E+03
      0.550  0.2955E+03  0.5391E+03
      0.573  0.3324E+03  0.5468E+03
      0.596  0.3390E+03  0.5546E+03
      0.619  0.3220E+03  0.5620E+03
      0.643  0.3073E+03  0.5691E+03
      0.666  0.2913E+03  0.5758E+03
      0.689  0.2766E+03  0.5822E+03
      0.712  0.2559E+03  0.5881E+03
      0.735  0.2279E+03  0.5934E+03
      0.758  0.2059E+03  0.5981E+03
      0.781  0.1983E+03  0.6027E+03
      0.804  0.2004E+03  0.6073E+03
      0.827  0.1913E+03  0.6117E+03
      0.850  0.1715E+03  0.6157E+03
      0.873  0.1567E+03  0.6193E+03
      0.896  0.1620E+03  0.6230E+03
      0.919  0.1767E+03  0.6271E+03
      0.942  0.1795E+03  0.6312E+03
      0.965  0.1741E+03  0.6352E+03
      0.988  0.1900E+03  0.6396E+03
      1.011  0.2128E+03  0.6445E+03
      1.034  0.2273E+03  0.6498E+03
      1.058  0.2375E+03  0.6553E+03
      1.081  0.2410E+03  0.6608E+03
      1.104  0.2437E+03  0.6664E+03
      1.127  0.2525E+03  0.6722E+03
      1.150  0.2599E+03  0.6782E+03
      1.173  0.2621E+03  0.6843E+03
      1.196  0.2634E+03  0.6904E+03
      1.219  0.2532E+03  0.6962E+03
      1.242  0.2401E+03  0.7017E+03
      1.265  0.2294E+03  0.7070E+03
      1.288  0.2182E+03  0.7121E+03
      1.311  0.2019E+03  0.7167E+03
      1.334  0.1933E+03  0.7212E+03
      1.357  0.1967E+03  0.7257E+03
      1.380  0.2129E+03  0.7306E+03
      1.403  0.2182E+03  0.7356E+03
      1.426  0.2098E+03  0.7405E+03
      1.450  0.2118E+03  0.7454E+03
      1.473  0.2172E+03  0.7504E+03
      1.496  0.2061E+03  0.7551E+03
      1.519  0.2003E+03  0.7597E+03
      1.542  0.1885E+03  0.7641E+03
      1.565  0.1728E+03  0.7681E+03
      1.588  0.1634E+03  0.7718E+03
      1.611  0.1510E+03  0.7753E+03
      1.634  0.1458E+03  0.7787E+03
      1.657  0.1510E+03  0.7822E+03
      1.680  0.1505E+03  0.7856E+03
      1.703  0.1451E+03  0.7890E+03
      1.726  0.1436E+03  0.7923E+03
      1.749  0.1539E+03  0.7958E+03
      1.772  0.1701E+03  0.7998E+03
      1.795  0.1847E+03  0.8040E+03
      1.818  0.1989E+03  0.8086E+03
      1.842  0.2125E+03  0.8135E+03
      1.865  0.2157E+03  0.8185E+03
      1.888  0.2114E+03  0.8234E+03
      1.911  0.2252E+03  0.8286E+03
      1.934  0.2370E+03  0.8340E+03
      1.957  0.2252E+03  0.8392E+03
      1.980  0.2115E+03  0.8441E+03
      2.003  0.2005E+03  0.8487E+03
      2.026  0.1906E+03  0.8531E+03
      2.049  0.1850E+03  0.8574E+03
      2.072  0.1725E+03  0.8613E+03
      2.095  0.1538E+03  0.8649E+03
      2.118  0.1255E+03  0.8678E+03
      2.141  0.1153E+03  0.8704E+03
      2.164  0.1320E+03  0.8735E+03
      2.187  0.1480E+03  0.8769E+03
      2.210  0.1602E+03  0.8806E+03
      2.234  0.1663E+03  0.8844E+03
      2.257  0.1592E+03  0.8881E+03
      2.280  0.1553E+03  0.8917E+03
      2.303  0.1593E+03  0.8954E+03
      2.326  0.1560E+03  0.8990E+03
      2.349  0.1461E+03  0.9023E+03
      2.372  0.1449E+03  0.9057E+03
      2.395  0.1367E+03  0.9088E+03
      2.418  0.1294E+03  0.9118E+03
      2.441  0.1386E+03  0.9150E+03
      2.464  0.1494E+03  0.9184E+03
      2.487  0.1539E+03  0.9220E+03
      2.510  0.1527E+03  0.9255E+03
      2.533  0.1625E+03  0.9293E+03
      2.556  0.1662E+03  0.9331E+03
      2.579  0.1618E+03  0.9368E+03
      2.602  0.1569E+03  0.9404E+03
      2.626  0.1316E+03  0.9435E+03
      2.649  0.1066E+03  0.9459E+03
      2.672  0.1059E+03  0.9484E+03
      2.695  0.1250E+03  0.9513E+03
      2.718  0.1433E+03  0.9546E+03
      2.741  0.1529E+03  0.9581E+03
      2.764  0.1554E+03  0.9617E+03
      2.787  0.1601E+03  0.9654E+03
      2.810  0.1741E+03  0.9694E+03
      2.833  0.1683E+03  0.9733E+03
      2.856  0.1460E+03  0.9766E+03
      2.879  0.1343E+03  0.9797E+03
      2.902  0.1242E+03  0.9826E+03
      2.925  0.1037E+03  0.9850E+03
      2.948  0.7730E+02  0.9868E+03
      2.971  0.4572E+02  0.9878E+03
      2.994  0.3313E+02  0.9886E+03
      3.017  0.5077E+02  0.9897E+03
      3.041  0.7797E+02  0.9915E+03
      3.064  0.1004E+03  0.9939E+03
      3.087  0.1048E+03  0.9963E+03
      3.110  0.1036E+03  0.9987E+03
      3.133  0.8359E+02  0.1001E+04
      3.156  0.4060E+02  0.1002E+04
      3.179  0.1491E+02  0.1002E+04
      3.202  0.4878E+01  0.1002E+04
      3.225  0.7801E+00  0.1002E+04
      3.248  0.4435E-01  0.1002E+04
      3.271  0.8332E-03  0.1002E+04
      3.294  0.5049E-05  0.1002E+04
      3.317  0.9731E-08  0.1002E+04
      3.340  0.5913E-11  0.1002E+04
      3.363  0.0000E+00  0.1002E+04
      3.386  0.0000E+00  0.1002E+04
      3.409  0.0000E+00  0.1002E+04
      3.433  0.0000E+00  0.1002E+04
      3.456  0.0000E+00  0.1002E+04
      3.479  0.0000E+00  0.1002E+04
