 running on   64 total cores
 distrk:  each k-point on   32 cores,    2 groups
 distr:  one band on   32 cores,    1 groups
 vasp.6.2.1 16May21 (build Nov 23 2021 15:40:41) complex                        
  
 POSCAR found type information on POSCAR Li
 POSCAR found :  1 types and     500 ions
 scaLAPACK will be used
 -----------------------------------------------------------------------------
|                                                                             |
|           W    W    AA    RRRRR   N    N  II  N    N   GGGG   !!!           |
|           W    W   A  A   R    R  NN   N  II  NN   N  G    G  !!!           |
|           W    W  A    A  R    R  N N  N  II  N N  N  G       !!!           |
|           W WW W  AAAAAA  RRRRR   N  N N  II  N  N N  G  GGG   !            |
|           WW  WW  A    A  R   R   N   NN  II  N   NN  G    G                |
|           W    W  A    A  R    R  N    N  II  N    N   GGGG   !!!           |
|                                                                             |
|     For optimal performance we recommend to set                             |
|       NCORE = 2 up to number-of-cores-per-socket                            |
|     NCORE specifies how many cores store one orbital (NPAR=cpu/NCORE).      |
|     This setting can greatly improve the performance of VASP for DFT.       |
|     The default, NCORE=1 might be grossly inefficient on modern             |
|     multi-core architectures or massively parallel machines. Do your        |
|     own testing! More info at https://www.vasp.at/wiki/index.php/NCORE      |
|     Unfortunately you need to use the default for GW and RPA                |
|     calculations (for HF NCORE is supported but not extensively tested      |
|     yet).                                                                   |
|                                                                             |
 -----------------------------------------------------------------------------

 -----------------------------------------------------------------------------
|                                                                             |
|               ----> ADVICE to this user running VASP <----                  |
|                                                                             |
|     You have a (more or less) 'large supercell' and for larger cells it     |
|     might be more efficient to use real-space projection operators.         |
|     Therefore, try LREAL= Auto in the INCAR file.                           |
|     Mind: If you want to do very accurate calculations, keep the            |
|     reciprocal projection scheme (i.e. LREAL=.FALSE.).                      |
|                                                                             |
 -----------------------------------------------------------------------------

 LDA part: xc-table for Pade appr. of Perdew
 POSCAR found type information on POSCAR Li
 POSCAR found :  1 types and     500 ions
 POSCAR, INCAR and KPOINTS ok, starting setup
 FFT: planning ...
 WAVECAR not read
 entering main loop
       N       E                     dE             d eps       ncg     rms          rms(c)
DAV:   1    -0.284943639502E+03   -0.28494E+03   -0.12127E+05  4008   0.656E+02
DAV:   2    -0.879662298039E+03   -0.59472E+03   -0.54491E+03  4604   0.672E+01
DAV:   3    -0.922134121193E+03   -0.42472E+02   -0.38712E+02  5216   0.141E+01
DAV:   4    -0.923571773919E+03   -0.14377E+01   -0.14161E+01  4664   0.284E+00
DAV:   5    -0.923605283270E+03   -0.33509E-01   -0.33453E-01  4848   0.458E-01    0.869E+00
DAV:   6    -0.920901546284E+03    0.27037E+01   -0.97860E+00  4632   0.424E+00    0.732E+00
DAV:   7    -0.915378900961E+03    0.55226E+01   -0.83468E+00  4680   0.417E+00    0.479E+00
DAV:   8    -0.912806524899E+03    0.25724E+01   -0.42548E+00  4664   0.233E+00    0.268E+00
DAV:   9    -0.912208455131E+03    0.59807E+00   -0.24738E+00  4392   0.126E+00    0.129E+00
DAV:  10    -0.912330164148E+03   -0.12171E+00   -0.59218E-01  4872   0.822E-01    0.129E+00
DAV:  11    -0.912138875238E+03    0.19129E+00   -0.28774E-01  4616   0.569E-01    0.562E-01
DAV:  12    -0.912132107729E+03    0.67675E-02   -0.75334E-02  4416   0.230E-01    0.301E-01
DAV:  13    -0.912132514352E+03   -0.40662E-03   -0.20343E-02  4680   0.156E-01    0.224E-01
DAV:  14    -0.912128778517E+03    0.37358E-02   -0.71338E-03  4632   0.109E-01    0.135E-01
DAV:  15    -0.912127197524E+03    0.15810E-02   -0.21734E-03  4544   0.545E-02    0.556E-02
DAV:  16    -0.912127267438E+03   -0.69914E-04   -0.10342E-03  4576   0.307E-02    0.394E-02
DAV:  17    -0.912127090017E+03    0.17742E-03   -0.40564E-04  4624   0.217E-02    0.188E-02
DAV:  18    -0.912127058915E+03    0.31102E-04   -0.82529E-05  4400   0.874E-03    0.994E-03
DAV:  19    -0.912127047381E+03    0.11534E-04   -0.25177E-05  3184   0.510E-03    0.550E-03
DAV:  20    -0.912127045567E+03    0.18142E-05   -0.79861E-06  2472   0.365E-03
   1 F= -.91212705E+03 E0= -.91207644E+03  d E =-.101220E+00
