Li                                      
           1
    21.650000    0.000000    0.000000
     0.000000   21.650000    0.000000
    -0.000000   -0.000000   21.650000
   Li
   500
Direct configuration=     1
   0.99969376  0.00159690  0.00075841
   0.00776901  0.10533887  0.10710568
   0.99753459  0.19976739  0.18978110
   0.00470060  0.29741804  0.29900549
   0.00053695  0.40428875  0.37204639
   0.99476211  0.49771572  0.46452679
   0.97779390  0.60838576  0.59399667
   0.99085592  0.69372445  0.70447146
   0.02212912  0.79853886  0.79557592
   0.98690435  0.92868556  0.89577324
   0.12428307  0.03000271  0.10818159
   0.12729217  0.11317266  0.19062403
   0.08969694  0.21111929  0.30861958
   0.10780833  0.30109531  0.39677826
   0.10393531  0.41713483  0.48715076
   0.07735763  0.49020554  0.60650181
   0.06392084  0.56933118  0.71486694
   0.07793129  0.68882967  0.81214919
   0.10143672  0.81510117  0.89764763
   0.11223166  0.90888706  0.01752279
   0.22011247  0.01367122  0.18818039
   0.20830500  0.10125016  0.31730134
   0.20017901  0.20118108  0.40336691
   0.20909919  0.29268712  0.51349265
   0.18659970  0.40819324  0.57841012
   0.19280227  0.50181568  0.68593608
   0.19576248  0.59933368  0.78159319
   0.18059569  0.69823955  0.88273494
   0.18462238  0.80227196  0.97326728
   0.23302215  0.91341976  0.08435759
   0.30822661  0.00644437  0.29485440
   0.30181378  0.09959730  0.41073638
   0.29160682  0.18955449  0.49479626
   0.28040022  0.27117790  0.59910653
   0.27738368  0.38161681  0.67305663
   0.29005403  0.49295171  0.78211426
   0.29551388  0.58158213  0.90364430
   0.29640458  0.70430188  0.00196131
   0.29715964  0.78820713  0.09171312
   0.30801159  0.90448840  0.21563111
   0.39156065  0.00063877  0.39892103
   0.40368284  0.08647198  0.51287250
   0.39981713  0.19744632  0.58808277
   0.40015132  0.29402322  0.69362412
   0.37808314  0.38996835  0.78197472
   0.38162830  0.48955910  0.86968464
   0.39501814  0.62638384  0.98490845
   0.39836705  0.71251879  0.09140692
   0.40253460  0.80904406  0.18664960
   0.39309755  0.90034981  0.32826410
   0.49010985  0.99344436  0.49264392
   0.51930675  0.09756277  0.60026820
   0.50847002  0.20937870  0.70497932
   0.49653036  0.30409196  0.79117080
   0.49346100  0.39678432  0.89362307
   0.47264365  0.50936769  0.00211236
   0.48545383  0.61127051  0.08909981
   0.49477938  0.67739311  0.19135183
   0.48342111  0.78602525  0.30301028
   0.50142031  0.88994140  0.38909593
   0.58848082  0.99579539  0.59690532
   0.59257246  0.09776004  0.69969099
   0.61118975  0.19903973  0.81256103
   0.60413764  0.28235323  0.89499465
   0.58545753  0.40328193  0.98320755
   0.57588515  0.51356109  0.07665566
   0.61523229  0.60133484  0.19775872
   0.60448767  0.71149833  0.28709153
   0.59924006  0.79797696  0.38843426
   0.57864635  0.89014473  0.48842425
   0.69232260  0.99408411  0.68816825
   0.71520536  0.09660193  0.79576338
   0.70842087  0.20771963  0.90930302
   0.68571913  0.30841324  0.99051224
   0.68886535  0.40129322  0.08969107
   0.70558723  0.50723272  0.19189660
   0.67691504  0.61418718  0.30657778
   0.68902135  0.70339948  0.41826505
   0.69072572  0.78184567  0.48546414
   0.69880056  0.90300959  0.59439076
   0.78685023  0.00152550  0.78604793
   0.79074303  0.08671866  0.90447166
   0.80682241  0.20620704  0.00077581
   0.78253959  0.28262655  0.09785788
   0.79073577  0.39266833  0.18307213
   0.78211126  0.50252658  0.29634101
   0.80968226  0.60627416  0.42035796
   0.79678401  0.70822027  0.49494191
   0.78288202  0.81050799  0.59940014
   0.79837341  0.90577301  0.70174114
   0.88286573  0.99546730  0.90504267
   0.88212643  0.07940692  0.02423420
   0.91654781  0.20480394  0.09280228
   0.88756284  0.30514732  0.19574415
   0.86464850  0.39999040  0.29302290
   0.88958572  0.48961059  0.38349332
   0.90776314  0.60489219  0.50054181
   0.88932167  0.70897238  0.60193724
   0.88491088  0.78890464  0.70499819
   0.89497890  0.89338627  0.79636787
   0.09777424  0.11366805  0.00308124
   0.11539616  0.20577394  0.10788720
   0.10663847  0.28964546  0.20846417
   0.11524433  0.39759742  0.29161028
   0.12204186  0.48987107  0.37787173
   0.08928876  0.59702699  0.46547780
   0.10144602  0.68299088  0.60746848
   0.09878823  0.78295247  0.69789822
   0.09631906  0.91807012  0.80590465
   0.09627028  0.99925018  0.90385912
   0.21549968  0.10547154  0.08506704
   0.20626627  0.18969575  0.20824821
   0.20443817  0.28411476  0.28796885
   0.21149418  0.37772151  0.38902956
   0.19133328  0.49083621  0.49190922
   0.15908876  0.58034199  0.58233651
   0.18027686  0.67966977  0.69350669
   0.19488787  0.79400894  0.80470839
   0.18634584  0.91712661  0.90209498
   0.22427169  0.00372026  0.99604983
   0.30945875  0.09231511  0.20000763
   0.30620480  0.19071880  0.31583804
   0.29816027  0.29194607  0.40012547
   0.30580983  0.41131972  0.50040440
   0.29732099  0.50075433  0.58822661
   0.29722713  0.60597003  0.68227363
   0.28862638  0.68448410  0.79509831
   0.29875345  0.78500667  0.88939085
   0.30573011  0.88639222  0.99769266
   0.30979492  0.02049139  0.10709867
   0.39376751  0.11371064  0.30097565
   0.40372392  0.20006477  0.41498020
   0.38531726  0.30269577  0.50189029
   0.37879053  0.39064182  0.59114250
   0.39910855  0.49303671  0.70399489
   0.39694915  0.60525710  0.78975578
   0.39793961  0.68488177  0.91221338
   0.40016278  0.79749573  0.98749924
   0.38972861  0.89261156  0.09236625
   0.40539832  0.00313390  0.19832671
   0.48919739  0.09629094  0.41208232
   0.50321054  0.22303052  0.49216626
   0.49377280  0.28463550  0.60712713
   0.48471684  0.38122281  0.70087752
   0.50221797  0.48892423  0.80726597
   0.50196239  0.57794539  0.90193216
   0.51981636  0.71110954  0.98520689
   0.51550219  0.82833507  0.10350031
   0.50879767  0.90753363  0.21961517
   0.48834086  0.01833750  0.30571508
   0.59194393  0.11386207  0.50782776
   0.60703798  0.21170919  0.63051478
   0.59124067  0.30553085  0.72510660
   0.60067497  0.40847358  0.79251090
   0.60270260  0.49652563  0.90916557
   0.60233680  0.59868175  0.98599254
   0.58290383  0.69879887  0.08490065
   0.58499575  0.79448120  0.19850663
   0.59791241  0.89148109  0.28990789
   0.58938483  0.99730222  0.39892939
   0.67601228  0.09436855  0.61930594
   0.70447451  0.20792741  0.72005981
   0.71197201  0.31455139  0.80404393
   0.71277101  0.39976929  0.89450703
   0.70602161  0.49265478  0.00220684
   0.68847918  0.59769664  0.07848903
   0.69980732  0.70833313  0.19153183
   0.70261328  0.78729065  0.28727653
   0.70907457  0.88909716  0.38693983
   0.68339508  0.00663904  0.48807686
   0.81140406  0.09117098  0.67966451
   0.80622533  0.20378994  0.80714043
   0.80776030  0.28214896  0.89086107
   0.79448498  0.37214369  0.99302332
   0.80020171  0.49187084  0.08080879
   0.80128120  0.59850871  0.17766379
   0.77791829  0.70231452  0.28164559
   0.79643577  0.79634645  0.38157206
   0.79111485  0.88878832  0.49702923
   0.79158484  0.98302510  0.58837308
   0.88720261  0.09408900  0.81069250
   0.90172826  0.19014448  0.94144814
   0.89860232  0.30070341  0.01539343
   0.89235119  0.38081963  0.10908007
   0.90323474  0.50004317  0.18200737
   0.88816690  0.60469638  0.28686717
   0.91070572  0.71133921  0.37303846
   0.90276755  0.80113291  0.48949198
   0.89843277  0.89026324  0.59708112
   0.89909558  0.98961366  0.69235562
   0.98106089  0.10042112  0.91294845
   0.98928542  0.19936738  0.01173875
   0.00832945  0.29691982  0.11036886
   0.99701183  0.39096056  0.21088698
   0.98892022  0.48434520  0.29270487
   0.98893077  0.60499677  0.36527572
   0.99385069  0.69787973  0.48987728
   0.00185743  0.81173914  0.60700067
   0.01576951  0.90306176  0.71701701
   0.97949791  0.00099243  0.79774825
   0.21946061  0.20849406  0.00599961
   0.23357243  0.28079855  0.11818491
   0.22369596  0.39753305  0.20723412
   0.21297155  0.49393701  0.29983978
   0.20848365  0.62639927  0.38604194
   0.19869034  0.70358369  0.51181594
   0.19623501  0.79046385  0.61025372
   0.18182404  0.88741818  0.70587493
   0.18342748  0.01837359  0.78966048
   0.21289014  0.11695125  0.90750762
   0.31976890  0.20987236  0.10114323
   0.31870612  0.29612177  0.22031155
   0.31474063  0.40364786  0.30003591
   0.29851669  0.51336796  0.39498782
   0.29618527  0.58271507  0.49682748
   0.28683051  0.67030150  0.59404327
   0.29568192  0.78357719  0.68350574
   0.29452484  0.92610210  0.79542970
   0.28792692  0.00659394  0.89570937
   0.32233841  0.11346146  0.98471202
   0.39656048  0.19683932  0.20443180
   0.41173581  0.27900957  0.29833220
   0.40560844  0.40635392  0.40661319
   0.40354864  0.48620022  0.49626852
   0.40739604  0.58163361  0.60723580
   0.40532460  0.70808766  0.68459608
   0.38414097  0.77917922  0.77713240
   0.37620365  0.89992403  0.87886671
   0.40097484  0.98547154  0.98206025
   0.42265126  0.09844437  0.10512565
   0.49302632  0.20703673  0.30302619
   0.49540353  0.30889131  0.40781162
   0.50584420  0.40919548  0.51695402
   0.49308489  0.47500297  0.61325854
   0.48822889  0.60893302  0.71586478
   0.48596671  0.68947863  0.80177968
   0.48741033  0.81750354  0.88445080
   0.50398234  0.89465195  0.98615382
   0.49161812  0.99630405  0.08310268
   0.50261316  0.10013310  0.22307266
   0.60238134  0.20638663  0.39908764
   0.60864630  0.29788799  0.50047141
   0.58992191  0.39143474  0.60527451
   0.60916147  0.50095792  0.69362011
   0.60428151  0.58893992  0.79099775
   0.59399436  0.71222634  0.88842266
   0.61805595  0.83028522  0.98409504
   0.58289010  0.90837213  0.08702531
   0.59204015  0.00683224  0.20581063
   0.60010465  0.10076223  0.32254008
   0.70564958  0.20129584  0.50402875
   0.68983463  0.31484266  0.62344554
   0.70389562  0.42750537  0.69619047
   0.71740246  0.51548933  0.82141743
   0.70551807  0.60089050  0.89159975
   0.67122142  0.70475734  0.98428299
   0.68075695  0.79689853  0.09382435
   0.68324977  0.91621489  0.19585032
   0.68894317  0.00829694  0.32463362
   0.69541045  0.11747175  0.40868844
   0.78853710  0.19498441  0.60309267
   0.80493574  0.29855287  0.69305817
   0.80587279  0.41114352  0.82079989
   0.81491390  0.49755698  0.92877003
   0.79764135  0.59519687  0.99828852
   0.79414322  0.68919884  0.08214215
   0.77801174  0.79092012  0.19423536
   0.79466513  0.91421977  0.28903904
   0.78568475  0.99727000  0.39715045
   0.79513386  0.10476174  0.51196661
   0.88600484  0.19692825  0.70041215
   0.89930250  0.28669608  0.83569269
   0.92321265  0.40275331  0.93003954
   0.91551690  0.48123008  0.01258941
   0.91163325  0.58328065  0.08561085
   0.88478468  0.68827168  0.16825025
   0.88755484  0.79432256  0.27661283
   0.89434532  0.89805737  0.38066126
   0.90327306  0.99491928  0.48581878
   0.90228729  0.08768482  0.60580127
   0.97152754  0.20753657  0.80015035
   0.98987507  0.30345668  0.92304006
   0.00855282  0.39158310  0.01264277
   0.00535211  0.47522343  0.11145774
   0.00731875  0.59438492  0.19372952
   0.02764484  0.70717079  0.27117316
   0.01268833  0.80812588  0.38067233
   0.98845694  0.89590763  0.49802923
   0.99202026  0.98968219  0.60901190
   0.98598438  0.10788647  0.72220559
   0.08825845  0.20056461  0.89963527
   0.10846422  0.29717886  0.01229397
   0.14120151  0.37485896  0.12437214
   0.12548790  0.48604705  0.19739119
   0.12253044  0.59629447  0.29530487
   0.09238491  0.70462897  0.38850108
   0.09391543  0.80946011  0.50410634
   0.10328787  0.89361971  0.59726641
   0.09465924  0.01051402  0.68892326
   0.07529145  0.09711135  0.82231058
   0.33504823  0.29973168  0.99447514
   0.31368401  0.39797116  0.10739883
   0.29596703  0.48472550  0.20262794
   0.30951869  0.60464155  0.30593156
   0.30506005  0.71450839  0.41714293
   0.30424714  0.81005169  0.50461365
   0.28367890  0.89617302  0.61585350
   0.29997583  0.00791678  0.67296846
   0.31272313  0.09873224  0.79003228
   0.29880325  0.20647680  0.87796444
   0.42106606  0.31988237  0.10987753
   0.41239319  0.40107364  0.22239809
   0.41453352  0.50038336  0.30161696
   0.38995715  0.59522057  0.40617362
   0.41146198  0.69522015  0.51739441
   0.39113185  0.79826433  0.60697342
   0.38697227  0.90400995  0.70509466
   0.39973391  0.01414182  0.80386043
   0.39556950  0.11620631  0.89152125
   0.42367307  0.19704266  0.00070444
   0.52807459  0.30733654  0.21827817
   0.51116500  0.42415625  0.28692482
   0.50548558  0.50076717  0.42003496
   0.49382770  0.59639421  0.50340610
   0.51231299  0.68502205  0.61234840
   0.50996104  0.79622620  0.68290326
   0.49282910  0.89417106  0.78765872
   0.50694868  0.99337391  0.89328555
   0.51042372  0.07868310  0.98218379
   0.49410843  0.19498071  0.10228280
   0.59339798  0.31264694  0.31611531
   0.60159523  0.41109316  0.40178309
   0.60312404  0.51836618  0.51560147
   0.60300337  0.58970117  0.62430081
   0.60382529  0.70483760  0.71733217
   0.60492677  0.80127893  0.79703381
   0.62331559  0.90546655  0.88359345
   0.62073437  0.98102604  0.97893500
   0.59005104  0.07577142  0.08069887
   0.59829832  0.19184183  0.20722909
   0.69457399  0.27860334  0.40790718
   0.70641658  0.41093403  0.51965051
   0.72415472  0.49775026  0.58703803
   0.72977302  0.59069395  0.70015559
   0.70298101  0.68576195  0.81617429
   0.71717562  0.77793572  0.90373103
   0.71503594  0.90860526  0.99322044
   0.71643883  0.99965859  0.10638053
   0.69569624  0.12369715  0.20709002
   0.68449801  0.22663984  0.29317756
   0.79686087  0.29087983  0.51455390
   0.82482443  0.42240897  0.59732079
   0.82539675  0.50874734  0.70536831
   0.80052602  0.58684166  0.81392331
   0.80893339  0.71138959  0.93518334
   0.81467569  0.80735268  0.01664819
   0.79609055  0.90270423  0.12976499
   0.78568856  0.01358053  0.21326301
   0.79323176  0.09515979  0.28961419
   0.79213116  0.19413136  0.40297015
   0.89295543  0.32744585  0.59607002
   0.89737367  0.37701910  0.71605992
   0.89851572  0.49429232  0.83390044
   0.90539334  0.60784613  0.93004303
   0.94449649  0.70905940  0.00711840
   0.91635068  0.81354020  0.11029748
   0.91243724  0.90675580  0.21097459
   0.89900019  0.00811975  0.31276515
   0.90224615  0.10272802  0.41506917
   0.89938374  0.20667880  0.48998690
   0.97828661  0.28957730  0.69056046
   0.01059968  0.39199763  0.81497033
   0.00088010  0.50243880  0.92274508
   0.03034478  0.58390080  0.01083184
   0.01629954  0.72269426  0.09960880
   0.02498916  0.78988739  0.18697342
   0.03776926  0.90433529  0.28317315
   0.01340604  0.99749663  0.39673798
   0.99942863  0.10517322  0.51759732
   0.99262734  0.20535819  0.60220225
   0.09160836  0.30467981  0.78711757
   0.10023094  0.41366132  0.92631974
   0.10658096  0.49360864  0.01345656
   0.11260594  0.59740454  0.10553250
   0.12243351  0.70940150  0.20744651
   0.13647051  0.81297110  0.29219176
   0.12232507  0.91158006  0.40508288
   0.10226470  0.99387544  0.50905857
   0.07944517  0.08780512  0.61378853
   0.08478050  0.21011386  0.68558475
   0.19722749  0.28413603  0.89850521
   0.21807475  0.38112103  0.01543835
   0.21175335  0.48551688  0.08907073
   0.22565538  0.60753854  0.18520934
   0.21259018  0.68917576  0.29111510
   0.21202302  0.77929058  0.41448829
   0.20617960  0.87847701  0.50527068
   0.20353795  0.01170688  0.58651448
   0.19434077  0.10296078  0.69500404
   0.17103797  0.17879589  0.79262104
   0.41149313  0.39803191  0.00390502
   0.39688837  0.51986456  0.11921369
   0.38541473  0.61223888  0.19889384
   0.37715725  0.67165157  0.29165435
   0.39737326  0.78668591  0.42817637
   0.40832835  0.90183068  0.51214870
   0.40267936  0.00335807  0.60865813
   0.40375214  0.10876177  0.70252543
   0.40418547  0.20539837  0.79864006
   0.39882011  0.32042237  0.89248539
   0.49896732  0.40080081  0.10260214
   0.52072180  0.51524563  0.20372292
   0.51008539  0.59700832  0.30797188
   0.48436891  0.71390963  0.39610610
   0.50827099  0.78413083  0.49702798
   0.48390456  0.89262019  0.60676947
   0.48923781  0.99168403  0.68142243
   0.49481680  0.09653894  0.78341028
   0.50840780  0.21144575  0.89088238
   0.50298919  0.28831522  0.99207965
   0.60194190  0.42482094  0.18130274
   0.62194783  0.49182047  0.29833173
   0.58802923  0.59399014  0.41491229
   0.58872487  0.68234723  0.50511392
   0.60008442  0.79640900  0.60203121
   0.62377405  0.91373462  0.70704200
   0.59085279  0.99965367  0.79755527
   0.61683124  0.09814118  0.89598870
   0.59473469  0.19350913  0.00336986
   0.60305002  0.30078588  0.09802632
   0.68952659  0.39850549  0.30984044
   0.69742133  0.50717296  0.40927041
   0.71178084  0.61689141  0.50096074
   0.69097090  0.69491335  0.60511943
   0.71044226  0.77625282  0.70518539
   0.71559098  0.87754069  0.80069841
   0.71270608  0.99168591  0.89804628
   0.69587072  0.10551842  0.99001550
   0.68402861  0.21734437  0.07961192
   0.68372294  0.31647163  0.21180989
   0.79270418  0.40972578  0.40689003
   0.80426639  0.51272116  0.49293810
   0.80696237  0.60443352  0.59506501
   0.80067821  0.68218587  0.71395140
   0.81290493  0.76894001  0.81413133
   0.79578919  0.88711344  0.88961321
   0.79932831  0.98955228  0.01655812
   0.77990148  0.11508284  0.10064625
   0.78749605  0.20262795  0.20714848
   0.79144730  0.29403959  0.30048227
   0.91793814  0.40438280  0.48367014
   0.90172021  0.49169351  0.59162158
   0.88828458  0.59216007  0.69539684
   0.89629936  0.67825099  0.82000188
   0.90710399  0.80761286  0.90010578
   0.90562700  0.90575757  0.01262002
   0.89800680  0.00301009  0.11047764
   0.87478977  0.10856210  0.17675134
   0.91172047  0.20809818  0.29667939
   0.89811089  0.30229908  0.38801226
   0.99529674  0.39240029  0.60201354
   0.97966769  0.49871387  0.72120188
   0.99397521  0.60000073  0.81814361
   0.02115323  0.69954208  0.91126515
   0.01659701  0.83098976  0.00637858
   0.04036762  0.92744268  0.10388276
   0.01574994  0.02353498  0.20514426
   0.00069446  0.10424778  0.28931712
   0.00348338  0.20204734  0.40476552
   0.99504901  0.30071002  0.48822756
   0.10967810  0.38608045  0.70581830
   0.10446746  0.48746903  0.82146494
   0.10307314  0.59227403  0.90515756
   0.09499070  0.70624923  0.00787226
   0.11438010  0.82443111  0.10073449
   0.12531144  0.93296081  0.18700698
   0.11170124  0.01867239  0.29357953
   0.09657180  0.10006865  0.41627602
   0.08577660  0.19655886  0.50173802
   0.08593514  0.31203711  0.60002560
   0.19732719  0.40490049  0.81159100
   0.20767919  0.51122474  0.90146796
   0.20035059  0.61302057  0.01557454
   0.18862786  0.73379189  0.09792774
   0.20387986  0.82497420  0.20854262
   0.20454065  0.93013432  0.30940443
   0.20720381  0.00606768  0.40291135
   0.19715317  0.11709650  0.51161985
   0.16778402  0.19386326  0.59048706
   0.16976532  0.29761647  0.69638371
   0.29247198  0.40449243  0.89086683
   0.30208909  0.49921220  0.99034555
   0.31347047  0.60650467  0.10343618
   0.28559449  0.70871091  0.18028260
   0.29917702  0.79873061  0.30652951
   0.30188224  0.89313872  0.42062980
   0.29221961  0.98988872  0.49536800
   0.29653145  0.10219451  0.58955766
   0.28694239  0.20116927  0.69507260
   0.28512191  0.29024524  0.78782528
