 504 504   0   0
  0.1922536E+02  0.2105579E-08  0.2083983E-08  0.2208205E-08  0.5000000E-15
  1.000000000000000E-004
  CAR 
 Li                                      
      3.68412760     -3.36765121  301      0.53722374      1.00000000
     -3.368  0.0000E+00  0.0000E+00
     -3.344  0.0000E+00  0.0000E+00
     -3.321  0.0000E+00  0.0000E+00
     -3.297  0.0000E+00  0.0000E+00
     -3.274  0.0000E+00  0.0000E+00
     -3.250  0.0000E+00  0.0000E+00
     -3.227  0.0000E+00  0.0000E+00
     -3.203  0.7918E-11  0.1861E-12
     -3.180  0.1742E-07  0.4096E-09
     -3.156  0.1153E-04  0.2714E-06
     -3.133  0.2319E-02  0.5479E-04
     -3.109  0.1437E+00  0.3432E-02
     -3.086  0.2792E+01  0.6906E-01
     -3.062  0.1739E+02  0.4777E+00
     -3.039  0.3538E+02  0.1309E+01
     -3.015  0.2378E+02  0.1868E+01
     -2.992  0.5961E+01  0.2009E+01
     -2.968  0.9977E+01  0.2243E+01
     -2.945  0.4674E+02  0.3342E+01
     -2.921  0.9106E+02  0.5482E+01
     -2.898  0.7612E+02  0.7271E+01
     -2.874  0.2755E+02  0.7919E+01
     -2.851  0.1102E+02  0.8178E+01
     -2.827  0.3926E+02  0.9101E+01
     -2.804  0.8608E+02  0.1112E+02
     -2.780  0.8286E+02  0.1307E+02
     -2.756  0.3574E+02  0.1391E+02
     -2.733  0.2075E+02  0.1440E+02
     -2.709  0.5081E+02  0.1559E+02
     -2.686  0.9029E+02  0.1772E+02
     -2.662  0.1022E+03  0.2012E+02
     -2.639  0.6361E+02  0.2161E+02
     -2.615  0.3397E+02  0.2241E+02
     -2.592  0.6690E+02  0.2398E+02
     -2.568  0.1243E+03  0.2691E+02
     -2.545  0.1476E+03  0.3037E+02
     -2.521  0.1063E+03  0.3287E+02
     -2.498  0.4276E+02  0.3388E+02
     -2.474  0.2751E+02  0.3453E+02
     -2.451  0.6270E+02  0.3600E+02
     -2.427  0.9097E+02  0.3814E+02
     -2.404  0.6765E+02  0.3973E+02
     -2.380  0.4586E+02  0.4081E+02
     -2.357  0.6052E+02  0.4223E+02
     -2.333  0.8506E+02  0.4423E+02
     -2.310  0.1155E+03  0.4694E+02
     -2.286  0.1283E+03  0.4996E+02
     -2.263  0.1046E+03  0.5242E+02
     -2.239  0.9559E+02  0.5466E+02
     -2.216  0.1175E+03  0.5743E+02
     -2.192  0.1540E+03  0.6105E+02
     -2.169  0.1765E+03  0.6519E+02
     -2.145  0.1394E+03  0.6847E+02
     -2.122  0.8165E+02  0.7039E+02
     -2.098  0.5309E+02  0.7164E+02
     -2.075  0.4747E+02  0.7275E+02
     -2.051  0.6432E+02  0.7427E+02
     -2.028  0.6464E+02  0.7578E+02
     -2.004  0.6610E+02  0.7734E+02
     -1.981  0.9911E+02  0.7967E+02
     -1.957  0.1367E+03  0.8288E+02
     -1.934  0.1495E+03  0.8640E+02
     -1.910  0.1390E+03  0.8966E+02
     -1.887  0.1051E+03  0.9214E+02
     -1.863  0.9937E+02  0.9447E+02
     -1.840  0.1270E+03  0.9746E+02
     -1.816  0.1590E+03  0.1012E+03
     -1.793  0.1841E+03  0.1055E+03
     -1.769  0.1597E+03  0.1093E+03
     -1.746  0.8907E+02  0.1114E+03
     -1.722  0.3846E+02  0.1123E+03
     -1.699  0.6527E+02  0.1138E+03
     -1.675  0.1255E+03  0.1168E+03
     -1.652  0.1400E+03  0.1200E+03
     -1.628  0.1297E+03  0.1231E+03
     -1.605  0.1468E+03  0.1265E+03
     -1.581  0.1630E+03  0.1304E+03
     -1.558  0.1623E+03  0.1342E+03
     -1.534  0.1568E+03  0.1379E+03
     -1.511  0.1362E+03  0.1411E+03
     -1.487  0.1135E+03  0.1437E+03
     -1.464  0.1237E+03  0.1467E+03
     -1.440  0.1524E+03  0.1502E+03
     -1.417  0.1669E+03  0.1542E+03
     -1.393  0.1499E+03  0.1577E+03
     -1.370  0.1176E+03  0.1604E+03
     -1.346  0.9570E+02  0.1627E+03
     -1.323  0.1000E+03  0.1650E+03
     -1.299  0.1063E+03  0.1675E+03
     -1.276  0.9571E+02  0.1698E+03
     -1.252  0.1079E+03  0.1723E+03
     -1.229  0.1416E+03  0.1757E+03
     -1.205  0.1432E+03  0.1790E+03
     -1.182  0.1384E+03  0.1823E+03
     -1.158  0.1582E+03  0.1860E+03
     -1.135  0.1632E+03  0.1898E+03
     -1.111  0.1593E+03  0.1936E+03
     -1.088  0.1804E+03  0.1978E+03
     -1.064  0.2090E+03  0.2027E+03
     -1.041  0.2201E+03  0.2079E+03
     -1.017  0.2038E+03  0.2127E+03
     -0.994  0.1899E+03  0.2172E+03
     -0.970  0.1745E+03  0.2213E+03
     -0.947  0.1537E+03  0.2249E+03
     -0.923  0.1456E+03  0.2283E+03
     -0.900  0.1178E+03  0.2311E+03
     -0.876  0.8947E+02  0.2332E+03
     -0.853  0.1242E+03  0.2361E+03
     -0.829  0.1629E+03  0.2399E+03
     -0.806  0.1551E+03  0.2436E+03
     -0.782  0.1481E+03  0.2470E+03
     -0.758  0.1617E+03  0.2508E+03
     -0.735  0.1820E+03  0.2551E+03
     -0.711  0.1978E+03  0.2598E+03
     -0.688  0.1810E+03  0.2640E+03
     -0.664  0.1510E+03  0.2676E+03
     -0.641  0.1274E+03  0.2706E+03
     -0.617  0.1266E+03  0.2736E+03
     -0.594  0.1643E+03  0.2774E+03
     -0.570  0.1666E+03  0.2813E+03
     -0.547  0.1378E+03  0.2846E+03
     -0.523  0.1432E+03  0.2879E+03
     -0.500  0.1695E+03  0.2919E+03
     -0.476  0.2004E+03  0.2966E+03
     -0.453  0.2267E+03  0.3020E+03
     -0.429  0.2231E+03  0.3072E+03
     -0.406  0.1979E+03  0.3119E+03
     -0.382  0.1964E+03  0.3165E+03
     -0.359  0.2149E+03  0.3215E+03
     -0.335  0.2218E+03  0.3267E+03
     -0.312  0.2175E+03  0.3318E+03
     -0.288  0.1962E+03  0.3365E+03
     -0.265  0.1627E+03  0.3403E+03
     -0.241  0.1525E+03  0.3439E+03
     -0.218  0.1763E+03  0.3480E+03
     -0.194  0.1865E+03  0.3524E+03
     -0.171  0.1670E+03  0.3563E+03
     -0.147  0.1551E+03  0.3600E+03
     -0.124  0.1745E+03  0.3641E+03
     -0.100  0.1880E+03  0.3685E+03
     -0.077  0.1887E+03  0.3729E+03
     -0.053  0.1904E+03  0.3774E+03
     -0.030  0.1953E+03  0.3820E+03
     -0.006  0.1907E+03  0.3865E+03
      0.017  0.2077E+03  0.3914E+03
      0.041  0.2340E+03  0.3969E+03
      0.064  0.2461E+03  0.4026E+03
      0.088  0.2506E+03  0.4085E+03
      0.111  0.2384E+03  0.4141E+03
      0.135  0.2175E+03  0.4192E+03
      0.158  0.1988E+03  0.4239E+03
      0.182  0.1993E+03  0.4286E+03
      0.205  0.2049E+03  0.4334E+03
      0.229  0.2030E+03  0.4382E+03
      0.252  0.2069E+03  0.4431E+03
      0.276  0.2080E+03  0.4480E+03
      0.299  0.2001E+03  0.4527E+03
      0.323  0.1856E+03  0.4570E+03
      0.346  0.1660E+03  0.4609E+03
      0.370  0.1732E+03  0.4650E+03
      0.393  0.1915E+03  0.4695E+03
      0.417  0.2012E+03  0.4742E+03
      0.440  0.2122E+03  0.4792E+03
      0.464  0.2299E+03  0.4846E+03
      0.487  0.2537E+03  0.4906E+03
      0.511  0.2644E+03  0.4968E+03
      0.534  0.2726E+03  0.5032E+03
      0.558  0.2782E+03  0.5097E+03
      0.581  0.2806E+03  0.5163E+03
      0.605  0.2798E+03  0.5229E+03
      0.628  0.2693E+03  0.5292E+03
      0.652  0.2661E+03  0.5355E+03
      0.675  0.2626E+03  0.5417E+03
      0.699  0.2537E+03  0.5476E+03
      0.722  0.2454E+03  0.5534E+03
      0.746  0.2352E+03  0.5589E+03
      0.769  0.2336E+03  0.5644E+03
      0.793  0.2393E+03  0.5700E+03
      0.816  0.2384E+03  0.5757E+03
      0.840  0.2266E+03  0.5810E+03
      0.863  0.2076E+03  0.5859E+03
      0.887  0.2042E+03  0.5907E+03
      0.910  0.2176E+03  0.5958E+03
      0.934  0.2170E+03  0.6009E+03
      0.957  0.2060E+03  0.6057E+03
      0.981  0.2024E+03  0.6105E+03
      1.004  0.2024E+03  0.6152E+03
      1.028  0.2036E+03  0.6200E+03
      1.051  0.1973E+03  0.6247E+03
      1.075  0.1931E+03  0.6292E+03
      1.098  0.1965E+03  0.6338E+03
      1.122  0.2053E+03  0.6386E+03
      1.145  0.2125E+03  0.6436E+03
      1.169  0.2188E+03  0.6488E+03
      1.192  0.2239E+03  0.6540E+03
      1.216  0.2274E+03  0.6594E+03
      1.240  0.2368E+03  0.6650E+03
      1.263  0.2309E+03  0.6704E+03
      1.287  0.2163E+03  0.6755E+03
      1.310  0.2113E+03  0.6804E+03
      1.334  0.2211E+03  0.6856E+03
      1.357  0.2241E+03  0.6909E+03
      1.381  0.2131E+03  0.6959E+03
      1.404  0.2080E+03  0.7008E+03
      1.428  0.2067E+03  0.7057E+03
      1.451  0.2088E+03  0.7106E+03
      1.475  0.2132E+03  0.7156E+03
      1.498  0.2140E+03  0.7206E+03
      1.522  0.2026E+03  0.7254E+03
      1.545  0.1955E+03  0.7300E+03
      1.569  0.1853E+03  0.7343E+03
      1.592  0.1831E+03  0.7386E+03
      1.616  0.1955E+03  0.7432E+03
      1.639  0.2021E+03  0.7480E+03
      1.663  0.1990E+03  0.7526E+03
      1.686  0.1990E+03  0.7573E+03
      1.710  0.1943E+03  0.7619E+03
      1.733  0.2037E+03  0.7667E+03
      1.757  0.2114E+03  0.7716E+03
      1.780  0.2046E+03  0.7765E+03
      1.804  0.2035E+03  0.7812E+03
      1.827  0.2098E+03  0.7862E+03
      1.851  0.2184E+03  0.7913E+03
      1.874  0.2203E+03  0.7965E+03
      1.898  0.2113E+03  0.8014E+03
      1.921  0.2026E+03  0.8062E+03
      1.945  0.2028E+03  0.8110E+03
      1.968  0.2067E+03  0.8158E+03
      1.992  0.2019E+03  0.8206E+03
      2.015  0.2021E+03  0.8253E+03
      2.039  0.2120E+03  0.8303E+03
      2.062  0.2076E+03  0.8352E+03
      2.086  0.1937E+03  0.8398E+03
      2.109  0.1797E+03  0.8440E+03
      2.133  0.1729E+03  0.8480E+03
      2.156  0.1745E+03  0.8521E+03
      2.180  0.1806E+03  0.8564E+03
      2.203  0.1892E+03  0.8608E+03
      2.227  0.1893E+03  0.8653E+03
      2.250  0.1800E+03  0.8695E+03
      2.274  0.1699E+03  0.8735E+03
      2.297  0.1711E+03  0.8775E+03
      2.321  0.1851E+03  0.8819E+03
      2.344  0.1900E+03  0.8863E+03
      2.368  0.1768E+03  0.8905E+03
      2.391  0.1648E+03  0.8944E+03
      2.415  0.1722E+03  0.8984E+03
      2.438  0.1748E+03  0.9025E+03
      2.462  0.1637E+03  0.9064E+03
      2.485  0.1566E+03  0.9101E+03
      2.509  0.1425E+03  0.9134E+03
      2.532  0.1342E+03  0.9166E+03
      2.556  0.1441E+03  0.9199E+03
      2.579  0.1493E+03  0.9235E+03
      2.603  0.1475E+03  0.9269E+03
      2.626  0.1421E+03  0.9303E+03
      2.650  0.1420E+03  0.9336E+03
      2.673  0.1317E+03  0.9367E+03
      2.697  0.1259E+03  0.9397E+03
      2.720  0.1330E+03  0.9428E+03
      2.744  0.1343E+03  0.9459E+03
      2.767  0.1378E+03  0.9492E+03
      2.791  0.1480E+03  0.9527E+03
      2.814  0.1527E+03  0.9562E+03
      2.838  0.1457E+03  0.9597E+03
      2.861  0.1386E+03  0.9629E+03
      2.885  0.1396E+03  0.9662E+03
      2.908  0.1366E+03  0.9694E+03
      2.932  0.1330E+03  0.9725E+03
      2.955  0.1387E+03  0.9758E+03
      2.979  0.1394E+03  0.9791E+03
      3.002  0.1243E+03  0.9820E+03
      3.026  0.1175E+03  0.9848E+03
      3.049  0.1188E+03  0.9876E+03
      3.073  0.1096E+03  0.9901E+03
      3.096  0.9620E+02  0.9924E+03
      3.120  0.1003E+03  0.9948E+03
      3.143  0.1077E+03  0.9973E+03
      3.167  0.1021E+03  0.9997E+03
      3.191  0.9001E+02  0.1002E+04
      3.214  0.7098E+02  0.1003E+04
      3.238  0.5490E+02  0.1005E+04
      3.261  0.4665E+02  0.1006E+04
      3.285  0.3945E+02  0.1007E+04
      3.308  0.3231E+02  0.1008E+04
      3.332  0.2950E+02  0.1008E+04
      3.355  0.3637E+02  0.1009E+04
      3.379  0.2825E+02  0.1010E+04
      3.402  0.9086E+01  0.1010E+04
      3.426  0.1099E+01  0.1010E+04
      3.449  0.4737E-01  0.1010E+04
      3.473  0.6889E-03  0.1010E+04
      3.496  0.3230E-05  0.1010E+04
      3.520  0.4728E-08  0.1010E+04
      3.543  0.2116E-11  0.1010E+04
      3.567  0.0000E+00  0.1010E+04
      3.590  0.0000E+00  0.1010E+04
      3.614  0.0000E+00  0.1010E+04
      3.637  0.0000E+00  0.1010E+04
      3.661  0.0000E+00  0.1010E+04
      3.684  0.0000E+00  0.1010E+04
