       N       E                     dE             d eps       ncg     rms          rms(c)
DAV:   1    -0.263356054514E+03   -0.26336E+03   -0.12435E+05  4040   0.662E+02
DAV:   2    -0.883195795182E+03   -0.61984E+03   -0.56770E+03  4628   0.689E+01
DAV:   3    -0.926763363352E+03   -0.43568E+02   -0.39686E+02  5184   0.144E+01
DAV:   4    -0.928238525445E+03   -0.14752E+01   -0.14510E+01  4712   0.288E+00
DAV:   5    -0.928272968367E+03   -0.34443E-01   -0.34366E-01  4880   0.464E-01    0.934E+00
DAV:   6    -0.923737989227E+03    0.45350E+01   -0.11049E+01  4664   0.436E+00    0.740E+00
DAV:   7    -0.918412209098E+03    0.53258E+01   -0.89529E+00  4664   0.426E+00    0.496E+00
DAV:   8    -0.915681436325E+03    0.27308E+01   -0.43914E+00  4616   0.231E+00    0.267E+00
DAV:   9    -0.915474358128E+03    0.20708E+00   -0.22835E+00  4624   0.147E+00    0.202E+00
DAV:  10    -0.915149879907E+03    0.32448E+00   -0.10297E+00  4688   0.104E+00    0.126E+00
DAV:  11    -0.915050110725E+03    0.99769E-01   -0.32009E-01  4512   0.511E-01    0.687E-01
DAV:  12    -0.915055221841E+03   -0.51111E-02   -0.88948E-02  4720   0.352E-01    0.592E-01
DAV:  13    -0.915024273685E+03    0.30948E-01   -0.44142E-02  4672   0.247E-01    0.284E-01
DAV:  14    -0.915023709264E+03    0.56442E-03   -0.14661E-02  4696   0.140E-01    0.203E-01
DAV:  15    -0.915021203310E+03    0.25060E-02   -0.79904E-03  4720   0.109E-01    0.133E-01
DAV:  16    -0.915019654487E+03    0.15488E-02   -0.28646E-03  4608   0.585E-02    0.584E-02
DAV:  17    -0.915019779630E+03   -0.12514E-03   -0.88837E-04  4640   0.342E-02    0.515E-02
DAV:  18    -0.915019454864E+03    0.32477E-03   -0.53616E-04  4576   0.259E-02    0.218E-02
DAV:  19    -0.915019422133E+03    0.32731E-04   -0.14721E-04  4464   0.116E-02    0.130E-02
DAV:  20    -0.915019402696E+03    0.19437E-04   -0.48657E-05  4352   0.666E-03    0.650E-03
DAV:  21    -0.915019401573E+03    0.11228E-05   -0.89574E-06  2728   0.413E-03
   1 F= -.91501940E+03 E0= -.91495693E+03  d E =-.124947E+00
