Li                                      
           1
   -10.527895   18.234849   -0.000000
   -18.047820  -10.419914    0.000000
    -0.000000    0.000000   22.082050
   Li
   504
Direct configuration=     1
   0.99276077  0.96791540  0.99066325
   0.94464459  0.05878212  0.66740666
   0.88485342  0.09243587  0.31128471
   0.82407306  0.13372279  0.98612559
   0.71782383  0.16080036  0.65856171
   0.66110047  0.20208822  0.33753250
   0.55760269  0.25433264  0.99499279
   0.49722612  0.27197616  0.65978670
   0.42006672  0.31995081  0.35169781
   0.34998855  0.36720145  0.00247041
   0.27467350  0.39640839  0.66134906
   0.21760166  0.46273829  0.34241933
   0.07065208  0.07192482  0.67056265
   0.00143914  0.10346246  0.31910932
   0.94091660  0.11870633  0.99597255
   0.86301934  0.17414628  0.65083158
   0.79713924  0.21248388  0.31070417
   0.71463425  0.27512415  0.99097193
   0.65077224  0.28612718  0.64901818
   0.56785817  0.32403737  0.34023151
   0.49430187  0.36914652  0.99219256
   0.42033994  0.38949453  0.66615048
   0.35990140  0.45429392  0.33249170
   0.30086376  0.49480041  0.99482314
   0.14536988  0.10636008  0.33337018
   0.06639705  0.13366264  0.00254747
   0.00314670  0.18765688  0.65397797
   0.93624866  0.22908969  0.32518949
   0.86830291  0.25438477  0.97116294
   0.78014078  0.31219909  0.68703747
   0.71392086  0.31246639  0.33325508
   0.63404783  0.37290059  0.98231315
   0.56208076  0.38829169  0.67004584
   0.51610373  0.44847388  0.34284441
   0.42011282  0.49838411  0.99258527
   0.35369004  0.53965198  0.67461611
   0.21366996  0.11608735  0.01450640
   0.14443662  0.14364106  0.66967240
   0.07406936  0.21592929  0.32003224
   0.99449673  0.24845026  0.98486958
   0.91935005  0.29306563  0.65343358
   0.86377904  0.33392317  0.31409037
   0.77563682  0.38725956  0.97847317
   0.70517242  0.42816654  0.66553112
   0.64660565  0.43436528  0.33869722
   0.56662431  0.50655841  0.00884316
   0.48062716  0.53832454  0.65139154
   0.43412806  0.57576222  0.32386321
   0.27957567  0.16021253  0.69090583
   0.21344221  0.19609422  0.34357644
   0.14587551  0.24860817  0.98441689
   0.08240145  0.28816909  0.66605406
   0.03076885  0.33249428  0.33517624
   0.92712629  0.37780826  0.00079439
   0.85445479  0.43378144  0.67429328
   0.79450385  0.43195458  0.33290282
   0.69183480  0.50960035  0.02143189
   0.64612319  0.53207974  0.66545452
   0.57562711  0.56210288  0.34955177
   0.49386249  0.60824767  0.00371924
   0.35256236  0.18658265  0.34183881
   0.28220354  0.26399817  0.99787591
   0.20405820  0.26744210  0.68773587
   0.16598148  0.32258037  0.34938230
   0.05657383  0.37903354  0.98737909
   0.99042406  0.42735926  0.66028625
   0.93195141  0.45266358  0.33443453
   0.85964069  0.48119989  0.99527063
   0.77326312  0.54643307  0.66237616
   0.69495190  0.56606470  0.34612298
   0.65320655  0.64601299  0.00710299
   0.56651677  0.67414276  0.65935665
   0.40861466  0.24362038  0.01851072
   0.32308751  0.27460170  0.64927918
   0.26777810  0.31977142  0.33841323
   0.19903862  0.35913765  0.99661730
   0.12446891  0.41811473  0.67421923
   0.06489657  0.45386723  0.33896097
   0.98658425  0.50876107  0.98848991
   0.94325023  0.55592779  0.65845575
   0.83169779  0.56146324  0.34121315
   0.77945177  0.61151609  0.02448680
   0.70820400  0.65792170  0.65350527
   0.65021382  0.70255063  0.32449910
   0.15323185  0.50293682  0.99662974
   0.07109448  0.54442096  0.66973353
   0.98806901  0.59546653  0.33837206
   0.91741631  0.60701736  0.00964703
   0.85549695  0.67894404  0.67666562
   0.78243520  0.71208009  0.34584436
   0.71046619  0.75042617  0.02005976
   0.21280184  0.53535992  0.67242408
   0.13444613  0.57680545  0.30643005
   0.07315585  0.62401571  0.98908421
   0.98477715  0.69256761  0.67203428
   0.92638017  0.70961563  0.35715504
   0.84556299  0.73413181  0.00309558
   0.76987520  0.80609683  0.67437105
   0.28054847  0.60677100  0.33490323
   0.23234724  0.61861252  0.97150805
   0.13057246  0.65196134  0.66020462
   0.05695406  0.71057634  0.33204296
   0.01625102  0.74755000  0.02174884
   0.90812342  0.81363727  0.67290080
   0.88426945  0.84557104  0.31783620
   0.35576970  0.63868936  0.01618616
   0.27896727  0.67509208  0.65573145
   0.19613469  0.71548099  0.32925381
   0.14549269  0.74164396  0.00591677
   0.06892650  0.80237689  0.68841134
   0.01715370  0.84587838  0.34009920
   0.92353118  0.83831027  0.00911002
   0.43308766  0.64358203  0.64891928
   0.37065354  0.72396588  0.32803926
   0.29655153  0.76794854  0.98261056
   0.21133088  0.79422268  0.66916641
   0.12752715  0.85793869  0.33944929
   0.05835425  0.85131809  0.01143980
   0.01809651  0.92679801  0.67640016
   0.95535529  0.96038301  0.33153332
   0.86589671  0.99924549  0.98217553
   0.80068638  0.04119082  0.66172093
   0.73698420  0.08833445  0.33927086
   0.65100844  0.14960793  0.00317503
   0.56554162  0.16028303  0.65424693
   0.50033741  0.17911822  0.33193639
   0.06153925  0.99310268  0.34331715
   0.12114200  0.99776000  0.01213081
   0.21920609  0.04659013  0.66893433
   0.28198985  0.05249192  0.32017495
   0.34703752  0.11292381  0.00291672
   0.41341690  0.14727646  0.66296579
   0.86842550  0.93017748  0.66686184
   0.80339753  0.96832418  0.31668004
   0.71583270  0.00049450  0.99759422
   0.66180946  0.03392231  0.66541520
   0.59873245  0.05195889  0.34574378
   0.49377117  0.13788743  0.00797330
   0.14750927  0.93231600  0.67696944
   0.19068528  0.94789775  0.35881955
   0.25656724  0.00773809  0.02621715
   0.35778773  0.02365973  0.67350972
   0.43356257  0.06513380  0.35452025
   0.79222392  0.89523542  0.00195889
   0.70780917  0.90946322  0.65779812
   0.65176059  0.94991098  0.33958907
   0.56301328  0.02302084  0.00281358
   0.48551365  0.03910077  0.67135022
   0.23004120  0.88440407  0.99533888
   0.28985075  0.91458129  0.66383342
   0.35292482  0.92451932  0.33217039
   0.40752044  0.02257914  0.02027778
   0.73966187  0.83920380  0.31539764
   0.65703461  0.88126655  0.00930503
   0.57225436  0.88837433  0.67460559
   0.51528832  0.93079717  0.33394768
   0.27082845  0.82445471  0.34378073
   0.37661393  0.89983893  0.00580112
   0.43095767  0.90666562  0.66818554
   0.63841625  0.76841673  0.68844202
   0.57335608  0.82439966  0.31376832
   0.52146409  0.88503394  0.00331050
   0.35149725  0.79602227  0.65636187
   0.43809571  0.81330668  0.32979421
   0.56601558  0.75971879  0.99930828
   0.49639952  0.77676706  0.66490190
   0.42470773  0.74636086  0.98589773
   0.51930907  0.68109875  0.32310261
   0.98587145  0.98613976  0.77988226
   0.94916023  0.03016185  0.44524301
   0.86134129  0.09529733  0.11209355
   0.78713992  0.13808786  0.76421775
   0.70685965  0.15998914  0.45046189
   0.62170447  0.23102827  0.11799612
   0.56916254  0.23933450  0.76268547
   0.49354791  0.28877197  0.42749244
   0.41146564  0.32626620  0.12659846
   0.35143319  0.37714629  0.76808609
   0.29180493  0.40203352  0.43472623
   0.21211964  0.45748859  0.10139068
   0.05826348  0.05355680  0.43236255
   0.00683875  0.09171298  0.10096977
   0.93731147  0.13422734  0.78094388
   0.83488300  0.13772482  0.42459730
   0.77424885  0.21336969  0.09813303
   0.70664166  0.23826631  0.76577152
   0.63257931  0.27749203  0.44117271
   0.55905564  0.32197534  0.11046353
   0.49704466  0.38000004  0.76735301
   0.42783231  0.41030274  0.43752992
   0.35264804  0.46265339  0.12029928
   0.28685150  0.50089651  0.75968946
   0.15360676  0.08006606  0.11956530
   0.06144809  0.12950124  0.77866373
   0.99273514  0.16873915  0.43229885
   0.91202433  0.22901590  0.09342271
   0.85257736  0.25301602  0.76224913
   0.78686382  0.28051104  0.42670258
   0.70260169  0.32071093  0.10139254
   0.64494780  0.36153262  0.78666289
   0.57518634  0.39699160  0.44095931
   0.48590762  0.45249602  0.10290525
   0.41769726  0.51122027  0.77339436
   0.35467033  0.52160420  0.43487711
   0.22214247  0.11491558  0.78673962
   0.12651232  0.16085685  0.45615841
   0.06067897  0.22080755  0.10166260
   0.00939005  0.25301404  0.76894478
   0.92523966  0.30048607  0.44859572
   0.85048335  0.34481481  0.09413783
   0.78506695  0.38196990  0.78150976
   0.72807931  0.39274174  0.44858495
   0.63436904  0.43625637  0.11576909
   0.55640314  0.49924816  0.75208791
   0.50869378  0.53812632  0.45723485
   0.43597664  0.58194723  0.12614925
   0.28674779  0.15216133  0.43292863
   0.21693195  0.22017495  0.10640769
   0.14161713  0.23434235  0.76580407
   0.07155212  0.28777443  0.44910458
   0.00303164  0.35469729  0.09007968
   0.93796027  0.36432973  0.76669152
   0.85216507  0.42173782  0.42977487
   0.78546304  0.45672970  0.09757530
   0.70214975  0.50365953  0.77398416
   0.65483566  0.52918078  0.45558459
   0.58239772  0.55645342  0.11417227
   0.50121810  0.64238870  0.77336487
   0.34288345  0.20996225  0.10090929
   0.30968313  0.23823850  0.78442963
   0.21236026  0.27602935  0.45593946
   0.13031431  0.35185677  0.10289644
   0.05408057  0.37128064  0.76490383
   0.99813973  0.40675830  0.46863796
   0.93067594  0.46998728  0.10603811
   0.84682513  0.49172767  0.77497995
   0.79556726  0.52854280  0.44524186
   0.70195392  0.58502259  0.12122167
   0.62866988  0.61705440  0.77673073
   0.57383577  0.67447669  0.43721305
   0.42780479  0.25686341  0.75288057
   0.34953573  0.26710792  0.43948959
   0.29207122  0.35673011  0.11640487
   0.19736220  0.37860707  0.77457428
   0.14188655  0.41408613  0.44936736
   0.06079955  0.46509512  0.10131961
   0.00291755  0.49073763  0.77581094
   0.94792019  0.55025672  0.44638104
   0.82981055  0.58017505  0.12522402
   0.77190541  0.62801233  0.79210164
   0.71543045  0.66310192  0.45614942
   0.63305496  0.70765750  0.10097524
   0.11741398  0.51271441  0.77583865
   0.09049767  0.54816503  0.44056630
   0.98907758  0.58564111  0.11418928
   0.91946649  0.61130139  0.78259975
   0.84241323  0.67398137  0.45963390
   0.78373308  0.69521701  0.13296546
   0.71472500  0.75157679  0.77427790
   0.20739836  0.55481011  0.44926679
   0.15224248  0.57292424  0.10858066
   0.06289519  0.64298194  0.76560096
   0.98643882  0.69118658  0.47151449
   0.91463720  0.70412144  0.12138584
   0.86370855  0.73186836  0.78061997
   0.76515274  0.81710722  0.45017555
   0.29631888  0.57832072  0.09388354
   0.22818638  0.62848837  0.77523707
   0.14268414  0.66752785  0.44497811
   0.06562077  0.71463209  0.11640608
   0.99985252  0.74566179  0.78096927
   0.92612949  0.80846836  0.45275504
   0.88204166  0.83161521  0.11123323
   0.36772556  0.63898291  0.77492504
   0.27561456  0.66053591  0.43195634
   0.25007631  0.70782935  0.09631131
   0.14088975  0.75944432  0.78665461
   0.06765746  0.78914594  0.44282555
   0.01641384  0.85723305  0.11082474
   0.93607604  0.86964346  0.76641660
   0.42204391  0.64333208  0.42519829
   0.38073692  0.71436073  0.12171605
   0.28208256  0.77504461  0.77875052
   0.20143333  0.79775034  0.43986128
   0.15109339  0.84080987  0.11608814
   0.08314610  0.88687202  0.80130001
   0.00848505  0.92279834  0.46705362
   0.94011747  0.97122358  0.09867353
   0.85917402  0.00118041  0.78040622
   0.78020403  0.03645395  0.44448284
   0.72287426  0.09240481  0.10259486
   0.63850999  0.12966771  0.79286735
   0.57140968  0.16057034  0.43782693
   0.48505510  0.19445900  0.12083390
   0.07892683  0.96788027  0.11906204
   0.13850536  0.01001968  0.78155062
   0.19665449  0.04486145  0.45703744
   0.29960733  0.08588114  0.13369141
   0.36942473  0.11386873  0.79371499
   0.42863191  0.16044450  0.43755305
   0.87206970  0.92447246  0.44112399
   0.79564147  0.96339817  0.11828359
   0.72439145  0.00806769  0.76825245
   0.63939928  0.02793823  0.45836074
   0.56395788  0.08107886  0.10518233
   0.49415954  0.14271249  0.79092691
   0.14070043  0.92929764  0.46023494
   0.22683134  0.96679711  0.14053037
   0.29828848  0.00972553  0.78878119
   0.32543616  0.03828509  0.45345634
   0.42148895  0.06351893  0.11604993
   0.81228558  0.86461889  0.78795715
   0.72165023  0.92420502  0.44188581
   0.66139887  0.96159198  0.07884823
   0.56947956  0.00289099  0.78865223
   0.49287536  0.03571839  0.45007521
   0.23075787  0.87879261  0.77215258
   0.27568194  0.92975956  0.44265228
   0.36478794  0.96005129  0.14317910
   0.44641824  0.99649446  0.79175210
   0.73268401  0.86008252  0.09152563
   0.66813827  0.87774776  0.77670869
   0.58055465  0.88868515  0.45455474
   0.50371135  0.95822493  0.11586483
   0.28972630  0.84162140  0.11927575
   0.35926536  0.87672968  0.77536635
   0.41823337  0.91120953  0.45275439
   0.64426593  0.78706088  0.43119789
   0.57471340  0.82437268  0.11710038
   0.52752815  0.88602195  0.77510923
   0.36402649  0.80091698  0.43729459
   0.44549340  0.84219274  0.10036021
   0.57422069  0.74771061  0.76886591
   0.48855760  0.79104725  0.43373730
   0.43417879  0.76857565  0.76988653
   0.50268413  0.69540058  0.09711284
   0.01500248  0.01252606  0.23143098
   0.91620249  0.05334177  0.87712943
   0.87202558  0.08124022  0.53946282
   0.79154330  0.11802180  0.21815108
   0.72284855  0.18165604  0.89959642
   0.63059782  0.18317288  0.54095801
   0.57528007  0.23872633  0.21692737
   0.49044500  0.28432178  0.87199804
   0.41611542  0.32301148  0.53627698
   0.35559065  0.37855832  0.23448117
   0.28278633  0.40195081  0.90453722
   0.20713931  0.45287191  0.55345255
   0.05758219  0.03491612  0.87598970
   0.00099625  0.10243801  0.55925443
   0.94685984  0.14009553  0.20382402
   0.85837728  0.17709156  0.88735370
   0.77117961  0.19422385  0.56013286
   0.70759358  0.23912197  0.20794279
   0.63923500  0.28705821  0.89104998
   0.56088837  0.31590451  0.54433337
   0.50699560  0.37234554  0.23962976
   0.43397747  0.42110693  0.87052644
   0.34637126  0.44777864  0.55501264
   0.29404838  0.51615026  0.23692854
   0.14737643  0.11289311  0.54826404
   0.08215998  0.14867330  0.20389243
   0.00742078  0.17837671  0.89585652
   0.90596055  0.19908808  0.53960424
   0.85332309  0.27497386  0.19768328
   0.79736102  0.28388278  0.87433088
   0.71288428  0.32592370  0.54938744
   0.64078754  0.36988938  0.21594347
   0.56123827  0.41184740  0.87807972
   0.51314946  0.45038005  0.55788909
   0.43480144  0.48769763  0.23487500
   0.33899367  0.54746165  0.88847804
   0.21755798  0.12956847  0.21578581
   0.13243990  0.13370209  0.89486539
   0.07372456  0.22106997  0.56970788
   0.01539860  0.25963436  0.20995196
   0.94719237  0.29391105  0.88290198
   0.82370609  0.34827225  0.55758420
   0.78244740  0.37831129  0.21729309
   0.72512583  0.42738248  0.88126068
   0.65275763  0.44993131  0.55652701
   0.56416679  0.49426097  0.23320046
   0.49113237  0.54487524  0.87129546
   0.41093929  0.56749410  0.55166369
   0.27761607  0.16857843  0.90867066
   0.22446825  0.20644524  0.56860086
   0.14939372  0.27960489  0.22428159
   0.09098928  0.28250037  0.88979910
   0.97830431  0.33525627  0.56590817
   0.93963738  0.37777416  0.20904474
   0.87055747  0.40695049  0.89149057
   0.79136506  0.48125478  0.56079336
   0.70933943  0.50490235  0.22163810
   0.63343583  0.52750671  0.89581332
   0.58439289  0.58227433  0.54747153
   0.48974114  0.61981448  0.21045795
   0.35731762  0.19133068  0.54517269
   0.28741369  0.24674038  0.23177694
   0.23237820  0.27877000  0.87763893
   0.14749058  0.32454357  0.55489409
   0.07644485  0.38680237  0.23398261
   0.99028667  0.41916864  0.87304108
   0.91790229  0.48115370  0.55544556
   0.84605975  0.49553066  0.22711313
   0.79419926  0.52683567  0.89884611
   0.72350840  0.56188827  0.54605965
   0.63846606  0.63447151  0.23318303
   0.56809191  0.65213671  0.89410182
   0.41383952  0.24946444  0.22073040
   0.37664328  0.29991915  0.90133291
   0.28331669  0.33326403  0.54891528
   0.21715281  0.39140507  0.22572064
   0.15083008  0.40310928  0.87335084
   0.06203190  0.46190548  0.56292960
   0.00947632  0.50386443  0.20750790
   0.92566101  0.55076580  0.88429175
   0.86135168  0.60064378  0.54725084
   0.75479457  0.63621774  0.25227810
   0.71266133  0.65789433  0.89656623
   0.64724059  0.72441936  0.55704188
   0.16184954  0.50314446  0.21703959
   0.06824753  0.54793315  0.87955384
   0.01856859  0.59839820  0.56609792
   0.90339214  0.62622634  0.21935521
   0.86269951  0.66992607  0.91803901
   0.78967291  0.70127943  0.55522179
   0.71207751  0.79365547  0.22190006
   0.19928839  0.53084403  0.88489869
   0.13833789  0.58540515  0.56295886
   0.05066144  0.61952634  0.22609433
   0.99652102  0.66268997  0.89210944
   0.92422296  0.72606094  0.55799696
   0.83574161  0.75836050  0.24362435
   0.77678375  0.78495346  0.90803276
   0.28969970  0.58623767  0.57822460
   0.20781163  0.63634654  0.21220625
   0.12942734  0.68216758  0.87583033
   0.05838611  0.72377871  0.55928368
   0.98408484  0.76568257  0.20986622
   0.92423793  0.79221028  0.89753314
   0.84114923  0.84112422  0.56368289
   0.36268814  0.63470072  0.21115162
   0.29797852  0.66519986  0.89270214
   0.19648310  0.69949736  0.55672785
   0.13833315  0.75160407  0.20241987
   0.06033192  0.79553731  0.90057327
   0.98973763  0.85942142  0.56752107
   0.92961729  0.89444869  0.22877946
   0.43479191  0.67802175  0.88703687
   0.35785880  0.70356777  0.55257538
   0.29825483  0.73324421  0.22259891
   0.21251878  0.80327767  0.88576658
   0.14437522  0.84646636  0.55606841
   0.06470824  0.87987993  0.22553488
   0.98882577  0.91753529  0.90374362
   0.91809983  0.96352418  0.56721869
   0.87392642  0.02259052  0.18255230
   0.76991859  0.05131290  0.88384244
   0.73230106  0.08893999  0.54680099
   0.64690343  0.12393299  0.22612537
   0.57901939  0.16638778  0.89426311
   0.50433062  0.18966778  0.53407566
   0.07479423  0.98762837  0.55877419
   0.13799407  0.00421213  0.23757688
   0.20828389  0.04223149  0.89999574
   0.29275180  0.08263821  0.57806496
   0.38348068  0.10574221  0.22463844
   0.42449472  0.18922571  0.87612251
   0.86103036  0.92026132  0.89251296
   0.77239400  0.96522871  0.54254604
   0.72664184  0.00891470  0.22544591
   0.64423383  0.04851617  0.90575949
   0.59589666  0.07162302  0.56429957
   0.50172454  0.11595850  0.23481279
   0.15592382  0.91900425  0.89464942
   0.21248057  0.97770713  0.56087488
   0.28399558  0.98804540  0.24811039
   0.36110743  0.04238433  0.89972095
   0.46033314  0.06618482  0.55901820
   0.79881630  0.88921693  0.20307452
   0.71461011  0.91862319  0.87788601
   0.64650220  0.95336434  0.54577042
   0.59368618  0.00047547  0.22915082
   0.50115222  0.05770069  0.89594573
   0.22238085  0.87278061  0.24839953
   0.30990999  0.91984100  0.88930743
   0.35177073  0.93039873  0.55840886
   0.41572082  0.99355890  0.24175031
   0.70578077  0.83408062  0.56839306
   0.63500420  0.87315159  0.20496263
   0.59900768  0.92789319  0.89436591
   0.50287273  0.94563824  0.56579410
   0.28272385  0.82593211  0.55924670
   0.37155667  0.85198734  0.23113061
   0.47385008  0.91707995  0.88918164
   0.64589470  0.77204901  0.89268140
   0.56367745  0.81689773  0.58521628
   0.49131434  0.89135137  0.22887045
   0.35804917  0.78605222  0.87185549
   0.43010922  0.82210110  0.55914926
   0.58343256  0.74963045  0.20743366
   0.50946392  0.79053398  0.88083515
   0.46197905  0.75407168  0.21545434
   0.48096344  0.69835284  0.56225208
