 500 500   0   0
  0.2349479E+02  0.2273250E-08  0.2273250E-08  0.2273250E-08  0.5000000E-15
  1.000000000000000E-004
  CAR 
 Li                                      
      2.70193628     -3.59408765  301      0.02423184      1.00000000
     -3.594  0.0000E+00  0.0000E+00
     -3.573  0.0000E+00  0.0000E+00
     -3.552  0.0000E+00  0.0000E+00
     -3.531  0.0000E+00  0.0000E+00
     -3.510  0.0000E+00  0.0000E+00
     -3.489  0.0000E+00  0.0000E+00
     -3.468  0.1058E-13  0.2220E-15
     -3.447  0.2465E-10  0.5176E-12
     -3.426  0.2202E-07  0.4627E-09
     -3.405  0.7549E-05  0.1589E-06
     -3.384  0.9991E-03  0.2113E-04
     -3.363  0.5146E-01  0.1101E-02
     -3.342  0.1042E+01  0.2297E-01
     -3.321  0.8383E+01  0.1989E+00
     -3.300  0.2710E+02  0.7677E+00
     -3.279  0.3548E+02  0.1512E+01
     -3.258  0.1907E+02  0.1913E+01
     -3.237  0.7282E+01  0.2065E+01
     -3.216  0.2047E+02  0.2495E+01
     -3.195  0.5772E+02  0.3706E+01
     -3.174  0.8527E+02  0.5496E+01
     -3.153  0.7297E+02  0.7027E+01
     -3.132  0.3739E+02  0.7812E+01
     -3.111  0.1953E+02  0.8222E+01
     -3.090  0.4011E+02  0.9064E+01
     -3.069  0.7459E+02  0.1063E+02
     -3.048  0.8245E+02  0.1236E+02
     -3.027  0.5592E+02  0.1353E+02
     -3.006  0.2939E+02  0.1415E+02
     -2.985  0.4482E+02  0.1509E+02
     -2.964  0.8999E+02  0.1698E+02
     -2.943  0.1090E+03  0.1927E+02
     -2.923  0.8297E+02  0.2101E+02
     -2.902  0.4738E+02  0.2200E+02
     -2.881  0.5031E+02  0.2306E+02
     -2.860  0.9667E+02  0.2509E+02
     -2.839  0.1401E+03  0.2803E+02
     -2.818  0.1374E+03  0.3091E+02
     -2.797  0.9225E+02  0.3285E+02
     -2.776  0.4877E+02  0.3387E+02
     -2.755  0.4157E+02  0.3474E+02
     -2.734  0.6848E+02  0.3618E+02
     -2.713  0.8794E+02  0.3803E+02
     -2.692  0.6816E+02  0.3946E+02
     -2.671  0.4723E+02  0.4045E+02
     -2.650  0.7218E+02  0.4196E+02
     -2.629  0.1174E+03  0.4443E+02
     -2.608  0.1416E+03  0.4740E+02
     -2.587  0.1280E+03  0.5008E+02
     -2.566  0.9051E+02  0.5198E+02
     -2.545  0.9239E+02  0.5392E+02
     -2.524  0.1399E+03  0.5686E+02
     -2.503  0.1710E+03  0.6045E+02
     -2.482  0.1700E+03  0.6402E+02
     -2.461  0.1451E+03  0.6706E+02
     -2.440  0.9919E+02  0.6914E+02
     -2.419  0.6268E+02  0.7046E+02
     -2.398  0.6549E+02  0.7183E+02
     -2.377  0.7692E+02  0.7345E+02
     -2.356  0.7091E+02  0.7493E+02
     -2.335  0.6699E+02  0.7634E+02
     -2.314  0.9305E+02  0.7829E+02
     -2.293  0.1346E+03  0.8112E+02
     -2.272  0.1534E+03  0.8434E+02
     -2.251  0.1407E+03  0.8729E+02
     -2.230  0.1082E+03  0.8956E+02
     -2.209  0.9806E+02  0.9162E+02
     -2.188  0.1338E+03  0.9443E+02
     -2.167  0.1733E+03  0.9807E+02
     -2.146  0.1787E+03  0.1018E+03
     -2.125  0.1504E+03  0.1050E+03
     -2.104  0.1126E+03  0.1073E+03
     -2.083  0.1011E+03  0.1095E+03
     -2.062  0.1226E+03  0.1120E+03
     -2.041  0.1404E+03  0.1150E+03
     -2.020  0.1307E+03  0.1177E+03
     -1.999  0.1069E+03  0.1200E+03
     -1.978  0.1115E+03  0.1223E+03
     -1.957  0.1518E+03  0.1255E+03
     -1.936  0.1856E+03  0.1294E+03
     -1.915  0.1842E+03  0.1332E+03
     -1.894  0.1486E+03  0.1364E+03
     -1.873  0.1175E+03  0.1388E+03
     -1.852  0.1360E+03  0.1417E+03
     -1.831  0.1733E+03  0.1453E+03
     -1.810  0.1894E+03  0.1493E+03
     -1.789  0.1691E+03  0.1528E+03
     -1.768  0.1207E+03  0.1554E+03
     -1.747  0.9322E+02  0.1573E+03
     -1.726  0.1054E+03  0.1595E+03
     -1.705  0.1236E+03  0.1621E+03
     -1.684  0.1243E+03  0.1647E+03
     -1.663  0.1119E+03  0.1671E+03
     -1.642  0.1147E+03  0.1695E+03
     -1.621  0.1437E+03  0.1725E+03
     -1.600  0.1552E+03  0.1758E+03
     -1.579  0.1351E+03  0.1786E+03
     -1.558  0.1241E+03  0.1812E+03
     -1.537  0.1606E+03  0.1846E+03
     -1.516  0.2082E+03  0.1890E+03
     -1.495  0.2329E+03  0.1938E+03
     -1.474  0.2419E+03  0.1989E+03
     -1.453  0.2297E+03  0.2037E+03
     -1.432  0.1970E+03  0.2079E+03
     -1.411  0.1748E+03  0.2115E+03
     -1.390  0.1818E+03  0.2154E+03
     -1.369  0.1914E+03  0.2194E+03
     -1.349  0.1780E+03  0.2231E+03
     -1.328  0.1464E+03  0.2262E+03
     -1.307  0.1253E+03  0.2288E+03
     -1.286  0.1382E+03  0.2317E+03
     -1.265  0.1635E+03  0.2351E+03
     -1.244  0.1673E+03  0.2387E+03
     -1.223  0.1522E+03  0.2418E+03
     -1.202  0.1596E+03  0.2452E+03
     -1.181  0.1944E+03  0.2493E+03
     -1.160  0.2141E+03  0.2538E+03
     -1.139  0.2051E+03  0.2581E+03
     -1.118  0.1774E+03  0.2618E+03
     -1.097  0.1399E+03  0.2647E+03
     -1.076  0.1034E+03  0.2669E+03
     -1.055  0.8869E+02  0.2688E+03
     -1.034  0.9231E+02  0.2707E+03
     -1.013  0.1106E+03  0.2730E+03
     -0.992  0.1579E+03  0.2763E+03
     -0.971  0.2163E+03  0.2809E+03
     -0.950  0.2470E+03  0.2861E+03
     -0.929  0.2545E+03  0.2914E+03
     -0.908  0.2520E+03  0.2967E+03
     -0.887  0.2384E+03  0.3017E+03
     -0.866  0.2317E+03  0.3066E+03
     -0.845  0.2462E+03  0.3117E+03
     -0.824  0.2620E+03  0.3172E+03
     -0.803  0.2579E+03  0.3226E+03
     -0.782  0.2326E+03  0.3275E+03
     -0.761  0.2008E+03  0.3317E+03
     -0.740  0.1686E+03  0.3353E+03
     -0.719  0.1439E+03  0.3383E+03
     -0.698  0.1427E+03  0.3413E+03
     -0.677  0.1564E+03  0.3446E+03
     -0.656  0.1797E+03  0.3483E+03
     -0.635  0.2161E+03  0.3529E+03
     -0.614  0.2317E+03  0.3577E+03
     -0.593  0.2110E+03  0.3622E+03
     -0.572  0.1835E+03  0.3660E+03
     -0.551  0.1758E+03  0.3697E+03
     -0.530  0.1995E+03  0.3739E+03
     -0.509  0.2300E+03  0.3787E+03
     -0.488  0.2499E+03  0.3840E+03
     -0.467  0.2533E+03  0.3893E+03
     -0.446  0.2370E+03  0.3943E+03
     -0.425  0.2202E+03  0.3989E+03
     -0.404  0.2089E+03  0.4033E+03
     -0.383  0.1993E+03  0.4074E+03
     -0.362  0.1899E+03  0.4114E+03
     -0.341  0.1849E+03  0.4153E+03
     -0.320  0.2002E+03  0.4195E+03
     -0.299  0.2204E+03  0.4241E+03
     -0.278  0.2313E+03  0.4290E+03
     -0.257  0.2423E+03  0.4341E+03
     -0.236  0.2512E+03  0.4393E+03
     -0.215  0.2455E+03  0.4445E+03
     -0.194  0.2278E+03  0.4493E+03
     -0.173  0.2225E+03  0.4539E+03
     -0.152  0.2278E+03  0.4587E+03
     -0.131  0.2214E+03  0.4634E+03
     -0.110  0.2138E+03  0.4679E+03
     -0.089  0.2176E+03  0.4724E+03
     -0.068  0.2237E+03  0.4771E+03
     -0.047  0.2344E+03  0.4820E+03
     -0.026  0.2451E+03  0.4872E+03
     -0.005  0.2483E+03  0.4924E+03
      0.016  0.2546E+03  0.4977E+03
      0.037  0.2651E+03  0.5033E+03
      0.058  0.2643E+03  0.5088E+03
      0.079  0.2555E+03  0.5142E+03
      0.100  0.2569E+03  0.5196E+03
      0.121  0.2681E+03  0.5252E+03
      0.142  0.2754E+03  0.5310E+03
      0.163  0.2857E+03  0.5370E+03
      0.184  0.2945E+03  0.5432E+03
      0.205  0.2961E+03  0.5494E+03
      0.226  0.2956E+03  0.5556E+03
      0.246  0.2836E+03  0.5616E+03
      0.267  0.2686E+03  0.5672E+03
      0.288  0.2579E+03  0.5726E+03
      0.309  0.2541E+03  0.5779E+03
      0.330  0.2549E+03  0.5833E+03
      0.351  0.2497E+03  0.5885E+03
      0.372  0.2322E+03  0.5934E+03
      0.393  0.2177E+03  0.5980E+03
      0.414  0.2215E+03  0.6026E+03
      0.435  0.2312E+03  0.6075E+03
      0.456  0.2321E+03  0.6123E+03
      0.477  0.2264E+03  0.6171E+03
      0.498  0.2194E+03  0.6217E+03
      0.519  0.2161E+03  0.6262E+03
      0.540  0.2164E+03  0.6308E+03
      0.561  0.2194E+03  0.6354E+03
      0.582  0.2251E+03  0.6401E+03
      0.603  0.2304E+03  0.6449E+03
      0.624  0.2402E+03  0.6500E+03
      0.645  0.2521E+03  0.6553E+03
      0.666  0.2565E+03  0.6607E+03
      0.687  0.2540E+03  0.6660E+03
      0.708  0.2508E+03  0.6712E+03
      0.729  0.2510E+03  0.6765E+03
      0.750  0.2511E+03  0.6818E+03
      0.771  0.2465E+03  0.6870E+03
      0.792  0.2452E+03  0.6921E+03
      0.813  0.2526E+03  0.6974E+03
      0.834  0.2554E+03  0.7028E+03
      0.855  0.2536E+03  0.7081E+03
      0.876  0.2478E+03  0.7133E+03
      0.897  0.2345E+03  0.7182E+03
      0.918  0.2295E+03  0.7230E+03
      0.939  0.2280E+03  0.7278E+03
      0.960  0.2204E+03  0.7324E+03
      0.981  0.2175E+03  0.7370E+03
      1.002  0.2272E+03  0.7418E+03
      1.023  0.2323E+03  0.7466E+03
      1.044  0.2247E+03  0.7514E+03
      1.065  0.2166E+03  0.7559E+03
      1.086  0.2131E+03  0.7604E+03
      1.107  0.2079E+03  0.7647E+03
      1.128  0.1952E+03  0.7688E+03
      1.149  0.1817E+03  0.7726E+03
      1.170  0.1787E+03  0.7764E+03
      1.191  0.1785E+03  0.7801E+03
      1.212  0.1749E+03  0.7838E+03
      1.233  0.1754E+03  0.7875E+03
      1.254  0.1835E+03  0.7913E+03
      1.275  0.1813E+03  0.7952E+03
      1.296  0.1722E+03  0.7988E+03
      1.317  0.1804E+03  0.8026E+03
      1.338  0.1957E+03  0.8067E+03
      1.359  0.2028E+03  0.8109E+03
      1.380  0.2078E+03  0.8153E+03
      1.401  0.2141E+03  0.8198E+03
      1.422  0.2181E+03  0.8243E+03
      1.443  0.2163E+03  0.8289E+03
      1.464  0.2099E+03  0.8333E+03
      1.485  0.2035E+03  0.8376E+03
      1.506  0.2074E+03  0.8419E+03
      1.527  0.2169E+03  0.8465E+03
      1.548  0.2065E+03  0.8508E+03
      1.569  0.1862E+03  0.8547E+03
      1.590  0.1724E+03  0.8583E+03
      1.611  0.1582E+03  0.8616E+03
      1.632  0.1430E+03  0.8646E+03
      1.653  0.1429E+03  0.8676E+03
      1.674  0.1487E+03  0.8708E+03
      1.695  0.1521E+03  0.8740E+03
      1.716  0.1611E+03  0.8773E+03
      1.737  0.1680E+03  0.8809E+03
      1.758  0.1730E+03  0.8845E+03
      1.779  0.1829E+03  0.8883E+03
      1.800  0.1879E+03  0.8923E+03
      1.820  0.1823E+03  0.8961E+03
      1.841  0.1814E+03  0.8999E+03
      1.862  0.1806E+03  0.9037E+03
      1.883  0.1659E+03  0.9072E+03
      1.904  0.1584E+03  0.9105E+03
      1.925  0.1672E+03  0.9140E+03
      1.946  0.1715E+03  0.9176E+03
      1.967  0.1729E+03  0.9212E+03
      1.988  0.1786E+03  0.9250E+03
      2.009  0.1781E+03  0.9287E+03
      2.030  0.1817E+03  0.9325E+03
      2.051  0.1886E+03  0.9365E+03
      2.072  0.1792E+03  0.9403E+03
      2.093  0.1686E+03  0.9438E+03
      2.114  0.1700E+03  0.9474E+03
      2.135  0.1776E+03  0.9511E+03
      2.156  0.1878E+03  0.9550E+03
      2.177  0.1929E+03  0.9591E+03
      2.198  0.1958E+03  0.9632E+03
      2.219  0.2030E+03  0.9674E+03
      2.240  0.2099E+03  0.9719E+03
      2.261  0.2072E+03  0.9762E+03
      2.282  0.2001E+03  0.9804E+03
      2.303  0.2096E+03  0.9848E+03
      2.324  0.2107E+03  0.9892E+03
      2.345  0.1883E+03  0.9932E+03
      2.366  0.1648E+03  0.9966E+03
      2.387  0.1362E+03  0.9995E+03
      2.408  0.8323E+02  0.1001E+04
      2.429  0.3021E+02  0.1002E+04
      2.450  0.5675E+01  0.1002E+04
      2.471  0.5050E+00  0.1002E+04
      2.492  0.1999E-01  0.1002E+04
      2.513  0.3360E-03  0.1002E+04
      2.534  0.2314E-05  0.1002E+04
      2.555  0.6363E-08  0.1002E+04
      2.576  0.6861E-11  0.1002E+04
      2.597  0.2645E-14  0.1002E+04
      2.618  0.0000E+00  0.1002E+04
      2.639  0.0000E+00  0.1002E+04
      2.660  0.0000E+00  0.1002E+04
      2.681  0.0000E+00  0.1002E+04
      2.702  0.0000E+00  0.1002E+04
