 running on   64 total cores
 distrk:  each k-point on   32 cores,    2 groups
 distr:  one band on   32 cores,    1 groups
 vasp.6.2.1 16May21 (build Nov 23 2021 15:40:41) complex                        
  
 POSCAR found type information on POSCAR Li
 POSCAR found :  1 types and     500 ions
 scaLAPACK will be used
 -----------------------------------------------------------------------------
|                                                                             |
|           W    W    AA    RRRRR   N    N  II  N    N   GGGG   !!!           |
|           W    W   A  A   R    R  NN   N  II  NN   N  G    G  !!!           |
|           W    W  A    A  R    R  N N  N  II  N N  N  G       !!!           |
|           W WW W  AAAAAA  RRRRR   N  N N  II  N  N N  G  GGG   !            |
|           WW  WW  A    A  R   R   N   NN  II  N   NN  G    G                |
|           W    W  A    A  R    R  N    N  II  N    N   GGGG   !!!           |
|                                                                             |
|     For optimal performance we recommend to set                             |
|       NCORE = 2 up to number-of-cores-per-socket                            |
|     NCORE specifies how many cores store one orbital (NPAR=cpu/NCORE).      |
|     This setting can greatly improve the performance of VASP for DFT.       |
|     The default, NCORE=1 might be grossly inefficient on modern             |
|     multi-core architectures or massively parallel machines. Do your        |
|     own testing! More info at https://www.vasp.at/wiki/index.php/NCORE      |
|     Unfortunately you need to use the default for GW and RPA                |
|     calculations (for HF NCORE is supported but not extensively tested      |
|     yet).                                                                   |
|                                                                             |
 -----------------------------------------------------------------------------

 -----------------------------------------------------------------------------
|                                                                             |
|               ----> ADVICE to this user running VASP <----                  |
|                                                                             |
|     You have a (more or less) 'large supercell' and for larger cells it     |
|     might be more efficient to use real-space projection operators.         |
|     Therefore, try LREAL= Auto in the INCAR file.                           |
|     Mind: If you want to do very accurate calculations, keep the            |
|     reciprocal projection scheme (i.e. LREAL=.FALSE.).                      |
|                                                                             |
 -----------------------------------------------------------------------------

 LDA part: xc-table for Pade appr. of Perdew
 POSCAR found type information on POSCAR Li
 POSCAR found :  1 types and     500 ions
 POSCAR, INCAR and KPOINTS ok, starting setup
 FFT: planning ...
 WAVECAR not read
 entering main loop
       N       E                     dE             d eps       ncg     rms          rms(c)
DAV:   1    -0.291242053315E+03   -0.29124E+03   -0.11640E+05  4008   0.642E+02
DAV:   2    -0.855328824801E+03   -0.56409E+03   -0.51493E+03  4604   0.635E+01
DAV:   3    -0.898762198399E+03   -0.43433E+02   -0.39856E+02  5280   0.139E+01
DAV:   4    -0.900330392985E+03   -0.15682E+01   -0.15458E+01  4784   0.289E+00
DAV:   5    -0.900369525589E+03   -0.39133E-01   -0.39057E-01  5000   0.476E-01    0.111E+01
DAV:   6    -0.912738048998E+03   -0.12369E+02   -0.16906E+01  5144   0.736E+00    0.125E+01
DAV:   7    -0.882834321748E+03    0.29904E+02   -0.19748E+01  5520   0.646E+00    0.534E+00
DAV:   8    -0.880506974635E+03    0.23273E+01   -0.12743E+01  4888   0.302E+00    0.306E+00
DAV:   9    -0.879993314715E+03    0.51366E+00   -0.52814E+00  4624   0.189E+00    0.174E+00
DAV:  10    -0.879983667864E+03    0.96469E-02   -0.12856E+00  4872   0.116E+00    0.145E+00
DAV:  11    -0.879759291368E+03    0.22438E+00   -0.48942E-01  4832   0.677E-01    0.681E-01
DAV:  12    -0.879763528525E+03   -0.42372E-02   -0.14371E-01  4864   0.338E-01    0.455E-01
DAV:  13    -0.879754180787E+03    0.93477E-02   -0.60112E-02  4960   0.258E-01    0.320E-01
DAV:  14    -0.879747489709E+03    0.66911E-02   -0.17414E-02  4856   0.142E-01    0.172E-01
DAV:  15    -0.879745919989E+03    0.15697E-02   -0.66556E-03  4536   0.766E-02    0.787E-02
DAV:  16    -0.879746442436E+03   -0.52245E-03   -0.18555E-03  4888   0.472E-02    0.678E-02
DAV:  17    -0.879745801971E+03    0.64046E-03   -0.10926E-03  4960   0.359E-02    0.279E-02
DAV:  18    -0.879745782497E+03    0.19474E-04   -0.27955E-04  4600   0.151E-02    0.163E-02
DAV:  19    -0.879745768677E+03    0.13820E-04   -0.78892E-05  4616   0.895E-03    0.101E-02
DAV:  20    -0.879745766069E+03    0.26082E-05   -0.20696E-05  3624   0.594E-03
   1 F= -.87974577E+03 E0= -.87968613E+03  d E =-.119272E+00
