Li                                      
           1
    22.732500   -0.000000    0.000000
    -0.000000   22.732500    0.000000
     0.000000    0.000000   22.732500
   Li
   500
Direct configuration=     1
   0.99706522  0.00692829  0.98495718
   0.02449680  0.09801392  0.07510560
   0.00303886  0.19879459  0.16662140
   0.01233908  0.28929376  0.31476831
   0.99763154  0.39984403  0.40518650
   0.02389594  0.49178786  0.50811281
   0.97597546  0.60658687  0.60735842
   0.97441802  0.67133036  0.70916387
   0.00685522  0.80472535  0.81424053
   0.01443303  0.89295518  0.89657021
   0.09511839  0.01472244  0.10320085
   0.10107926  0.09750978  0.20944240
   0.08448071  0.19940629  0.29450753
   0.10459321  0.31773634  0.40660364
   0.10453720  0.39139967  0.47991112
   0.08095952  0.48370060  0.61332565
   0.10417737  0.58039148  0.70615154
   0.08937483  0.68665622  0.80086290
   0.09567956  0.80252106  0.89897484
   0.09480525  0.89162897  0.99472659
   0.17431122  0.99316562  0.22097487
   0.17779428  0.11354368  0.29300860
   0.21312044  0.23407026  0.36606354
   0.22533741  0.32799588  0.48583222
   0.20129605  0.40358467  0.60169486
   0.19098098  0.47167834  0.70978001
   0.19125045  0.58725613  0.80733242
   0.21014260  0.69746817  0.88971266
   0.19298174  0.81822999  0.99082472
   0.17650978  0.90060473  0.11898437
   0.29992973  0.00952117  0.29527978
   0.29132968  0.10140202  0.38270817
   0.30902139  0.22556157  0.48589557
   0.30084525  0.29990909  0.60100466
   0.32049785  0.35788330  0.71735268
   0.30775425  0.51385482  0.80715302
   0.32489744  0.61763900  0.90551046
   0.31376817  0.70899249  0.00770743
   0.28858302  0.78502345  0.08980127
   0.25550840  0.89839287  0.21988596
   0.38669002  0.01457678  0.37670332
   0.41008831  0.09771971  0.49490777
   0.42394307  0.20433320  0.59493594
   0.41282843  0.30358138  0.70291898
   0.39810143  0.39603400  0.81586821
   0.40403811  0.49189507  0.88678826
   0.40894726  0.61559567  0.00507291
   0.41748631  0.72609384  0.12734027
   0.38798365  0.83468209  0.20539338
   0.40601996  0.91982764  0.27502109
   0.49220107  0.98691920  0.50770309
   0.48971449  0.10579800  0.60929144
   0.49776213  0.19138602  0.71317532
   0.48489102  0.29444439  0.80485399
   0.48868353  0.39201634  0.91118154
   0.49220678  0.48227872  0.00634908
   0.49107330  0.61517552  0.11233044
   0.48727772  0.71206632  0.23697285
   0.51513982  0.83322471  0.30468828
   0.50358452  0.92964561  0.39346170
   0.59407836  0.99478956  0.58251480
   0.60409029  0.08146938  0.68252053
   0.59839917  0.17285534  0.78414969
   0.58800897  0.28834430  0.89802883
   0.58703481  0.38197840  0.01866668
   0.58092622  0.50322068  0.08276988
   0.59382567  0.58419347  0.21178070
   0.61065763  0.72421866  0.30208256
   0.59301758  0.80101420  0.42306027
   0.60047398  0.90230317  0.51707309
   0.70710588  0.96984541  0.74334465
   0.70324217  0.09230524  0.80208106
   0.68850080  0.17492538  0.89604431
   0.70678157  0.26362466  0.97987957
   0.67950063  0.36964217  0.06241431
   0.68180587  0.48592508  0.19273000
   0.69222885  0.61969204  0.30176659
   0.70589269  0.71909046  0.40610691
   0.69521063  0.78073376  0.53149026
   0.69543972  0.90031456  0.61100721
   0.83028585  0.99010469  0.77820576
   0.81308677  0.09799294  0.88906632
   0.78403507  0.20871502  0.99256288
   0.80706077  0.29622084  0.09659892
   0.78071676  0.39404830  0.18362529
   0.80475430  0.48379472  0.30222827
   0.80527747  0.60552421  0.41272134
   0.80039401  0.67493203  0.51401826
   0.80720164  0.78481789  0.61588477
   0.80110083  0.87861319  0.69760642
   0.93025911  0.99206168  0.91883399
   0.89421187  0.12281280  0.98194587
   0.88917918  0.19200058  0.07513205
   0.90751482  0.27116571  0.19308399
   0.88865086  0.40316244  0.27223321
   0.87974097  0.48352923  0.36685348
   0.92397770  0.57085123  0.48466830
   0.90285165  0.69267822  0.60892545
   0.92415612  0.78305614  0.70793833
   0.91139247  0.89676242  0.79239090
   0.11149962  0.08271014  0.98189776
   0.12219263  0.19169227  0.10834710
   0.12884173  0.31896461  0.18928859
   0.10238261  0.41403049  0.30576477
   0.12390157  0.51898630  0.39838097
   0.08512707  0.59074963  0.53944390
   0.09455082  0.69475093  0.62341438
   0.08075885  0.78717601  0.71795104
   0.11314163  0.89510480  0.77301178
   0.12363591  0.99882371  0.85986392
   0.19241125  0.07508090  0.11470981
   0.20338982  0.19743285  0.19678597
   0.20146607  0.31483548  0.31649549
   0.19649117  0.40776878  0.40934021
   0.19923323  0.50958202  0.52690823
   0.19794077  0.56446365  0.60564280
   0.20165553  0.67017974  0.71697707
   0.21388579  0.76592450  0.77816772
   0.20898278  0.87130269  0.86660238
   0.21878457  0.96427746  0.98112836
   0.25954745  0.10630279  0.20193035
   0.31267951  0.19412786  0.29870811
   0.30942423  0.31620960  0.37251240
   0.30824129  0.40573221  0.51415698
   0.30008983  0.47864414  0.63824768
   0.28794523  0.58430626  0.70672256
   0.31212556  0.68819530  0.78559799
   0.30012422  0.75816160  0.92230554
   0.29274464  0.87682149  0.01424659
   0.29286250  0.97740137  0.11140663
   0.40102555  0.09748988  0.26716887
   0.38544398  0.18000097  0.38796626
   0.40056350  0.30059557  0.50776900
   0.41215744  0.38007384  0.62134893
   0.39596801  0.50219339  0.72219179
   0.40880788  0.59891166  0.78963689
   0.40583717  0.69975844  0.89789993
   0.42685106  0.80082632  0.98957780
   0.38004620  0.89866206  0.09831843
   0.39996945  0.98054551  0.20266126
   0.50861387  0.12061182  0.37966281
   0.50864599  0.22231787  0.48105913
   0.50151659  0.27481376  0.61697145
   0.51510021  0.39783564  0.73050476
   0.51079017  0.50491675  0.80395418
   0.48569256  0.62317855  0.90683301
   0.49820190  0.70503452  0.99556078
   0.48668149  0.81066571  0.10525394
   0.49344330  0.92501827  0.18082135
   0.51166160  0.00181955  0.28606538
   0.61372497  0.08801624  0.48854741
   0.59101413  0.19615557  0.59193286
   0.59831678  0.31619200  0.72620242
   0.59844268  0.39660200  0.83921634
   0.57740832  0.51126519  0.94570834
   0.57524928  0.61371327  0.00566361
   0.57471748  0.71815389  0.10538606
   0.57506957  0.82560767  0.19783247
   0.59954360  0.88369713  0.28998822
   0.61035257  0.01135273  0.38356270
   0.70237632  0.08538442  0.62913340
   0.71701726  0.20541965  0.70926126
   0.70157736  0.29853780  0.82251010
   0.70186116  0.38971541  0.90892219
   0.68906381  0.48762494  0.99311937
   0.69381409  0.60437963  0.08123481
   0.66784771  0.72523566  0.20120989
   0.71673310  0.81454605  0.28526373
   0.68736315  0.87592480  0.41193359
   0.71760161  0.01880762  0.48493576
   0.81015294  0.11314179  0.71162943
   0.82105201  0.21645386  0.78718014
   0.79932814  0.31077407  0.88769526
   0.80110392  0.37250121  0.00931939
   0.79594943  0.50726290  0.07745561
   0.77219658  0.59950870  0.20440592
   0.78866348  0.68658348  0.32594142
   0.81616168  0.80422305  0.42483336
   0.78173336  0.87744781  0.51065216
   0.79624359  0.98609149  0.63006141
   0.92552762  0.08575299  0.79405114
   0.91737765  0.21534627  0.88657933
   0.90467541  0.30219970  0.00868700
   0.90851937  0.36357152  0.10327556
   0.91200817  0.50053776  0.18757638
   0.91960442  0.59099115  0.29698000
   0.91182228  0.66281417  0.40049078
   0.91602658  0.80572974  0.51333703
   0.91679363  0.89339213  0.58127128
   0.90970349  0.01514202  0.69205566
   0.02704566  0.10339787  0.87659856
   0.02341988  0.19292547  0.97252753
   0.99400875  0.26024965  0.06870908
   0.02902413  0.38060085  0.18783105
   0.99881034  0.49541067  0.28260469
   0.03310351  0.60744922  0.39166725
   0.01420300  0.67889517  0.50454982
   0.01668568  0.77542431  0.59171443
   0.00535070  0.89665502  0.71638463
   0.02771568  0.00531123  0.79680403
   0.22953502  0.16323882  0.98875282
   0.22238843  0.30021017  0.09070928
   0.21270358  0.40559095  0.19865211
   0.23876655  0.50608832  0.30976583
   0.21489706  0.59150466  0.43896307
   0.19890444  0.68302896  0.51205367
   0.19103214  0.80638911  0.59566139
   0.18798816  0.90786131  0.71713866
   0.19133397  0.00731842  0.78525573
   0.21778290  0.07319410  0.89307259
   0.28632705  0.20015173  0.11087797
   0.31720255  0.27805793  0.20220791
   0.32580975  0.38776403  0.31062062
   0.30841743  0.50923449  0.43118378
   0.32407160  0.61186917  0.53466036
   0.28502869  0.69837545  0.59940822
   0.25455892  0.80293812  0.67456974
   0.28916123  0.90998208  0.80727576
   0.28963087  0.98627637  0.89058361
   0.29736625  0.07961143  0.01267963
   0.40835545  0.19122496  0.18993786
   0.42610101  0.29259039  0.26708723
   0.40945618  0.40948140  0.39729172
   0.41143113  0.51082512  0.53763587
   0.38214960  0.61121545  0.62743188
   0.40708842  0.70275184  0.69210996
   0.39440426  0.81209671  0.79989886
   0.36617141  0.87972506  0.87969740
   0.37001756  0.00071204  0.00598500
   0.38801376  0.09678806  0.12105482
   0.49124495  0.19283107  0.28085788
   0.47031381  0.28422455  0.34687695
   0.49080203  0.37785785  0.50880842
   0.47045684  0.49999008  0.60702961
   0.50270710  0.60336308  0.71720902
   0.52239918  0.70788203  0.78780829
   0.50594691  0.80291800  0.89475738
   0.46767823  0.93330143  0.99741180
   0.51737717  0.99721486  0.11662959
   0.50866721  0.10729660  0.20315459
   0.60213917  0.19353302  0.36294282
   0.56103671  0.31136514  0.48392896
   0.58234153  0.41197697  0.60597093
   0.57606040  0.51683986  0.69742594
   0.59306353  0.58751523  0.81743484
   0.60725472  0.69879789  0.88983300
   0.60250439  0.80952146  0.02052568
   0.61476530  0.91383294  0.08930948
   0.59706829  0.01787002  0.19440668
   0.60468890  0.11552228  0.27542331
   0.67457052  0.22431042  0.49503308
   0.67399349  0.29955828  0.58383044
   0.68507199  0.42547658  0.72331794
   0.68133584  0.51881226  0.82585308
   0.68196097  0.59978495  0.93497917
   0.67731255  0.71812811  0.00083496
   0.70048913  0.79265408  0.11257813
   0.69088501  0.88539994  0.19637886
   0.68439623  0.00046875  0.27986738
   0.70115002  0.09733052  0.37307957
   0.80611227  0.23823568  0.60956080
   0.78992939  0.33243971  0.72927892
   0.79598792  0.41486886  0.81969661
   0.79038634  0.52926002  0.93313163
   0.79318955  0.64133776  0.02439948
   0.76026204  0.71058190  0.10404645
   0.78725899  0.79541578  0.21352170
   0.81044729  0.92680629  0.29029457
   0.78383146  0.97996052  0.39790866
   0.80416783  0.12484064  0.51196893
   0.92101547  0.20743958  0.72972573
   0.92943481  0.32867763  0.81545809
   0.88445722  0.43026467  0.91604141
   0.91924404  0.50248086  0.00389104
   0.90588387  0.62577735  0.11380609
   0.89441162  0.71287290  0.17610635
   0.89599260  0.80827783  0.29462550
   0.89332701  0.91045284  0.41259648
   0.89005995  0.00278480  0.53704044
   0.90713572  0.13602933  0.61614238
   0.04357143  0.19168760  0.80389897
   0.03903132  0.30272545  0.91769835
   0.01142684  0.40380003  0.00454406
   0.00057314  0.50217685  0.11892528
   0.01357546  0.61369251  0.18929063
   0.02796280  0.70682125  0.29220693
   0.00160871  0.80279460  0.40377535
   0.01035021  0.92029940  0.51795915
   0.99780040  0.01077475  0.61336549
   0.02309135  0.13293541  0.69168154
   0.11327440  0.17395987  0.90941808
   0.11437683  0.30634694  0.99858667
   0.11873481  0.38667930  0.08904584
   0.12910621  0.47826665  0.18765847
   0.09935245  0.59592349  0.30955407
   0.10157489  0.71157774  0.44001861
   0.12497283  0.78456082  0.49816075
   0.07347823  0.91364405  0.62382904
   0.10385924  0.02349503  0.68780635
   0.13000555  0.11545787  0.78060719
   0.31907031  0.28243724  0.98415695
   0.30508543  0.38138400  0.09583714
   0.32232869  0.49863566  0.20242680
   0.31696328  0.61649791  0.32170215
   0.31384043  0.71821133  0.44286363
   0.29641359  0.79630478  0.48193404
   0.30441290  0.88231033  0.56831742
   0.30048333  0.99848636  0.68013780
   0.28677980  0.07816167  0.75966206
   0.32023571  0.16401458  0.88005755
   0.39687694  0.28894049  0.12631721
   0.39382878  0.39910328  0.19396334
   0.38613726  0.50905333  0.30113347
   0.42407256  0.60380105  0.40986620
   0.39974692  0.73128275  0.48672367
   0.37876557  0.79932072  0.60423071
   0.40021311  0.89544176  0.69786922
   0.38710404  0.00075178  0.78847512
   0.37829558  0.09924172  0.89578997
   0.38172938  0.17314854  0.01958804
   0.49740007  0.30374087  0.18952786
   0.50306505  0.42338834  0.29589801
   0.49855034  0.52182135  0.45450795
   0.47993096  0.63340236  0.50769028
   0.51792275  0.70666005  0.60070033
   0.51715949  0.80790083  0.67707233
   0.49795475  0.91013322  0.78248788
   0.48266709  0.99199231  0.87928784
   0.46304805  0.09150584  0.01828076
   0.49821004  0.19317863  0.08900527
   0.57941671  0.30414334  0.29565419
   0.58243887  0.41418087  0.38823948
   0.60096256  0.49270598  0.49943945
   0.60583084  0.58801480  0.61121725
   0.61706763  0.69251485  0.70390268
   0.59526361  0.82713435  0.80237406
   0.60803562  0.89785002  0.92102139
   0.59954584  0.02198149  0.98380555
   0.60968480  0.14210823  0.06705158
   0.59711393  0.21367469  0.19902791
   0.69176916  0.31219343  0.37665011
   0.69967130  0.40375997  0.51525638
   0.69620895  0.50771627  0.60696394
   0.69773660  0.57718118  0.73638152
   0.67011213  0.68475631  0.77718570
   0.69039001  0.81051422  0.90569919
   0.71770244  0.91587158  0.00537221
   0.68720680  0.03309965  0.08572964
   0.70899526  0.10972148  0.19510549
   0.69673749  0.20162147  0.30230897
   0.78795034  0.29877200  0.48910515
   0.78572217  0.38279750  0.62054637
   0.79928996  0.49289111  0.70637196
   0.80088758  0.60095241  0.80441609
   0.79604576  0.68118008  0.90677712
   0.80088929  0.82315012  0.98694672
   0.80335146  0.92423606  0.10569634
   0.80467557  0.99067487  0.18560382
   0.79126618  0.10756095  0.29891152
   0.79414596  0.20138954  0.41143625
   0.88382101  0.31011861  0.60510292
   0.90784320  0.42961424  0.71266837
   0.90555774  0.50330065  0.83810402
   0.90856198  0.61975495  0.93605185
   0.87731735  0.71941907  0.02589050
   0.91067126  0.82544572  0.10123268
   0.90784807  0.89376743  0.21038576
   0.89001411  0.02701066  0.30325226
   0.88797422  0.11519705  0.40808369
   0.87826875  0.25267473  0.52501696
   0.00328147  0.29450867  0.69934193
   0.03813928  0.38583942  0.80865637
   0.01667109  0.50676613  0.89677474
   0.99229381  0.63096193  0.00633932
   0.01445590  0.71745615  0.10228436
   0.00088933  0.79193229  0.21099350
   0.00060933  0.90102559  0.30756682
   0.97648078  0.00676944  0.42569884
   0.99989081  0.10547562  0.51424549
   0.00382378  0.21575190  0.58211112
   0.12940904  0.28710535  0.81032024
   0.13596635  0.41366994  0.90051718
   0.12025501  0.50490942  0.01053479
   0.11344264  0.61316635  0.08620590
   0.11623926  0.68909290  0.19983104
   0.09297954  0.79851024  0.31458198
   0.08680235  0.88206976  0.40482278
   0.08299676  0.01162990  0.51158313
   0.11136473  0.13354797  0.57787494
   0.11122432  0.21496946  0.67454933
   0.20565601  0.25598409  0.92055919
   0.23582966  0.41164045  0.98681258
   0.22437523  0.52775667  0.09047635
   0.23728684  0.60654995  0.19304295
   0.20335713  0.69720428  0.31449000
   0.19745346  0.78690063  0.40935704
   0.19748069  0.90158616  0.50290497
   0.19507246  0.01136516  0.58944201
   0.22444865  0.11900368  0.65491084
   0.21102880  0.17204567  0.80413780
   0.38260067  0.37235880  0.97330500
   0.39135592  0.49483547  0.08482834
   0.37554009  0.60936600  0.18078817
   0.38675512  0.74159622  0.31109865
   0.38500754  0.81368944  0.39642585
   0.39963847  0.89007420  0.45308788
   0.38907256  0.99786565  0.59090057
   0.38249710  0.09610003  0.69349431
   0.41517572  0.17909633  0.78372037
   0.38430243  0.27349876  0.89717288
   0.46709721  0.39140540  0.07600542
   0.48657682  0.52314323  0.16540700
   0.47341426  0.60308659  0.29262789
   0.50329840  0.71965112  0.41001923
   0.51853727  0.80269340  0.50597944
   0.48227442  0.90745683  0.60459019
   0.48197638  0.99883451  0.66950647
   0.49060657  0.06925887  0.77630661
   0.46493804  0.20047122  0.88604046
   0.49118028  0.25322365  0.99442394
   0.59236440  0.38202463  0.20543727
   0.58366179  0.48814107  0.29558953
   0.59348298  0.60472427  0.38177391
   0.63143775  0.69405480  0.47823729
   0.60196674  0.80859735  0.61667118
   0.58945708  0.92104383  0.72735474
   0.58709948  0.99431751  0.82625803
   0.57225440  0.09392765  0.89034363
   0.56925899  0.20869453  0.95517121
   0.58237127  0.28461670  0.07706475
   0.69121619  0.37847483  0.28874145
   0.70461677  0.49363656  0.38855896
   0.70969504  0.54421266  0.48837901
   0.73123265  0.66749223  0.62995321
   0.71000860  0.78500799  0.69979463
   0.72848795  0.89714250  0.82366747
   0.71823063  0.00076554  0.89029278
   0.67255482  0.11705482  0.97226168
   0.68275530  0.23378054  0.08378855
   0.69102783  0.27903525  0.21234094
   0.77531023  0.40201557  0.39648407
   0.77823710  0.48668317  0.50316910
   0.81970442  0.58183987  0.59717575
   0.79927174  0.68483991  0.71203444
   0.80438016  0.78329926  0.80778106
   0.81928626  0.93668315  0.88909826
   0.79850363  0.01975163  0.99049505
   0.78764374  0.13677947  0.06710167
   0.77881121  0.20628067  0.19208486
   0.78582747  0.29375090  0.28939408
   0.87947217  0.39257999  0.49942954
   0.90408036  0.48737125  0.60168845
   0.88498741  0.58195599  0.71174672
   0.90388636  0.69218321  0.83466097
   0.92066729  0.79857699  0.90156948
   0.90483074  0.89474662  0.98362855
   0.88061551  0.01650310  0.07281636
   0.88880747  0.10113383  0.17949479
   0.90594264  0.16966752  0.28605466
   0.88618271  0.29818201  0.38588741
   0.01256563  0.37388154  0.59722312
   0.00447228  0.48217680  0.70263783
   0.00300873  0.61383942  0.80470508
   0.99063966  0.68414338  0.91148793
   0.98485929  0.80591315  0.02767330
   0.99809746  0.91855285  0.09305155
   0.99037189  0.99702963  0.18912498
   0.97496990  0.10134093  0.28977177
   0.96579824  0.19882610  0.41205867
   0.99372600  0.29820622  0.49830136
   0.09564547  0.39052905  0.71470877
   0.10779298  0.50494982  0.80514112
   0.08558901  0.57992431  0.91081777
   0.10819577  0.71252056  0.00969599
   0.09192466  0.80040285  0.11971334
   0.07795141  0.89802647  0.22334248
   0.08725373  0.99274430  0.30262329
   0.09112150  0.10395588  0.39029239
   0.11293732  0.20249965  0.47042879
   0.12786765  0.29240449  0.61444277
   0.19362391  0.36718196  0.79672908
   0.20991940  0.49180535  0.89721559
   0.21711808  0.59177496  0.97446782
   0.20865854  0.70372335  0.12222083
   0.17835489  0.79385014  0.21194748
   0.16992014  0.89650777  0.31788669
   0.19491329  0.99329008  0.39417589
   0.20461357  0.10375399  0.46575235
   0.21987423  0.20846112  0.53447080
   0.22738902  0.29561727  0.69128356
   0.31448494  0.38174102  0.88971053
   0.34092319  0.52143218  0.98999216
   0.31060216  0.61261634  0.08608967
   0.30604086  0.71348004  0.20382078
   0.30476599  0.80301413  0.31659360
   0.26571478  0.87698754  0.37644844
   0.27966705  0.98502717  0.49395146
   0.28069718  0.09589727  0.54946154
   0.31842106  0.22118201  0.67511609
   0.32277837  0.27785280  0.80985078
