 432 432   0   0
  0.2035379E+02  0.2064000E-08  0.2064000E-08  0.2064000E-08  0.5000000E-15
  1.000000000000000E-004
  CAR 
 Li                                      
      3.45668803     -3.44732377  301      0.38913184      1.00000000
     -3.447  0.0000E+00  0.0000E+00
     -3.424  0.0000E+00  0.0000E+00
     -3.401  0.0000E+00  0.0000E+00
     -3.378  0.0000E+00  0.0000E+00
     -3.355  0.0000E+00  0.0000E+00
     -3.332  0.0000E+00  0.0000E+00
     -3.309  0.4824E-14  0.1110E-15
     -3.286  0.2467E-10  0.5679E-12
     -3.263  0.3984E-07  0.9174E-09
     -3.240  0.2037E-04  0.4696E-06
     -3.217  0.3326E-02  0.7702E-04
     -3.194  0.1758E+00  0.4122E-02
     -3.171  0.3056E+01  0.7445E-01
     -3.148  0.1782E+02  0.4845E+00
     -3.125  0.3545E+02  0.1300E+01
     -3.102  0.2426E+02  0.1859E+01
     -3.079  0.5966E+01  0.1996E+01
     -3.056  0.4823E+01  0.2107E+01
     -3.033  0.2457E+02  0.2672E+01
     -3.010  0.5748E+02  0.3995E+01
     -2.987  0.7238E+02  0.5661E+01
     -2.964  0.6130E+02  0.7072E+01
     -2.941  0.3216E+02  0.7812E+01
     -2.918  0.1353E+02  0.8123E+01
     -2.895  0.2755E+02  0.8757E+01
     -2.872  0.5624E+02  0.1005E+02
     -2.849  0.6787E+02  0.1161E+02
     -2.826  0.6004E+02  0.1300E+02
     -2.803  0.3649E+02  0.1383E+02
     -2.780  0.2665E+02  0.1445E+02
     -2.757  0.5207E+02  0.1565E+02
     -2.734  0.8330E+02  0.1756E+02
     -2.711  0.9742E+02  0.1981E+02
     -2.688  0.7053E+02  0.2143E+02
     -2.665  0.3327E+02  0.2219E+02
     -2.642  0.4167E+02  0.2315E+02
     -2.619  0.7879E+02  0.2497E+02
     -2.596  0.1124E+03  0.2755E+02
     -2.573  0.1242E+03  0.3041E+02
     -2.550  0.1010E+03  0.3273E+02
     -2.527  0.4573E+02  0.3379E+02
     -2.504  0.1568E+02  0.3415E+02
     -2.481  0.3999E+02  0.3507E+02
     -2.458  0.8961E+02  0.3713E+02
     -2.435  0.8492E+02  0.3908E+02
     -2.412  0.3765E+02  0.3995E+02
     -2.389  0.3047E+02  0.4065E+02
     -2.366  0.7641E+02  0.4241E+02
     -2.343  0.1234E+03  0.4525E+02
     -2.320  0.1312E+03  0.4827E+02
     -2.297  0.1011E+03  0.5060E+02
     -2.274  0.5993E+02  0.5198E+02
     -2.251  0.5985E+02  0.5335E+02
     -2.228  0.1063E+03  0.5580E+02
     -2.205  0.1537E+03  0.5934E+02
     -2.182  0.1787E+03  0.6345E+02
     -2.159  0.1599E+03  0.6713E+02
     -2.136  0.9419E+02  0.6930E+02
     -2.113  0.3907E+02  0.7020E+02
     -2.090  0.4156E+02  0.7115E+02
     -2.067  0.6286E+02  0.7260E+02
     -2.044  0.6489E+02  0.7409E+02
     -2.020  0.5474E+02  0.7535E+02
     -1.997  0.4824E+02  0.7646E+02
     -1.974  0.8374E+02  0.7839E+02
     -1.951  0.1410E+03  0.8164E+02
     -1.928  0.1582E+03  0.8528E+02
     -1.905  0.1265E+03  0.8819E+02
     -1.882  0.6821E+02  0.8976E+02
     -1.859  0.5171E+02  0.9095E+02
     -1.836  0.1065E+03  0.9340E+02
     -1.813  0.1683E+03  0.9727E+02
     -1.790  0.1871E+03  0.1016E+03
     -1.767  0.1579E+03  0.1052E+03
     -1.744  0.9283E+02  0.1073E+03
     -1.721  0.5050E+02  0.1085E+03
     -1.698  0.8096E+02  0.1104E+03
     -1.675  0.1264E+03  0.1133E+03
     -1.652  0.1339E+03  0.1164E+03
     -1.629  0.1050E+03  0.1188E+03
     -1.606  0.6271E+02  0.1202E+03
     -1.583  0.8264E+02  0.1221E+03
     -1.560  0.1579E+03  0.1258E+03
     -1.537  0.1993E+03  0.1303E+03
     -1.514  0.1775E+03  0.1344E+03
     -1.491  0.1206E+03  0.1372E+03
     -1.468  0.8445E+02  0.1392E+03
     -1.445  0.1115E+03  0.1417E+03
     -1.422  0.1486E+03  0.1451E+03
     -1.399  0.1653E+03  0.1489E+03
     -1.376  0.1605E+03  0.1526E+03
     -1.353  0.1089E+03  0.1551E+03
     -1.330  0.5672E+02  0.1564E+03
     -1.307  0.7332E+02  0.1581E+03
     -1.284  0.1128E+03  0.1607E+03
     -1.261  0.1293E+03  0.1637E+03
     -1.238  0.1120E+03  0.1663E+03
     -1.215  0.7295E+02  0.1680E+03
     -1.192  0.7584E+02  0.1697E+03
     -1.169  0.1275E+03  0.1726E+03
     -1.146  0.1496E+03  0.1761E+03
     -1.123  0.1140E+03  0.1787E+03
     -1.100  0.8127E+02  0.1806E+03
     -1.077  0.1245E+03  0.1834E+03
     -1.054  0.2080E+03  0.1882E+03
     -1.031  0.2461E+03  0.1939E+03
     -1.008  0.2390E+03  0.1994E+03
     -0.985  0.2163E+03  0.2044E+03
     -0.962  0.1649E+03  0.2082E+03
     -0.939  0.1146E+03  0.2108E+03
     -0.916  0.1341E+03  0.2139E+03
     -0.893  0.1769E+03  0.2180E+03
     -0.870  0.1847E+03  0.2222E+03
     -0.847  0.1514E+03  0.2257E+03
     -0.824  0.9357E+02  0.2278E+03
     -0.801  0.8590E+02  0.2298E+03
     -0.778  0.1336E+03  0.2329E+03
     -0.755  0.1615E+03  0.2366E+03
     -0.732  0.1396E+03  0.2398E+03
     -0.709  0.9465E+02  0.2420E+03
     -0.686  0.1004E+03  0.2443E+03
     -0.663  0.1591E+03  0.2480E+03
     -0.640  0.2088E+03  0.2528E+03
     -0.617  0.2282E+03  0.2580E+03
     -0.594  0.2010E+03  0.2627E+03
     -0.571  0.1514E+03  0.2661E+03
     -0.548  0.1150E+03  0.2688E+03
     -0.525  0.8505E+02  0.2707E+03
     -0.502  0.5348E+02  0.2720E+03
     -0.479  0.6011E+02  0.2734E+03
     -0.456  0.1166E+03  0.2760E+03
     -0.433  0.1825E+03  0.2802E+03
     -0.410  0.2193E+03  0.2853E+03
     -0.387  0.2233E+03  0.2904E+03
     -0.364  0.2118E+03  0.2953E+03
     -0.341  0.1818E+03  0.2995E+03
     -0.318  0.1616E+03  0.3032E+03
     -0.294  0.1698E+03  0.3071E+03
     -0.271  0.1906E+03  0.3115E+03
     -0.248  0.2200E+03  0.3166E+03
     -0.225  0.2369E+03  0.3220E+03
     -0.202  0.2111E+03  0.3269E+03
     -0.179  0.1717E+03  0.3308E+03
     -0.156  0.1288E+03  0.3338E+03
     -0.133  0.1197E+03  0.3365E+03
     -0.110  0.1504E+03  0.3400E+03
     -0.087  0.1720E+03  0.3440E+03
     -0.064  0.1815E+03  0.3481E+03
     -0.041  0.1958E+03  0.3527E+03
     -0.018  0.2162E+03  0.3576E+03
      0.005  0.2247E+03  0.3628E+03
      0.028  0.2147E+03  0.3677E+03
      0.051  0.2025E+03  0.3724E+03
      0.074  0.1901E+03  0.3768E+03
      0.097  0.1756E+03  0.3808E+03
      0.120  0.1799E+03  0.3850E+03
      0.143  0.1893E+03  0.3893E+03
      0.166  0.1891E+03  0.3937E+03
      0.189  0.1805E+03  0.3978E+03
      0.212  0.1686E+03  0.4017E+03
      0.235  0.1606E+03  0.4054E+03
      0.258  0.1609E+03  0.4091E+03
      0.281  0.1705E+03  0.4130E+03
      0.304  0.1759E+03  0.4171E+03
      0.327  0.1740E+03  0.4211E+03
      0.350  0.1709E+03  0.4250E+03
      0.373  0.1736E+03  0.4290E+03
      0.396  0.1871E+03  0.4333E+03
      0.419  0.1965E+03  0.4378E+03
      0.442  0.1923E+03  0.4422E+03
      0.465  0.1949E+03  0.4467E+03
      0.488  0.2069E+03  0.4515E+03
      0.511  0.2020E+03  0.4561E+03
      0.534  0.1965E+03  0.4607E+03
      0.557  0.1967E+03  0.4652E+03
      0.580  0.1947E+03  0.4697E+03
      0.603  0.1948E+03  0.4742E+03
      0.626  0.1963E+03  0.4787E+03
      0.649  0.1945E+03  0.4832E+03
      0.672  0.2094E+03  0.4880E+03
      0.695  0.2268E+03  0.4932E+03
      0.718  0.2272E+03  0.4984E+03
      0.741  0.2314E+03  0.5037E+03
      0.764  0.2301E+03  0.5090E+03
      0.787  0.2320E+03  0.5144E+03
      0.810  0.2351E+03  0.5198E+03
      0.833  0.2397E+03  0.5253E+03
      0.856  0.2356E+03  0.5307E+03
      0.879  0.2253E+03  0.5359E+03
      0.902  0.2207E+03  0.5410E+03
      0.925  0.2226E+03  0.5461E+03
      0.948  0.2155E+03  0.5511E+03
      0.971  0.2113E+03  0.5559E+03
      0.994  0.2129E+03  0.5608E+03
      1.017  0.2129E+03  0.5657E+03
      1.040  0.2130E+03  0.5706E+03
      1.063  0.2134E+03  0.5756E+03
      1.086  0.2155E+03  0.5805E+03
      1.109  0.2167E+03  0.5855E+03
      1.132  0.2158E+03  0.5905E+03
      1.155  0.2098E+03  0.5953E+03
      1.178  0.2036E+03  0.6000E+03
      1.201  0.1868E+03  0.6043E+03
      1.224  0.1709E+03  0.6082E+03
      1.247  0.1726E+03  0.6122E+03
      1.270  0.1751E+03  0.6162E+03
      1.293  0.1775E+03  0.6203E+03
      1.316  0.1863E+03  0.6246E+03
      1.339  0.1935E+03  0.6290E+03
      1.362  0.1903E+03  0.6334E+03
      1.385  0.1866E+03  0.6377E+03
      1.408  0.1795E+03  0.6418E+03
      1.432  0.1598E+03  0.6455E+03
      1.455  0.1539E+03  0.6491E+03
      1.478  0.1604E+03  0.6528E+03
      1.501  0.1579E+03  0.6564E+03
      1.524  0.1540E+03  0.6599E+03
      1.547  0.1568E+03  0.6635E+03
      1.570  0.1599E+03  0.6672E+03
      1.593  0.1740E+03  0.6712E+03
      1.616  0.1843E+03  0.6755E+03
      1.639  0.1830E+03  0.6797E+03
      1.662  0.1808E+03  0.6838E+03
      1.685  0.1734E+03  0.6878E+03
      1.708  0.1662E+03  0.6917E+03
      1.731  0.1638E+03  0.6954E+03
      1.754  0.1701E+03  0.6993E+03
      1.777  0.1713E+03  0.7033E+03
      1.800  0.1695E+03  0.7072E+03
      1.823  0.1701E+03  0.7111E+03
      1.846  0.1733E+03  0.7151E+03
      1.869  0.1763E+03  0.7191E+03
      1.892  0.1768E+03  0.7232E+03
      1.915  0.1687E+03  0.7271E+03
      1.938  0.1602E+03  0.7308E+03
      1.961  0.1664E+03  0.7346E+03
      1.984  0.1746E+03  0.7386E+03
      2.007  0.1681E+03  0.7425E+03
      2.030  0.1503E+03  0.7460E+03
      2.053  0.1398E+03  0.7492E+03
      2.076  0.1424E+03  0.7525E+03
      2.099  0.1408E+03  0.7557E+03
      2.122  0.1471E+03  0.7591E+03
      2.145  0.1562E+03  0.7627E+03
      2.168  0.1461E+03  0.7660E+03
      2.191  0.1354E+03  0.7692E+03
      2.214  0.1256E+03  0.7720E+03
      2.237  0.1213E+03  0.7748E+03
      2.260  0.1210E+03  0.7776E+03
      2.283  0.1223E+03  0.7804E+03
      2.306  0.1270E+03  0.7834E+03
      2.329  0.1193E+03  0.7861E+03
      2.352  0.1025E+03  0.7885E+03
      2.375  0.9382E+02  0.7906E+03
      2.398  0.9036E+02  0.7927E+03
      2.421  0.7447E+02  0.7944E+03
      2.444  0.4614E+02  0.7955E+03
      2.467  0.3363E+02  0.7962E+03
      2.490  0.4609E+02  0.7973E+03
      2.513  0.6099E+02  0.7987E+03
      2.536  0.6794E+02  0.8003E+03
      2.559  0.7485E+02  0.8020E+03
      2.582  0.7787E+02  0.8038E+03
      2.605  0.7586E+02  0.8055E+03
      2.628  0.7779E+02  0.8073E+03
      2.651  0.7849E+02  0.8091E+03
      2.674  0.8698E+02  0.8111E+03
      2.697  0.1074E+03  0.8136E+03
      2.720  0.1190E+03  0.8163E+03
      2.743  0.1211E+03  0.8191E+03
      2.766  0.1240E+03  0.8220E+03
      2.789  0.1292E+03  0.8250E+03
      2.812  0.1336E+03  0.8280E+03
      2.835  0.1314E+03  0.8311E+03
      2.858  0.1270E+03  0.8340E+03
      2.881  0.1290E+03  0.8370E+03
      2.904  0.1245E+03  0.8398E+03
      2.927  0.1089E+03  0.8423E+03
      2.950  0.9973E+02  0.8446E+03
      2.973  0.1000E+03  0.8469E+03
      2.996  0.9925E+02  0.8492E+03
      3.019  0.9809E+02  0.8515E+03
      3.042  0.1071E+03  0.8539E+03
      3.065  0.1145E+03  0.8566E+03
      3.088  0.1218E+03  0.8594E+03
      3.111  0.1214E+03  0.8622E+03
      3.135  0.9963E+02  0.8645E+03
      3.158  0.5169E+02  0.8656E+03
      3.181  0.1383E+02  0.8660E+03
      3.204  0.1637E+01  0.8660E+03
      3.227  0.7515E-01  0.8660E+03
      3.250  0.1230E-02  0.8660E+03
      3.273  0.6830E-05  0.8660E+03
      3.296  0.1250E-07  0.8660E+03
      3.319  0.7408E-11  0.8660E+03
      3.342  0.0000E+00  0.8660E+03
      3.365  0.0000E+00  0.8660E+03
      3.388  0.0000E+00  0.8660E+03
      3.411  0.0000E+00  0.8660E+03
      3.434  0.0000E+00  0.8660E+03
      3.457  0.0000E+00  0.8660E+03
