       N       E                     dE             d eps       ncg     rms          rms(c)
DAV:   1    -0.222311318897E+03   -0.22231E+03   -0.10486E+05  3464   0.656E+02
DAV:   2    -0.748983372802E+03   -0.52667E+03   -0.47947E+03  4004   0.675E+01
DAV:   3    -0.787784687124E+03   -0.38801E+02   -0.35519E+02  4496   0.145E+01
DAV:   4    -0.789102050261E+03   -0.13174E+01   -0.12992E+01  4040   0.294E+00
DAV:   5    -0.789133543151E+03   -0.31493E-01   -0.31446E-01  4176   0.478E-01    0.109E+01
DAV:   6    -0.799364171330E+03   -0.10231E+02   -0.16691E+01  4360   0.832E+00    0.122E+01
DAV:   7    -0.772717448995E+03    0.26647E+02   -0.18467E+01  4432   0.670E+00    0.475E+00
DAV:   8    -0.770764719554E+03    0.19527E+01   -0.95079E+00  4040   0.299E+00    0.254E+00
DAV:   9    -0.770515254016E+03    0.24947E+00   -0.38109E+00  3800   0.165E+00    0.138E+00
DAV:  10    -0.770543337143E+03   -0.28083E-01   -0.54891E-01  4232   0.878E-01    0.117E+00
DAV:  11    -0.770405622388E+03    0.13771E+00   -0.20500E-01  4056   0.559E-01    0.558E-01
DAV:  12    -0.770399610595E+03    0.60118E-02   -0.82368E-02  3912   0.268E-01    0.304E-01
DAV:  13    -0.770399120866E+03    0.48973E-03   -0.25632E-02  3976   0.181E-01    0.210E-01
DAV:  14    -0.770395539482E+03    0.35814E-02   -0.76864E-03  3952   0.109E-01    0.112E-01
DAV:  15    -0.770394970919E+03    0.56856E-03   -0.23387E-03  3792   0.490E-02    0.491E-02
DAV:  16    -0.770395064637E+03   -0.93718E-04   -0.63796E-04  4176   0.317E-02    0.394E-02
DAV:  17    -0.770394862850E+03    0.20179E-03   -0.33126E-04  4080   0.224E-02    0.154E-02
DAV:  18    -0.770394851888E+03    0.10962E-04   -0.11406E-04  3816   0.955E-03    0.805E-03
DAV:  19    -0.770394845530E+03    0.63585E-05   -0.19304E-05  2384   0.450E-03
   1 F= -.77039485E+03 E0= -.77035200E+03  d E =-.856912E-01
