Li                                      
           1
    20.640000    0.000000    0.000000
     0.000000   20.640000    0.000000
     0.000000    0.000000   20.640000
   Li
   432
Direct configuration=     1
   0.97584922  0.01095392  0.99940800
   0.88334596  0.06747389  0.08561303
   0.83456877  0.16458558  0.19375563
   0.77430920  0.25465430  0.23879052
   0.67334139  0.34471073  0.33832787
   0.57354246  0.42113560  0.42758154
   0.49145677  0.48580143  0.54189159
   0.38818014  0.55215319  0.57400812
   0.33407691  0.66680374  0.66368087
   0.24330539  0.76544276  0.72236238
   0.15835022  0.84234186  0.82888169
   0.06527859  0.91737013  0.90090848
   0.07996682  0.88524276  0.07907257
   0.98654898  0.01435454  0.14477258
   0.90776409  0.04954967  0.27226516
   0.84260760  0.16863895  0.31541522
   0.75110365  0.23427128  0.41129572
   0.65894077  0.33675367  0.49367723
   0.56585512  0.41515828  0.58696891
   0.48693344  0.52923211  0.65092705
   0.39762759  0.58471223  0.73142858
   0.30572339  0.64805538  0.80850475
   0.25921357  0.74353779  0.86964879
   0.16894691  0.82409108  0.98051563
   0.17100729  0.81871711  0.16900483
   0.06031507  0.92277499  0.24354425
   0.98794614  0.96965899  0.35377500
   0.90859740  0.09225620  0.39943981
   0.81894576  0.16877948  0.50325574
   0.74910328  0.27268294  0.58016331
   0.66152431  0.34355682  0.67541829
   0.57886081  0.44564393  0.75515727
   0.46443963  0.52127613  0.81358427
   0.38418169  0.59583718  0.90921026
   0.31912220  0.68190514  0.97492106
   0.24168122  0.74632475  0.06397953
   0.23708904  0.75148092  0.28288917
   0.14735449  0.86187524  0.32050824
   0.06755126  0.91057126  0.42809938
   0.98180200  0.00714026  0.48272798
   0.90593003  0.10639857  0.57985576
   0.82488399  0.17862451  0.65986323
   0.74127152  0.27442168  0.76962942
   0.64847263  0.37877695  0.83968083
   0.57205314  0.45300840  0.92893907
   0.48821391  0.55940979  0.00031439
   0.39287772  0.60398468  0.09003585
   0.32589823  0.69455002  0.19754714
   0.32411412  0.66856168  0.37133060
   0.24372806  0.79160910  0.42096891
   0.14017652  0.86649051  0.51732790
   0.04405727  0.93172629  0.56649632
   0.97749012  0.01769060  0.66986791
   0.89042898  0.11309527  0.76384814
   0.80657744  0.18243402  0.84715714
   0.73780498  0.29863640  0.93262204
   0.65964917  0.33286093  0.02445405
   0.56727089  0.44298831  0.04657126
   0.48645825  0.50132370  0.17442694
   0.44119462  0.62672886  0.27362426
   0.42707068  0.54867011  0.45645926
   0.32973810  0.66349745  0.49558944
   0.25152486  0.75379728  0.57915691
   0.14255117  0.85313809  0.64211440
   0.05308364  0.92231136  0.73446108
   0.98112305  0.02152974  0.80383681
   0.87774543  0.07723451  0.92361697
   0.84657145  0.16980709  0.00110635
   0.73835068  0.23181471  0.10365501
   0.64654225  0.33998985  0.18487661
   0.55268083  0.42653960  0.26670341
   0.49353903  0.49716720  0.36492417
   0.10281588  0.07651351  0.91207698
   0.97188904  0.14049848  0.00384503
   0.92630253  0.23689380  0.10312155
   0.83313893  0.33949722  0.16189075
   0.76741315  0.42023437  0.25710512
   0.66216974  0.49714110  0.32378772
   0.59360216  0.57692127  0.45914056
   0.49323689  0.64073785  0.51246524
   0.41632601  0.73661614  0.60027617
   0.34613440  0.83342485  0.65962085
   0.22499612  0.91047835  0.73294481
   0.14916440  0.00376863  0.82661805
   0.15399244  0.97775693  0.00968103
   0.08474376  0.09252213  0.11627055
   0.98460570  0.14851316  0.18668472
   0.90952722  0.25093679  0.25543448
   0.83709424  0.34110988  0.33986419
   0.74917972  0.42239398  0.39413598
   0.68083750  0.48452648  0.49849438
   0.58906859  0.57860119  0.57454834
   0.48651188  0.65284725  0.65261334
   0.41475645  0.74018561  0.74759818
   0.34253674  0.83998498  0.82010979
   0.25615181  0.92089059  0.89020144
   0.26540083  0.92426820  0.08237333
   0.16044326  0.99707012  0.16695170
   0.07812448  0.06734122  0.27234051
   0.98357182  0.17003327  0.33564010
   0.89707206  0.23880702  0.40486675
   0.82914551  0.33665321  0.47994811
   0.74783123  0.39867675  0.55813139
   0.65299788  0.48940682  0.65790206
   0.57565711  0.56298644  0.73830055
   0.48140816  0.63263272  0.83277907
   0.41785474  0.73279003  0.89054316
   0.33305884  0.82586092  0.97953666
   0.34875851  0.82027298  0.12958514
   0.25415498  0.90319333  0.25984869
   0.18121698  0.97798332  0.36402595
   0.09376006  0.08580245  0.41108321
   0.00193950  0.14459100  0.50089649
   0.92754229  0.25254415  0.56899433
   0.82790326  0.32272583  0.67596761
   0.71744416  0.40878158  0.72653536
   0.67644185  0.49590633  0.83888026
   0.59650559  0.58953584  0.88573242
   0.49791914  0.66189811  0.97125511
   0.41447206  0.74027704  0.06158956
   0.41658273  0.76784050  0.27296285
   0.34667105  0.82270524  0.30657425
   0.27191864  0.92787304  0.42999588
   0.15124480  0.00459428  0.50737895
   0.07796484  0.08149103  0.56049698
   0.98880829  0.18560453  0.64809690
   0.90729147  0.22594330  0.75465626
   0.83129023  0.35650947  0.83627052
   0.77085145  0.40960728  0.95012456
   0.66317668  0.52671873  0.99598665
   0.58104128  0.60057830  0.10032794
   0.50688872  0.67128161  0.17710271
   0.50769031  0.68539236  0.35138620
   0.41952027  0.75122858  0.42429575
   0.35731341  0.84798996  0.50949975
   0.24397258  0.91597536  0.57652141
   0.13832660  0.99426308  0.66019012
   0.08519643  0.11446249  0.74872719
   0.98887706  0.15836936  0.87196491
   0.91705205  0.26191441  0.90771268
   0.86306429  0.32935276  0.02222419
   0.74970501  0.42554574  0.08609636
   0.65309597  0.50168294  0.17437909
   0.57548419  0.58426190  0.25246515
   0.16566788  0.14516058  0.81673154
   0.07719022  0.22124179  0.94241037
   0.03793082  0.31610134  0.00496782
   0.96300354  0.40884894  0.09989268
   0.85869715  0.51488772  0.14350694
   0.75950145  0.56376167  0.24759233
   0.65168067  0.64577781  0.33924113
   0.60961333  0.75079222  0.44892041
   0.50059911  0.82912302  0.50633265
   0.44278104  0.91134746  0.59651744
   0.35896997  0.00474840  0.67654476
   0.24361503  0.09182841  0.73108448
   0.24808350  0.07385124  0.90649342
   0.16015476  0.17513229  0.02924938
   0.07350387  0.23907584  0.12020859
   0.98236072  0.32104773  0.17421491
   0.91731205  0.40966086  0.25889954
   0.82355082  0.50497414  0.32625982
   0.72970547  0.55013927  0.41297714
   0.70629157  0.64394714  0.51223331
   0.59902656  0.75035093  0.57777809
   0.50784250  0.82224385  0.65562917
   0.45967910  0.91823296  0.71769289
   0.34788884  0.98309200  0.79695982
   0.34993223  0.00959736  0.96370074
   0.24829162  0.07052941  0.06916073
   0.18295532  0.15104257  0.18566079
   0.06758734  0.25177508  0.25036472
   0.95418851  0.31604474  0.34930146
   0.90026004  0.44392622  0.40565685
   0.79792394  0.49832239  0.48872795
   0.74675601  0.57171826  0.58835124
   0.65982358  0.64842869  0.68048117
   0.56471183  0.75383625  0.74549927
   0.50527426  0.82195575  0.79549163
   0.43117699  0.90012622  0.91423367
   0.41140475  0.91749835  0.10546171
   0.34040025  0.01347280  0.15182996
   0.25151393  0.06340900  0.26621855
   0.17776527  0.18721006  0.31908470
   0.08707771  0.27090192  0.41795385
   0.98894698  0.35727888  0.48823306
   0.89948796  0.39414471  0.57962692
   0.82186850  0.50135009  0.64634005
   0.74458723  0.56694757  0.77355386
   0.66546567  0.68421120  0.82272779
   0.54873354  0.74189842  0.90445705
   0.48731725  0.83497464  0.99263786
   0.51939740  0.83755635  0.18075969
   0.43509160  0.92350122  0.25377073
   0.33323839  0.97966894  0.30911625
   0.27683233  0.08858858  0.42285503
   0.18315884  0.16838670  0.49169152
   0.08378522  0.26186655  0.53531313
   0.01436222  0.32527256  0.64960443
   0.91949389  0.39564496  0.76259093
   0.84110214  0.46281077  0.84462449
   0.76873055  0.59216274  0.92009397
   0.64903139  0.67357129  0.00477328
   0.56554678  0.73669954  0.08233887
   0.57092070  0.75384874  0.26203266
   0.52026035  0.82146712  0.31695424
   0.44827984  0.91329408  0.41852225
   0.36142042  0.98998577  0.50785284
   0.25558768  0.07980929  0.58476902
   0.16414682  0.16948213  0.62413649
   0.08536778  0.24989236  0.76156024
   0.02010530  0.34297557  0.84899516
   0.95169578  0.40517643  0.94228695
   0.84401939  0.49180738  0.02059012
   0.77877831  0.60837661  0.08278328
   0.68116513  0.65669263  0.20021787
   0.24585313  0.26158321  0.72976053
   0.16279421  0.33179974  0.83625373
   0.11481999  0.41044579  0.91175959
   0.04281293  0.52177532  0.02691495
   0.93575732  0.60240855  0.08094034
   0.86332930  0.69742827  0.17049127
   0.74262121  0.73114836  0.25097762
   0.68742321  0.82876321  0.36116142
   0.60763838  0.90064183  0.44067886
   0.50769884  0.98622127  0.50067900
   0.43819927  0.09421751  0.59453193
   0.34798400  0.17765205  0.65835893
   0.34330399  0.18494239  0.81234033
   0.24797951  0.22817846  0.90174709
   0.17307202  0.32052738  0.02092747
   0.09595137  0.41317519  0.10580919
   0.98501916  0.52695179  0.16970663
   0.92700911  0.57638582  0.26807689
   0.81431335  0.66360589  0.32873316
   0.75803527  0.74352765  0.41660037
   0.69647927  0.83365328  0.54718374
   0.57975084  0.92486911  0.58757956
   0.54627077  0.02053233  0.68535451
   0.43291348  0.10740958  0.73871844
   0.41736649  0.08092388  0.93119226
   0.29995655  0.19048897  0.00472088
   0.24675543  0.25065505  0.11261919
   0.17603695  0.31789112  0.17095573
   0.07342544  0.41866541  0.24736811
   0.01528826  0.47476123  0.35133236
   0.91965925  0.55378805  0.41368382
   0.85247777  0.63896296  0.49371535
   0.76562350  0.72903993  0.57365050
   0.67337534  0.83367803  0.67428158
   0.58726175  0.93146729  0.75418057
   0.49498524  0.01474973  0.83793197
   0.51036240  0.98893974  0.00184199
   0.42405320  0.08755106  0.06462893
   0.33365893  0.13231453  0.18138264
   0.26938446  0.24770354  0.23082240
   0.15985749  0.33604057  0.28710307
   0.08470932  0.40731023  0.40299532
   0.01188462  0.47832948  0.51203502
   0.93388931  0.57347551  0.56861939
   0.81520597  0.65013337  0.66779770
   0.76179434  0.75222787  0.75234832
   0.67454320  0.83164432  0.81357757
   0.58777246  0.90311202  0.88139367
   0.56357150  0.88191558  0.07555704
   0.51345901  0.01933227  0.14171215
   0.45294613  0.10782418  0.26969838
   0.35321648  0.18271063  0.32410355
   0.24552752  0.24903522  0.37637337
   0.18822625  0.36393420  0.48706368
   0.07571302  0.42034926  0.58813147
   0.97810135  0.44978416  0.66901902
   0.88620993  0.57053185  0.75754357
   0.83700374  0.68019774  0.81937478
   0.77047028  0.73631382  0.91372234
   0.64062187  0.82440199  0.97658184
   0.65639120  0.82154146  0.18037439
   0.61601053  0.92312633  0.24946101
   0.53274952  0.98656480  0.34314686
   0.41653122  0.07413187  0.38890410
   0.36753827  0.18686818  0.47807070
   0.27016800  0.22494545  0.54425558
   0.17836328  0.31202092  0.64265776
   0.10567852  0.41079240  0.73410029
   0.99776565  0.48163118  0.83832763
   0.90916713  0.57441239  0.90859431
   0.84922999  0.65293695  0.98379931
   0.74027052  0.74562985  0.06998942
   0.31187835  0.32966466  0.65535801
   0.23847662  0.41062100  0.73636183
   0.16962237  0.49875946  0.79611341
   0.06840928  0.59301804  0.89510653
   0.01585781  0.65863483  0.97933759
   0.90239878  0.76384278  0.08316177
   0.82036854  0.81400197  0.19017531
   0.75035511  0.88677073  0.26076835
   0.67913278  0.00449657  0.35018670
   0.61128923  0.09772241  0.43742147
   0.49146128  0.13945483  0.49606429
   0.45981834  0.25913617  0.58064167
   0.40523944  0.28053369  0.76161127
   0.29093963  0.33819740  0.86192059
   0.24158167  0.41882802  0.93525746
   0.17924411  0.52923922  0.02453065
   0.12093909  0.60884712  0.11284886
   0.97659902  0.68996027  0.16990660
   0.95004140  0.73907016  0.28963351
   0.80991983  0.82528216  0.33851440
   0.76874844  0.91018736  0.43281573
   0.67224498  0.00723288  0.50980558
   0.59625335  0.11416323  0.59208085
   0.52430130  0.18953064  0.68980429
   0.50596781  0.16759549  0.86464203
   0.40958938  0.24996929  0.92210497
   0.32196098  0.33722477  0.01259859
   0.25218092  0.43038927  0.10891792
   0.18512418  0.49978114  0.17519587
   0.07940619  0.58087779  0.22183163
   0.03284588  0.63746611  0.34512334
   0.94170224  0.71733431  0.39778305
   0.84714684  0.79823511  0.52970429
   0.77786945  0.94245166  0.60278667
   0.67272241  0.02765289  0.66049671
   0.60968756  0.09300981  0.76600685
   0.60665055  0.07197626  0.92322168
   0.50314030  0.17457843  0.98746656
   0.41222559  0.25790640  0.08906992
   0.33169862  0.32834313  0.16794270
   0.24260206  0.41122878  0.23220875
   0.16176303  0.49770406  0.32800639
   0.10596774  0.54261403  0.43264857
   0.02066594  0.64746649  0.49875923
   0.91914101  0.70469124  0.56621423
   0.82207782  0.82281893  0.67956359
   0.73384087  0.93316917  0.73002176
   0.65438272  0.99351141  0.81632439
   0.67175994  0.96798864  0.01857795
   0.59037681  0.08542794  0.07359794
   0.52918614  0.17411325  0.17117957
   0.42990345  0.26736316  0.24625426
   0.35862233  0.32847883  0.32956832
   0.24782728  0.38872805  0.37460383
   0.18522200  0.46703649  0.50759012
   0.08332686  0.56594026  0.59296401
   0.98526677  0.64276393  0.68068912
   0.93216275  0.75325609  0.73620450
   0.83879718  0.84654393  0.82819358
   0.72353688  0.91924326  0.89386087
   0.75516956  0.89918648  0.10699974
   0.67223621  0.99479684  0.17399101
   0.58796902  0.09539152  0.24994170
   0.51125798  0.17506317  0.35377222
   0.40638105  0.25565628  0.41379876
   0.33561260  0.32180129  0.49466642
   0.25586285  0.39933315  0.56851006
   0.17812334  0.48945712  0.64953138
   0.06186818  0.58026968  0.70614565
   0.98564174  0.63970391  0.80922336
   0.92374922  0.77076336  0.90676233
   0.82028224  0.84798833  0.99559639
   0.40439425  0.38756188  0.58749937
   0.32259673  0.48622134  0.67277821
   0.23105686  0.57990449  0.71435563
   0.15434912  0.65886040  0.78644214
   0.09214723  0.75186931  0.91167693
   0.98080757  0.84390234  0.99905695
   0.90874538  0.91196224  0.09995277
   0.81477517  0.99367033  0.19168200
   0.76609610  0.08273794  0.27872756
   0.68428351  0.15569108  0.32948015
   0.58232446  0.26039730  0.40712756
   0.50265298  0.32170378  0.50577033
   0.49397294  0.35519699  0.69293076
   0.41628034  0.41449283  0.76047459
   0.33613202  0.52259675  0.82505019
   0.24814482  0.56964186  0.89483619
   0.18870381  0.67683442  0.96967402
   0.07045251  0.73784884  0.07812318
   0.99297486  0.81953978  0.17828559
   0.92368966  0.91692412  0.23266338
   0.85205419  0.99859364  0.33344678
   0.74830998  0.08734874  0.43794403
   0.69022160  0.19078336  0.49204148
   0.58318649  0.25033742  0.57559930
   0.60207085  0.26132562  0.75824938
   0.50204301  0.34138337  0.84165737
   0.40158770  0.42728150  0.92699287
   0.31975263  0.51962778  0.00847203
   0.24525829  0.62906240  0.09165574
   0.16729100  0.70338215  0.18601007
   0.07273347  0.76652767  0.25354637
   0.98858790  0.82301054  0.35432710
   0.89914881  0.88479254  0.41449834
   0.85573024  0.02164146  0.50522783
   0.76054738  0.11473215  0.57402175
   0.69042611  0.18086990  0.66302926
   0.67533408  0.16987599  0.85329837
   0.59237064  0.28195987  0.92247900
   0.48018329  0.31809430  0.98677620
   0.41823600  0.41830842  0.09143176
   0.32151026  0.53477596  0.19012108
   0.24179756  0.59794808  0.26002045
   0.16293057  0.67177513  0.34171488
   0.07977777  0.77423635  0.42258819
   0.96160772  0.84151572  0.50871117
   0.90014201  0.93435498  0.60441502
   0.84486927  0.04174082  0.69029318
   0.75588820  0.10427182  0.76347412
   0.72721521  0.08304279  0.93529932
   0.67504630  0.16662995  0.00372633
   0.57277678  0.25325648  0.09052484
   0.50658298  0.33286238  0.16105550
   0.41001223  0.44112353  0.23969322
   0.31526549  0.50320458  0.33472033
   0.23885252  0.58378050  0.41508445
   0.15241341  0.66749768  0.50079394
   0.05151861  0.76177253  0.58695026
   0.96135139  0.83386339  0.66644508
   0.89492212  0.93923196  0.72509358
   0.81493930  0.00773543  0.82952119
   0.80953647  0.98153686  0.01866155
   0.73205439  0.08459468  0.07728345
   0.68015671  0.16265532  0.18133761
   0.60514954  0.24322436  0.27241111
   0.49409479  0.34230175  0.33869900
   0.41421790  0.38903096  0.42988896
   0.33055773  0.46113609  0.48170584
   0.26577378  0.57136254  0.54410381
   0.18563564  0.66063925  0.63310042
   0.07385026  0.73688729  0.72738268
   0.99714931  0.83767658  0.80485973
   0.93094000  0.91867092  0.89726765
