 500 500   0   0
  0.2153794E+02  0.2208300E-08  0.2208300E-08  0.2208300E-08  0.5000000E-15
  1.000000000000000E-004
  CAR 
 Li                                      
      3.09103430     -3.49391064  301      0.23072019      1.00000000
     -3.494  0.0000E+00  0.0000E+00
     -3.472  0.0000E+00  0.0000E+00
     -3.450  0.0000E+00  0.0000E+00
     -3.428  0.0000E+00  0.0000E+00
     -3.406  0.0000E+00  0.0000E+00
     -3.384  0.0000E+00  0.0000E+00
     -3.362  0.9484E-13  0.2082E-14
     -3.340  0.2334E-09  0.5126E-11
     -3.318  0.2015E-06  0.4429E-08
     -3.296  0.6119E-04  0.1348E-05
     -3.274  0.6587E-02  0.1459E-03
     -3.252  0.2541E+00  0.5724E-02
     -3.231  0.3562E+01  0.8391E-01
     -3.209  0.1840E+02  0.4878E+00
     -3.187  0.3549E+02  0.1267E+01
     -3.165  0.2574E+02  0.1832E+01
     -3.143  0.7904E+01  0.2005E+01
     -3.121  0.1065E+02  0.2239E+01
     -3.099  0.4474E+02  0.3221E+01
     -3.077  0.9004E+02  0.5198E+01
     -3.055  0.8419E+02  0.7046E+01
     -3.033  0.3663E+02  0.7850E+01
     -3.011  0.1300E+02  0.8135E+01
     -2.989  0.3395E+02  0.8880E+01
     -2.967  0.8034E+02  0.1064E+02
     -2.945  0.9080E+02  0.1264E+02
     -2.923  0.4920E+02  0.1372E+02
     -2.901  0.1726E+02  0.1410E+02
     -2.879  0.3348E+02  0.1483E+02
     -2.857  0.8886E+02  0.1678E+02
     -2.835  0.1205E+03  0.1943E+02
     -2.813  0.8429E+02  0.2128E+02
     -2.792  0.3518E+02  0.2205E+02
     -2.770  0.3823E+02  0.2289E+02
     -2.748  0.9195E+02  0.2491E+02
     -2.726  0.1503E+03  0.2821E+02
     -2.704  0.1513E+03  0.3153E+02
     -2.682  0.8584E+02  0.3341E+02
     -2.660  0.3258E+02  0.3413E+02
     -2.638  0.4242E+02  0.3506E+02
     -2.616  0.8190E+02  0.3686E+02
     -2.594  0.8428E+02  0.3871E+02
     -2.572  0.4760E+02  0.3975E+02
     -2.550  0.2994E+02  0.4041E+02
     -2.528  0.6880E+02  0.4192E+02
     -2.506  0.1317E+03  0.4481E+02
     -2.484  0.1497E+03  0.4809E+02
     -2.462  0.1102E+03  0.5051E+02
     -2.440  0.6618E+02  0.5197E+02
     -2.418  0.7322E+02  0.5357E+02
     -2.396  0.1372E+03  0.5659E+02
     -2.374  0.1988E+03  0.6095E+02
     -2.353  0.2010E+03  0.6536E+02
     -2.331  0.1388E+03  0.6841E+02
     -2.309  0.6248E+02  0.6978E+02
     -2.287  0.4043E+02  0.7067E+02
     -2.265  0.7956E+02  0.7241E+02
     -2.243  0.9668E+02  0.7454E+02
     -2.221  0.5639E+02  0.7577E+02
     -2.199  0.3769E+02  0.7660E+02
     -2.177  0.8395E+02  0.7844E+02
     -2.155  0.1480E+03  0.8169E+02
     -2.133  0.1658E+03  0.8533E+02
     -2.111  0.1285E+03  0.8815E+02
     -2.089  0.7971E+02  0.8990E+02
     -2.067  0.8481E+02  0.9176E+02
     -2.045  0.1509E+03  0.9508E+02
     -2.023  0.2054E+03  0.9958E+02
     -2.001  0.1981E+03  0.1039E+03
     -1.979  0.1305E+03  0.1068E+03
     -1.957  0.6833E+02  0.1083E+03
     -1.935  0.8234E+02  0.1101E+03
     -1.914  0.1385E+03  0.1131E+03
     -1.892  0.1554E+03  0.1166E+03
     -1.870  0.1138E+03  0.1191E+03
     -1.848  0.8393E+02  0.1209E+03
     -1.826  0.1258E+03  0.1237E+03
     -1.804  0.1838E+03  0.1277E+03
     -1.782  0.1918E+03  0.1319E+03
     -1.760  0.1539E+03  0.1353E+03
     -1.738  0.1055E+03  0.1376E+03
     -1.716  0.9990E+02  0.1398E+03
     -1.694  0.1518E+03  0.1431E+03
     -1.672  0.2003E+03  0.1475E+03
     -1.650  0.1991E+03  0.1519E+03
     -1.628  0.1347E+03  0.1548E+03
     -1.606  0.7490E+02  0.1565E+03
     -1.584  0.9471E+02  0.1586E+03
     -1.562  0.1426E+03  0.1617E+03
     -1.540  0.1439E+03  0.1649E+03
     -1.518  0.1025E+03  0.1671E+03
     -1.496  0.7933E+02  0.1688E+03
     -1.475  0.1111E+03  0.1713E+03
     -1.453  0.1477E+03  0.1745E+03
     -1.431  0.1379E+03  0.1776E+03
     -1.409  0.1026E+03  0.1798E+03
     -1.387  0.1091E+03  0.1822E+03
     -1.365  0.1827E+03  0.1862E+03
     -1.343  0.2541E+03  0.1918E+03
     -1.321  0.2706E+03  0.1977E+03
     -1.299  0.2472E+03  0.2032E+03
     -1.277  0.2000E+03  0.2075E+03
     -1.255  0.1615E+03  0.2111E+03
     -1.233  0.1710E+03  0.2148E+03
     -1.211  0.1966E+03  0.2192E+03
     -1.189  0.1901E+03  0.2233E+03
     -1.167  0.1434E+03  0.2265E+03
     -1.145  0.1025E+03  0.2287E+03
     -1.123  0.1180E+03  0.2313E+03
     -1.101  0.1543E+03  0.2347E+03
     -1.079  0.1628E+03  0.2383E+03
     -1.057  0.1430E+03  0.2414E+03
     -1.036  0.1421E+03  0.2445E+03
     -1.014  0.1840E+03  0.2486E+03
     -0.992  0.2226E+03  0.2535E+03
     -0.970  0.2293E+03  0.2585E+03
     -0.948  0.1917E+03  0.2627E+03
     -0.926  0.1219E+03  0.2654E+03
     -0.904  0.8066E+02  0.2671E+03
     -0.882  0.8346E+02  0.2690E+03
     -0.860  0.8367E+02  0.2708E+03
     -0.838  0.8830E+02  0.2728E+03
     -0.816  0.1404E+03  0.2758E+03
     -0.794  0.2089E+03  0.2804E+03
     -0.772  0.2483E+03  0.2859E+03
     -0.750  0.2622E+03  0.2916E+03
     -0.728  0.2486E+03  0.2971E+03
     -0.706  0.2247E+03  0.3020E+03
     -0.684  0.2145E+03  0.3067E+03
     -0.662  0.2272E+03  0.3117E+03
     -0.640  0.2601E+03  0.3174E+03
     -0.618  0.2752E+03  0.3235E+03
     -0.597  0.2431E+03  0.3288E+03
     -0.575  0.1875E+03  0.3329E+03
     -0.553  0.1513E+03  0.3362E+03
     -0.531  0.1465E+03  0.3394E+03
     -0.509  0.1432E+03  0.3426E+03
     -0.487  0.1363E+03  0.3456E+03
     -0.465  0.1638E+03  0.3492E+03
     -0.443  0.2043E+03  0.3537E+03
     -0.421  0.2101E+03  0.3583E+03
     -0.399  0.1914E+03  0.3625E+03
     -0.377  0.1805E+03  0.3664E+03
     -0.355  0.1938E+03  0.3707E+03
     -0.333  0.2189E+03  0.3755E+03
     -0.311  0.2336E+03  0.3806E+03
     -0.289  0.2405E+03  0.3859E+03
     -0.267  0.2407E+03  0.3912E+03
     -0.245  0.2199E+03  0.3960E+03
     -0.223  0.2048E+03  0.4005E+03
     -0.201  0.2064E+03  0.4050E+03
     -0.179  0.1959E+03  0.4093E+03
     -0.158  0.1786E+03  0.4133E+03
     -0.136  0.1806E+03  0.4172E+03
     -0.114  0.1997E+03  0.4216E+03
     -0.092  0.2101E+03  0.4262E+03
     -0.070  0.2120E+03  0.4309E+03
     -0.048  0.2230E+03  0.4358E+03
     -0.026  0.2298E+03  0.4408E+03
     -0.004  0.2295E+03  0.4458E+03
      0.018  0.2285E+03  0.4509E+03
      0.040  0.2219E+03  0.4557E+03
      0.062  0.2187E+03  0.4605E+03
      0.084  0.2142E+03  0.4652E+03
      0.106  0.2035E+03  0.4697E+03
      0.128  0.2077E+03  0.4743E+03
      0.150  0.2381E+03  0.4795E+03
      0.172  0.2601E+03  0.4852E+03
      0.194  0.2527E+03  0.4907E+03
      0.216  0.2479E+03  0.4962E+03
      0.238  0.2527E+03  0.5017E+03
      0.260  0.2457E+03  0.5071E+03
      0.281  0.2338E+03  0.5123E+03
      0.303  0.2338E+03  0.5174E+03
      0.325  0.2455E+03  0.5228E+03
      0.347  0.2554E+03  0.5284E+03
      0.369  0.2656E+03  0.5342E+03
      0.391  0.2803E+03  0.5404E+03
      0.413  0.2817E+03  0.5465E+03
      0.435  0.2818E+03  0.5527E+03
      0.457  0.2904E+03  0.5591E+03
      0.479  0.2931E+03  0.5655E+03
      0.501  0.2877E+03  0.5719E+03
      0.523  0.2712E+03  0.5778E+03
      0.545  0.2528E+03  0.5834E+03
      0.567  0.2409E+03  0.5886E+03
      0.589  0.2268E+03  0.5936E+03
      0.611  0.2126E+03  0.5983E+03
      0.633  0.2044E+03  0.6028E+03
      0.655  0.2054E+03  0.6073E+03
      0.677  0.2110E+03  0.6119E+03
      0.699  0.2094E+03  0.6165E+03
      0.720  0.2083E+03  0.6211E+03
      0.742  0.2112E+03  0.6257E+03
      0.764  0.2158E+03  0.6305E+03
      0.786  0.2122E+03  0.6351E+03
      0.808  0.1991E+03  0.6395E+03
      0.830  0.1965E+03  0.6438E+03
      0.852  0.2129E+03  0.6485E+03
      0.874  0.2342E+03  0.6536E+03
      0.896  0.2470E+03  0.6590E+03
      0.918  0.2483E+03  0.6645E+03
      0.940  0.2464E+03  0.6699E+03
      0.962  0.2413E+03  0.6752E+03
      0.984  0.2391E+03  0.6804E+03
      1.006  0.2442E+03  0.6858E+03
      1.028  0.2425E+03  0.6911E+03
      1.050  0.2341E+03  0.6963E+03
      1.072  0.2258E+03  0.7012E+03
      1.094  0.2287E+03  0.7062E+03
      1.116  0.2337E+03  0.7114E+03
      1.138  0.2359E+03  0.7165E+03
      1.159  0.2359E+03  0.7217E+03
      1.181  0.2245E+03  0.7266E+03
      1.203  0.2128E+03  0.7313E+03
      1.225  0.2044E+03  0.7358E+03
      1.247  0.2013E+03  0.7402E+03
      1.269  0.2078E+03  0.7448E+03
      1.291  0.2110E+03  0.7494E+03
      1.313  0.2068E+03  0.7540E+03
      1.335  0.2002E+03  0.7583E+03
      1.357  0.1943E+03  0.7626E+03
      1.379  0.1870E+03  0.7667E+03
      1.401  0.1765E+03  0.7706E+03
      1.423  0.1718E+03  0.7744E+03
      1.445  0.1708E+03  0.7781E+03
      1.467  0.1693E+03  0.7818E+03
      1.489  0.1736E+03  0.7856E+03
      1.511  0.1803E+03  0.7896E+03
      1.533  0.1822E+03  0.7936E+03
      1.555  0.1825E+03  0.7976E+03
      1.576  0.1787E+03  0.8015E+03
      1.598  0.1772E+03  0.8054E+03
      1.620  0.1821E+03  0.8094E+03
      1.642  0.1955E+03  0.8137E+03
      1.664  0.2039E+03  0.8182E+03
      1.686  0.2068E+03  0.8227E+03
      1.708  0.2070E+03  0.8273E+03
      1.730  0.2008E+03  0.8317E+03
      1.752  0.1969E+03  0.8360E+03
      1.774  0.1901E+03  0.8402E+03
      1.796  0.1837E+03  0.8442E+03
      1.818  0.1855E+03  0.8483E+03
      1.840  0.1792E+03  0.8522E+03
      1.862  0.1665E+03  0.8558E+03
      1.884  0.1685E+03  0.8595E+03
      1.906  0.1653E+03  0.8632E+03
      1.928  0.1521E+03  0.8665E+03
      1.950  0.1450E+03  0.8697E+03
      1.972  0.1435E+03  0.8729E+03
      1.994  0.1467E+03  0.8761E+03
      2.015  0.1522E+03  0.8794E+03
      2.037  0.1540E+03  0.8828E+03
      2.059  0.1601E+03  0.8863E+03
      2.081  0.1692E+03  0.8900E+03
      2.103  0.1654E+03  0.8936E+03
      2.125  0.1526E+03  0.8970E+03
      2.147  0.1463E+03  0.9002E+03
      2.169  0.1485E+03  0.9035E+03
      2.191  0.1472E+03  0.9067E+03
      2.213  0.1467E+03  0.9099E+03
      2.235  0.1509E+03  0.9132E+03
      2.257  0.1554E+03  0.9166E+03
      2.279  0.1612E+03  0.9202E+03
      2.301  0.1684E+03  0.9239E+03
      2.323  0.1684E+03  0.9276E+03
      2.345  0.1667E+03  0.9312E+03
      2.367  0.1735E+03  0.9350E+03
      2.389  0.1724E+03  0.9388E+03
      2.411  0.1641E+03  0.9424E+03
      2.433  0.1623E+03  0.9460E+03
      2.454  0.1696E+03  0.9497E+03
      2.476  0.1664E+03  0.9534E+03
      2.498  0.1625E+03  0.9569E+03
      2.520  0.1737E+03  0.9607E+03
      2.542  0.1787E+03  0.9647E+03
      2.564  0.1668E+03  0.9683E+03
      2.586  0.1622E+03  0.9719E+03
      2.608  0.1622E+03  0.9754E+03
      2.630  0.1556E+03  0.9789E+03
      2.652  0.1556E+03  0.9823E+03
      2.674  0.1625E+03  0.9858E+03
      2.696  0.1644E+03  0.9895E+03
      2.718  0.1608E+03  0.9930E+03
      2.740  0.1529E+03  0.9963E+03
      2.762  0.1221E+03  0.9990E+03
      2.784  0.7743E+02  0.1001E+04
      2.806  0.4153E+02  0.1002E+04
      2.828  0.1431E+02  0.1002E+04
      2.850  0.2269E+01  0.1002E+04
      2.872  0.1426E+00  0.1002E+04
      2.893  0.3359E-02  0.1002E+04
      2.915  0.2882E-04  0.1002E+04
      2.937  0.8867E-07  0.1002E+04
      2.959  0.9676E-10  0.1002E+04
      2.981  0.4046E-13  0.1002E+04
      3.003  0.0000E+00  0.1002E+04
      3.025  0.0000E+00  0.1002E+04
      3.047  0.0000E+00  0.1002E+04
      3.069  0.0000E+00  0.1002E+04
      3.091  0.0000E+00  0.1002E+04
