Li                                      
           1
    22.083000   -0.000000    0.000000
    -0.000000   22.083000    0.000000
     0.000000    0.000000   22.083000
   Li
   500
Direct configuration=     1
   0.00540111  0.02574685  0.98396615
   0.95447456  0.10743068  0.09895826
   0.95659862  0.18974465  0.19599855
   0.96758769  0.29890532  0.30097200
   0.00752019  0.38831865  0.40776871
   0.97955931  0.48906482  0.51743177
   0.03229433  0.62472831  0.58686795
   0.02416203  0.74235290  0.70093283
   0.02892632  0.80145386  0.79318761
   0.98652611  0.89420000  0.92566756
   0.08777237  0.00716262  0.08737316
   0.07100614  0.08541101  0.20461250
   0.07427404  0.21617546  0.28926105
   0.10259552  0.29767143  0.39185345
   0.11074317  0.39861409  0.49856490
   0.11030438  0.48234554  0.60625506
   0.09231106  0.59549242  0.69509387
   0.06514710  0.71174443  0.80460685
   0.10405785  0.80345926  0.91860728
   0.10605519  0.91229651  0.00956119
   0.22273863  0.98060908  0.18871235
   0.20205869  0.07496668  0.28214320
   0.19700449  0.19354744  0.38195224
   0.22007191  0.28261158  0.49973554
   0.20843565  0.40062333  0.58278637
   0.21078818  0.50979526  0.70819281
   0.16855810  0.60081118  0.80452449
   0.19999558  0.69040060  0.90738946
   0.20167599  0.81394877  0.01116282
   0.22371943  0.89851539  0.09500586
   0.34085512  0.02496195  0.30093025
   0.30465795  0.12290563  0.37174566
   0.29779679  0.19179964  0.48637726
   0.32475394  0.27337579  0.61705227
   0.29053875  0.39077729  0.68018306
   0.29898764  0.48083195  0.80496444
   0.29690344  0.59302440  0.89411414
   0.28434786  0.68755452  0.99239373
   0.32209969  0.79243057  0.09254262
   0.30773625  0.88337998  0.22220954
   0.42176134  0.02418289  0.41350481
   0.38426836  0.10170537  0.49984684
   0.40636334  0.17620599  0.60241328
   0.40930015  0.30210879  0.72873556
   0.39572773  0.43016307  0.78919207
   0.39452488  0.52418640  0.89957466
   0.41598423  0.59319905  0.98619293
   0.41028441  0.66129635  0.10991720
   0.43156783  0.78257085  0.19301182
   0.42178987  0.88054572  0.27892945
   0.48639057  0.98983418  0.51961031
   0.47682730  0.09657479  0.58742904
   0.50502217  0.18683608  0.70298005
   0.50995958  0.31835478  0.79875073
   0.48006412  0.40551132  0.89559293
   0.51169327  0.50464459  0.00085226
   0.49457744  0.57236187  0.11789019
   0.51579327  0.67098315  0.20663668
   0.49133281  0.78013925  0.31679897
   0.47960542  0.90864592  0.40155200
   0.59016115  0.00089633  0.56355187
   0.60014558  0.10138097  0.69178308
   0.60751616  0.20012590  0.80971976
   0.57529157  0.32392753  0.90939735
   0.57171974  0.40757150  0.99828467
   0.59876730  0.50887477  0.10517012
   0.59525024  0.59795564  0.22178528
   0.60131438  0.69830082  0.31100323
   0.62270750  0.78916482  0.41706187
   0.59198503  0.88150050  0.48009492
   0.68299668  0.00965140  0.70304265
   0.69336521  0.10649818  0.79286925
   0.66441000  0.22552522  0.88442872
   0.69921451  0.29262069  0.99650786
   0.71185094  0.40725139  0.09657895
   0.72298523  0.50298723  0.22278613
   0.72328392  0.59442635  0.30585836
   0.71661147  0.69287862  0.37606828
   0.73106221  0.79696371  0.48593873
   0.72552931  0.89372947  0.59968939
   0.79974509  0.01052479  0.79797617
   0.79246976  0.10776149  0.90113712
   0.79213898  0.21006179  0.97479012
   0.78450898  0.29509413  0.08798408
   0.79583130  0.40877565  0.21095327
   0.83388449  0.50482840  0.30829562
   0.81166045  0.60842388  0.39045897
   0.80042640  0.72250521  0.48028050
   0.82929978  0.83354815  0.59778265
   0.80139253  0.93627870  0.71216820
   0.91476377  0.03149747  0.88933698
   0.87145912  0.10560871  0.99634055
   0.88178885  0.19055342  0.07854999
   0.85576419  0.31061990  0.18247981
   0.90920140  0.39163474  0.30147879
   0.91308548  0.50091705  0.40826551
   0.89097162  0.60012014  0.50582311
   0.90808679  0.72425028  0.59667132
   0.90999251  0.83109260  0.70565127
   0.92392667  0.92681031  0.80687646
   0.10557345  0.12876703  0.02184678
   0.09504477  0.18491410  0.10739231
   0.09532643  0.28506255  0.20242432
   0.11721732  0.38400102  0.30737273
   0.10905710  0.53362762  0.42257533
   0.10545307  0.62173708  0.52179771
   0.09416277  0.72256350  0.62201850
   0.12475369  0.82247968  0.68879564
   0.12172754  0.87891996  0.82323946
   0.10296851  0.00860631  0.90182642
   0.22246427  0.08850730  0.12301226
   0.21379694  0.18824292  0.20469209
   0.21874112  0.29901199  0.31836536
   0.21477360  0.38049576  0.42164787
   0.19970652  0.48365215  0.52539018
   0.18269398  0.60215196  0.60767174
   0.15672088  0.67012667  0.69906438
   0.20972421  0.77214431  0.79370269
   0.21114098  0.88581744  0.91112523
   0.18107472  0.98991584  0.01981491
   0.32141544  0.08191898  0.18610077
   0.29910287  0.20266050  0.29404693
   0.29778931  0.29723403  0.40766447
   0.30117836  0.39011055  0.53526013
   0.29556489  0.53134296  0.60224327
   0.31064407  0.62869362  0.69401039
   0.28321055  0.68307078  0.80749177
   0.30066160  0.76668694  0.91459677
   0.32215981  0.88219482  0.97914925
   0.33971384  0.98794935  0.09359168
   0.41448814  0.09931949  0.28823790
   0.39717224  0.20400285  0.39869610
   0.40258613  0.28871052  0.48743457
   0.39813724  0.40943619  0.61686354
   0.37565949  0.53803354  0.69041048
   0.38649619  0.62148781  0.78380990
   0.39372617  0.69016005  0.89817832
   0.39017314  0.76017344  0.01177607
   0.41718644  0.89285515  0.11149703
   0.41372059  0.99326617  0.17195167
   0.45992104  0.10186767  0.39266573
   0.49254722  0.22171789  0.49749461
   0.48227583  0.30016328  0.59245787
   0.50097244  0.42568649  0.69724136
   0.51842464  0.51804451  0.78857666
   0.52264806  0.61100402  0.88294103
   0.49452768  0.67868717  0.99447478
   0.50702442  0.75340226  0.09094440
   0.53261872  0.86663089  0.19225756
   0.48877767  0.98024713  0.29406616
   0.56550935  0.09139418  0.48311608
   0.58250359  0.18999891  0.62062836
   0.59590926  0.30001986  0.70266003
   0.60109496  0.40051423  0.81227427
   0.60728764  0.49565120  0.89630045
   0.60115651  0.59630194  0.99499125
   0.59940793  0.65025106  0.09737094
   0.60522786  0.77537270  0.21758578
   0.59915305  0.85516387  0.29682398
   0.57530824  0.98261239  0.37082436
   0.67389886  0.08811135  0.58489451
   0.67274203  0.21714996  0.68750883
   0.70929816  0.29938648  0.78370445
   0.70759838  0.38544923  0.88098824
   0.71652498  0.48595937  0.99763779
   0.70805368  0.56764016  0.10654865
   0.70281462  0.69847084  0.21386636
   0.69445500  0.81350007  0.30891315
   0.71604634  0.90853859  0.39633848
   0.68408724  0.99422852  0.46987821
   0.78473702  0.10464572  0.70085150
   0.79594234  0.20924349  0.77643968
   0.81407490  0.30007578  0.85428200
   0.83331858  0.38139441  0.99096633
   0.81301045  0.47709465  0.08669920
   0.81321912  0.58872925  0.20135270
   0.77869781  0.69983176  0.29161624
   0.79575476  0.80136812  0.36976141
   0.80494405  0.89454659  0.47259295
   0.78419529  0.99622017  0.59595267
   0.90842510  0.13611534  0.80187174
   0.92925044  0.21335438  0.90827246
   0.88959771  0.30318999  0.99736722
   0.89002068  0.37863689  0.13999686
   0.90839164  0.50126145  0.21199709
   0.90803180  0.56657520  0.31791474
   0.88645348  0.68755560  0.39568838
   0.91024626  0.80003255  0.47266397
   0.90225781  0.92147494  0.61076113
   0.91265217  0.01792998  0.71209890
   0.01014039  0.11350178  0.92213386
   0.98368468  0.19556034  0.01866962
   0.97524056  0.30087535  0.12851219
   0.01036517  0.39609383  0.22279174
   0.01671698  0.50126514  0.32799558
   0.00325720  0.60060810  0.39098652
   0.00680280  0.72580944  0.47245913
   0.01700724  0.82089771  0.60281010
   0.02216718  0.89676659  0.70009109
   0.01376650  0.00444113  0.80992510
   0.21814331  0.20346637  0.03465031
   0.18913581  0.30578964  0.09992435
   0.18942164  0.40286125  0.17180684
   0.17464877  0.52007415  0.29909187
   0.18164758  0.60219413  0.39143891
   0.17049581  0.72233855  0.49259170
   0.21234927  0.80484483  0.60571659
   0.21529083  0.90627242  0.70784895
   0.19641991  0.01164907  0.81654198
   0.17633182  0.09045800  0.92665911
   0.29207137  0.20561551  0.10741794
   0.31387930  0.32542648  0.18009359
   0.27221759  0.38723523  0.31018042
   0.29759662  0.48546425  0.41403148
   0.28855159  0.59713137  0.49452213
   0.27013922  0.69991729  0.57885635
   0.26593978  0.76596349  0.68725940
   0.30613490  0.88831409  0.81043645
   0.30279524  0.00220799  0.89572268
   0.30986426  0.09632892  0.99132239
   0.39631442  0.20483103  0.21572613
   0.37229094  0.31953075  0.31571106
   0.38966710  0.38181691  0.41225738
   0.39029986  0.50606493  0.49693754
   0.39912074  0.64595794  0.58641961
   0.38841479  0.70892857  0.72305000
   0.37453820  0.78676145  0.81822611
   0.38249033  0.88848626  0.92905368
   0.42228451  0.99618251  0.00871059
   0.40584484  0.09109335  0.07626044
   0.49918397  0.19914930  0.31171187
   0.51458675  0.30671945  0.40457293
   0.48112360  0.39502069  0.52656450
   0.49489491  0.52031427  0.59759608
   0.50331819  0.59251161  0.69931609
   0.52785721  0.69619986  0.79485078
   0.49730974  0.77426357  0.89772448
   0.50491481  0.87845638  0.99417242
   0.51734866  0.00544638  0.08727122
   0.48270885  0.12519125  0.21024990
   0.58677166  0.17651845  0.39231944
   0.60137928  0.29436766  0.50687362
   0.60642381  0.39049381  0.62130275
   0.62772393  0.51145340  0.71225034
   0.62590995  0.63754497  0.80727700
   0.60978561  0.69455852  0.91198449
   0.61971396  0.79424009  0.00375679
   0.60683122  0.87336084  0.07756657
   0.59342660  0.97952187  0.18545333
   0.56919189  0.07966461  0.28492040
   0.66779251  0.17372661  0.50960697
   0.67673542  0.30503135  0.60938863
   0.71560809  0.42020458  0.70527245
   0.70345046  0.51164406  0.81343319
   0.71740176  0.61641951  0.89543846
   0.72291154  0.70922709  0.01543517
   0.70791271  0.78828009  0.13436977
   0.69269964  0.88784969  0.19855776
   0.67444815  0.96999538  0.30224887
   0.69788081  0.10833439  0.40416063
   0.79264945  0.18637854  0.59681519
   0.79014810  0.29244962  0.69129273
   0.81281046  0.40708525  0.77646714
   0.81227458  0.49460728  0.89875549
   0.81805610  0.59942103  0.99465417
   0.79763199  0.69863502  0.11762429
   0.80388576  0.81686215  0.21161721
   0.80043125  0.91132208  0.30674752
   0.80915047  0.01477174  0.40891374
   0.78713711  0.09238928  0.48870837
   0.89682325  0.20549848  0.68855665
   0.88033951  0.30523698  0.76337947
   0.91046093  0.38206336  0.87784129
   0.90683017  0.49013968  0.01191276
   0.92945076  0.60408787  0.09420072
   0.92035765  0.71275198  0.21675255
   0.89400895  0.81419133  0.30336406
   0.90941726  0.89794984  0.36544307
   0.88946648  0.99095829  0.48385759
   0.88725218  0.09446630  0.58382742
   0.00442477  0.23450727  0.77348921
   0.97824147  0.32100429  0.88892433
   0.98820247  0.37907260  0.00466411
   0.00707781  0.50827310  0.10763404
   0.00343186  0.60781552  0.21350315
   0.98884000  0.71137158  0.30523829
   0.00901282  0.79488029  0.35763714
   0.99001363  0.87230665  0.48494349
   0.02434014  0.00280039  0.58301646
   0.01169851  0.08639195  0.70051121
   0.10263992  0.21318578  0.93879519
   0.08513639  0.27886181  0.01442163
   0.07824567  0.41437565  0.09587049
   0.09562386  0.51042398  0.22283196
   0.10119571  0.61064124  0.28100111
   0.08133439  0.68519839  0.37650910
   0.10667200  0.81395580  0.48052604
   0.10704146  0.90794648  0.58459483
   0.11513025  0.00619149  0.69917518
   0.07982271  0.11814376  0.79064278
   0.31408819  0.33336238  0.99727366
   0.30392404  0.43871063  0.09547625
   0.26596990  0.52189541  0.19338885
   0.31654135  0.60846382  0.33304176
   0.29572958  0.69001132  0.39246995
   0.27161567  0.80795063  0.48107975
   0.29525320  0.89718252  0.60247675
   0.32017757  0.01826777  0.73883075
   0.28341021  0.11482572  0.83250031
   0.30416055  0.19161201  0.92653506
   0.41935509  0.32076567  0.09979048
   0.36959612  0.43353662  0.18839049
   0.39776035  0.49243311  0.31405666
   0.39097114  0.57909235  0.40248734
   0.38861291  0.71618652  0.47432750
   0.38755148  0.77689067  0.59509080
   0.38731704  0.87521791  0.68014829
   0.40738838  0.98265419  0.79020699
   0.43896202  0.10027302  0.91854444
   0.40698790  0.21007918  0.99252827
   0.49955102  0.32336829  0.20908963
   0.49551634  0.40239012  0.31185245
   0.50243925  0.48800707  0.38265839
   0.48806368  0.59194727  0.50055815
   0.49164133  0.70885391  0.59036622
   0.49926080  0.79946137  0.70840762
   0.49598409  0.89298571  0.81440622
   0.49011882  0.99492897  0.91456508
   0.51858063  0.11255731  0.00512965
   0.49205448  0.21602983  0.09713414
   0.61653580  0.30272279  0.32366612
   0.61067294  0.39360603  0.41805482
   0.59699209  0.50022848  0.50710729
   0.63775668  0.60332355  0.60532973
   0.63259042  0.70687781  0.68327357
   0.62201283  0.78635481  0.78591329
   0.60332723  0.86846716  0.87384591
   0.59495129  0.98181008  0.97248777
   0.60712313  0.10633706  0.09948497
   0.58081277  0.21183995  0.18826560
   0.69778729  0.27540222  0.41509936
   0.69374277  0.39143854  0.50857717
   0.71289970  0.50907567  0.59984983
   0.72917821  0.61125982  0.72111206
   0.74004937  0.71139702  0.78653034
   0.72707803  0.78872097  0.89394530
   0.67547661  0.88557081  0.00979413
   0.69188687  0.00903452  0.08031045
   0.70721410  0.07003059  0.19351575
   0.68946928  0.20214419  0.29072162
   0.74914460  0.29217072  0.51628355
   0.79925209  0.38391773  0.61902893
   0.82307333  0.49502131  0.71595133
   0.83497121  0.59922236  0.79876886
   0.81086756  0.70957227  0.90441322
   0.81334022  0.81976113  0.00675689
   0.80468446  0.92484200  0.10760954
   0.81626306  0.99654456  0.21006819
   0.78144603  0.08782352  0.30790955
   0.80396937  0.19480456  0.41692993
   0.90311719  0.27163718  0.59697154
   0.92680293  0.38473951  0.68867039
   0.93067750  0.49663979  0.79483236
   0.92175967  0.59771358  0.89278908
   0.89541341  0.71872140  0.01979139
   0.88855826  0.83306338  0.12893640
   0.88838546  0.93907182  0.20176789
   0.90042403  0.99162880  0.31073365
   0.88429663  0.08996940  0.40733843
   0.88860000  0.19394340  0.50386863
   0.02432785  0.28047868  0.67725353
   0.01509018  0.41629079  0.77467168
   0.00290107  0.49111355  0.90084030
   0.99779904  0.61400482  0.00359312
   0.97922874  0.72195245  0.11314576
   0.00277866  0.81437052  0.20335090
   0.98409668  0.93922706  0.29982740
   0.99765854  0.01163569  0.38956697
   0.00650193  0.09326514  0.47909376
   0.99879413  0.17061793  0.59449605
   0.08564040  0.27435557  0.78648434
   0.09961940  0.37533833  0.91058975
   0.08820245  0.51278526  0.99158661
   0.11118454  0.59485773  0.11258308
   0.08611091  0.72402102  0.20717467
   0.10063055  0.82402555  0.29193422
   0.08858068  0.92368891  0.37657667
   0.10939481  0.99220886  0.48814325
   0.12517302  0.09484825  0.59414040
   0.11962111  0.18724863  0.67761026
   0.21418464  0.28161985  0.89434459
   0.17568469  0.39497869  0.01532961
   0.17813345  0.50639744  0.10724461
   0.18730624  0.61794678  0.19151480
   0.17156004  0.68538241  0.28531327
   0.16827348  0.78110378  0.38139275
   0.18898052  0.89918622  0.47368730
   0.22907750  0.99152196  0.59628873
   0.20796352  0.09509962  0.70956988
   0.19599036  0.19941861  0.81978948
   0.41973357  0.40746839  0.00458508
   0.39278677  0.52579689  0.12587820
   0.41185490  0.59327069  0.21779138
   0.41480151  0.70760843  0.31744239
   0.38093598  0.80940892  0.41823400
   0.41394895  0.84797056  0.50680570
   0.37866896  0.98520559  0.62025400
   0.38701499  0.10506918  0.72513161
   0.40772598  0.21256697  0.81836200
   0.39344107  0.31840974  0.88275726
   0.51583729  0.40095573  0.11461515
   0.49879874  0.48006587  0.22890613
   0.49341370  0.58881412  0.31384576
   0.48697899  0.68050257  0.40022322
   0.47811652  0.75896354  0.48535034
   0.50939154  0.87100921  0.59245294
   0.49466320  0.99206488  0.65246307
   0.51117671  0.05943333  0.77779763
   0.50991384  0.17648116  0.89699177
   0.49538712  0.30545156  0.98695150
   0.61097252  0.39645492  0.22292819
   0.58747734  0.49505954  0.31782377
   0.60898102  0.59181951  0.38209864
   0.61905420  0.70304714  0.50413336
   0.61661292  0.79404294  0.56182270
   0.59522628  0.89260336  0.69436111
   0.59245432  0.99253556  0.78932437
   0.57393236  0.09323698  0.89466397
   0.57500834  0.18974949  0.00119360
   0.59291159  0.28619747  0.09526530
   0.71443759  0.39676931  0.32232249
   0.71611074  0.49723450  0.42441035
   0.71797607  0.59329741  0.49381701
   0.72255733  0.70439108  0.57990820
   0.71558714  0.79893843  0.69589414
   0.69735705  0.89182029  0.80735895
   0.65632382  0.01928460  0.88046931
   0.68986617  0.10833025  0.97473169
   0.68693427  0.21468821  0.08907624
   0.69230292  0.31464385  0.22111868
   0.80577203  0.39631236  0.42330365
   0.81046489  0.48673967  0.48782824
   0.82153339  0.59658171  0.60142218
   0.80639906  0.71549779  0.66237378
   0.82860436  0.81366644  0.80953053
   0.79998328  0.93534492  0.88825096
   0.76855801  0.99953414  0.97345847
   0.76659303  0.11946858  0.08508733
   0.77955124  0.18990001  0.19815399
   0.78218576  0.29005057  0.32439754
   0.89213686  0.37988747  0.51198621
   0.90835885  0.51064655  0.61931800
   0.92234111  0.60163191  0.69423843
   0.91643036  0.71145972  0.80711556
   0.89977418  0.81608126  0.88927457
   0.89190644  0.90023316  0.98041085
   0.87202428  0.01572473  0.06280736
   0.88708520  0.11465136  0.18660924
   0.86664449  0.19335975  0.30352464
   0.86526300  0.28671583  0.41133895
   0.01400046  0.38083139  0.58755715
   0.01523275  0.49524168  0.68375291
   0.00537806  0.62869500  0.78698942
   0.99399638  0.72963740  0.92026021
   0.98532866  0.80873784  0.02402192
   0.97526666  0.91030370  0.10222441
   0.98678881  0.00123620  0.18847115
   0.97320039  0.10219813  0.30114449
   0.98613010  0.22637647  0.40876601
   0.00180143  0.28057627  0.48984258
   0.09953241  0.40506916  0.70155944
   0.11638579  0.51065764  0.81498711
   0.05774373  0.62012765  0.89399337
   0.10537604  0.72510848  0.01332341
   0.09285332  0.81671400  0.11467542
   0.09182069  0.93804102  0.20621025
   0.09120273  0.01230534  0.29772476
   0.06486133  0.11201349  0.36804148
   0.11761872  0.19017924  0.49655118
   0.11371647  0.28196171  0.59085319
   0.19730349  0.35732674  0.79477547
   0.18933908  0.48775244  0.90907701
   0.19330406  0.62939059  0.01735936
   0.20082378  0.70658789  0.11763918
   0.20543146  0.79472850  0.21358217
   0.21744118  0.91512224  0.31047948
   0.20176085  0.03898482  0.40499882
   0.20582730  0.10515152  0.46197098
   0.25085077  0.17648280  0.59236927
   0.19573211  0.28916844  0.69679511
   0.29429111  0.40765344  0.92902966
   0.27861773  0.50936446  0.00648768
   0.29057565  0.58102020  0.09307851
   0.31422936  0.69323202  0.19453387
   0.29704472  0.78739143  0.32204170
   0.31518143  0.91633461  0.40685396
   0.31962019  0.99399906  0.49298191
   0.29321427  0.08312626  0.60266766
   0.29854018  0.19417188  0.70762562
   0.29084175  0.31924336  0.77540746
