 432 432   0   0
  0.2356206E+02  0.2167200E-08  0.2167200E-08  0.2167200E-08  0.5000000E-15
  1.000000000000000E-004
  CAR 
 Li                                      
      2.87952742     -3.59683942  301      0.03091605      1.00000000
     -3.597  0.0000E+00  0.0000E+00
     -3.575  0.0000E+00  0.0000E+00
     -3.554  0.0000E+00  0.0000E+00
     -3.532  0.0000E+00  0.0000E+00
     -3.510  0.0000E+00  0.0000E+00
     -3.489  0.0000E+00  0.0000E+00
     -3.467  0.3857E-13  0.8327E-15
     -3.446  0.9472E-10  0.2046E-11
     -3.424  0.8389E-07  0.1813E-08
     -3.403  0.2701E-04  0.5850E-06
     -3.381  0.3186E-02  0.6935E-04
     -3.359  0.1389E+00  0.3068E-02
     -3.338  0.2266E+01  0.5198E-01
     -3.316  0.1402E+02  0.3546E+00
     -3.295  0.3329E+02  0.1073E+01
     -3.273  0.3055E+02  0.1733E+01
     -3.251  0.1096E+02  0.1969E+01
     -3.230  0.3710E+01  0.2050E+01
     -3.208  0.1652E+02  0.2406E+01
     -3.187  0.5429E+02  0.3578E+01
     -3.165  0.8824E+02  0.5483E+01
     -3.143  0.7562E+02  0.7115E+01
     -3.122  0.3366E+02  0.7842E+01
     -3.100  0.1030E+02  0.8064E+01
     -3.079  0.2094E+02  0.8516E+01
     -3.057  0.5767E+02  0.9761E+01
     -3.036  0.8713E+02  0.1164E+02
     -3.014  0.7283E+02  0.1321E+02
     -2.992  0.3178E+02  0.1390E+02
     -2.971  0.1665E+02  0.1426E+02
     -2.949  0.4333E+02  0.1520E+02
     -2.928  0.9189E+02  0.1718E+02
     -2.906  0.1143E+03  0.1965E+02
     -2.884  0.7837E+02  0.2134E+02
     -2.863  0.3014E+02  0.2199E+02
     -2.841  0.2714E+02  0.2257E+02
     -2.820  0.7321E+02  0.2415E+02
     -2.798  0.1329E+03  0.2702E+02
     -2.776  0.1525E+03  0.3032E+02
     -2.755  0.1098E+03  0.3269E+02
     -2.733  0.4841E+02  0.3373E+02
     -2.712  0.1927E+02  0.3415E+02
     -2.690  0.4002E+02  0.3501E+02
     -2.669  0.8684E+02  0.3689E+02
     -2.647  0.9047E+02  0.3884E+02
     -2.625  0.4685E+02  0.3985E+02
     -2.604  0.2881E+02  0.4047E+02
     -2.582  0.6243E+02  0.4182E+02
     -2.561  0.1167E+03  0.4434E+02
     -2.539  0.1437E+03  0.4744E+02
     -2.517  0.1232E+03  0.5010E+02
     -2.496  0.7128E+02  0.5164E+02
     -2.474  0.4780E+02  0.5267E+02
     -2.453  0.9229E+02  0.5467E+02
     -2.431  0.1685E+03  0.5830E+02
     -2.410  0.2103E+03  0.6284E+02
     -2.388  0.1817E+03  0.6677E+02
     -2.366  0.1061E+03  0.6906E+02
     -2.345  0.4110E+02  0.6994E+02
     -2.323  0.2980E+02  0.7059E+02
     -2.302  0.6214E+02  0.7193E+02
     -2.280  0.8935E+02  0.7386E+02
     -2.258  0.7223E+02  0.7542E+02
     -2.237  0.4503E+02  0.7639E+02
     -2.215  0.6920E+02  0.7788E+02
     -2.194  0.1266E+03  0.8062E+02
     -2.172  0.1602E+03  0.8407E+02
     -2.150  0.1457E+03  0.8722E+02
     -2.129  0.9400E+02  0.8925E+02
     -2.107  0.5185E+02  0.9037E+02
     -2.086  0.7886E+02  0.9207E+02
     -2.064  0.1521E+03  0.9536E+02
     -2.043  0.2033E+03  0.9974E+02
     -2.021  0.1928E+03  0.1039E+03
     -1.999  0.1271E+03  0.1067E+03
     -1.978  0.6350E+02  0.1080E+03
     -1.956  0.6719E+02  0.1095E+03
     -1.935  0.1229E+03  0.1121E+03
     -1.913  0.1495E+03  0.1154E+03
     -1.891  0.1246E+03  0.1180E+03
     -1.870  0.7958E+02  0.1198E+03
     -1.848  0.7542E+02  0.1214E+03
     -1.827  0.1307E+03  0.1242E+03
     -1.805  0.1906E+03  0.1283E+03
     -1.783  0.2032E+03  0.1327E+03
     -1.762  0.1533E+03  0.1360E+03
     -1.740  0.8706E+02  0.1379E+03
     -1.719  0.8277E+02  0.1397E+03
     -1.697  0.1465E+03  0.1429E+03
     -1.676  0.1977E+03  0.1471E+03
     -1.654  0.1927E+03  0.1513E+03
     -1.632  0.1375E+03  0.1542E+03
     -1.611  0.7019E+02  0.1558E+03
     -1.589  0.5274E+02  0.1569E+03
     -1.568  0.9810E+02  0.1590E+03
     -1.546  0.1439E+03  0.1621E+03
     -1.524  0.1404E+03  0.1652E+03
     -1.503  0.9498E+02  0.1672E+03
     -1.481  0.6081E+02  0.1685E+03
     -1.460  0.8925E+02  0.1704E+03
     -1.438  0.1435E+03  0.1735E+03
     -1.416  0.1543E+03  0.1769E+03
     -1.395  0.1182E+03  0.1794E+03
     -1.373  0.1057E+03  0.1817E+03
     -1.352  0.1543E+03  0.1850E+03
     -1.330  0.2191E+03  0.1898E+03
     -1.309  0.2550E+03  0.1953E+03
     -1.287  0.2516E+03  0.2007E+03
     -1.265  0.2195E+03  0.2054E+03
     -1.244  0.1573E+03  0.2088E+03
     -1.222  0.1202E+03  0.2114E+03
     -1.201  0.1575E+03  0.2148E+03
     -1.179  0.2017E+03  0.2192E+03
     -1.157  0.1925E+03  0.2233E+03
     -1.136  0.1383E+03  0.2263E+03
     -1.114  0.8918E+02  0.2283E+03
     -1.093  0.1021E+03  0.2305E+03
     -1.071  0.1476E+03  0.2336E+03
     -1.049  0.1634E+03  0.2372E+03
     -1.028  0.1370E+03  0.2401E+03
     -1.006  0.9427E+02  0.2422E+03
     -0.985  0.1110E+03  0.2446E+03
     -0.963  0.1882E+03  0.2486E+03
     -0.942  0.2402E+03  0.2538E+03
     -0.920  0.2317E+03  0.2588E+03
     -0.898  0.1886E+03  0.2629E+03
     -0.877  0.1392E+03  0.2659E+03
     -0.855  0.1091E+03  0.2682E+03
     -0.834  0.9130E+02  0.2702E+03
     -0.812  0.6480E+02  0.2716E+03
     -0.790  0.6088E+02  0.2729E+03
     -0.769  0.1132E+03  0.2754E+03
     -0.747  0.1853E+03  0.2794E+03
     -0.726  0.2326E+03  0.2844E+03
     -0.704  0.2472E+03  0.2897E+03
     -0.682  0.2292E+03  0.2947E+03
     -0.661  0.1928E+03  0.2988E+03
     -0.639  0.1683E+03  0.3025E+03
     -0.618  0.1757E+03  0.3063E+03
     -0.596  0.2133E+03  0.3109E+03
     -0.575  0.2481E+03  0.3162E+03
     -0.553  0.2578E+03  0.3218E+03
     -0.531  0.2319E+03  0.3268E+03
     -0.510  0.1796E+03  0.3307E+03
     -0.488  0.1347E+03  0.3336E+03
     -0.467  0.1276E+03  0.3363E+03
     -0.445  0.1431E+03  0.3394E+03
     -0.423  0.1452E+03  0.3426E+03
     -0.402  0.1453E+03  0.3457E+03
     -0.380  0.1819E+03  0.3496E+03
     -0.359  0.2284E+03  0.3546E+03
     -0.337  0.2503E+03  0.3600E+03
     -0.315  0.2589E+03  0.3655E+03
     -0.294  0.2539E+03  0.3710E+03
     -0.272  0.2180E+03  0.3757E+03
     -0.251  0.1788E+03  0.3796E+03
     -0.229  0.1758E+03  0.3834E+03
     -0.208  0.1965E+03  0.3876E+03
     -0.186  0.2026E+03  0.3920E+03
     -0.164  0.2007E+03  0.3963E+03
     -0.143  0.1897E+03  0.4004E+03
     -0.121  0.1546E+03  0.4038E+03
     -0.100  0.1378E+03  0.4068E+03
     -0.078  0.1581E+03  0.4102E+03
     -0.056  0.1845E+03  0.4141E+03
     -0.035  0.2010E+03  0.4185E+03
     -0.013  0.2035E+03  0.4229E+03
      0.008  0.2033E+03  0.4273E+03
      0.030  0.2095E+03  0.4318E+03
      0.052  0.2162E+03  0.4365E+03
      0.073  0.2173E+03  0.4411E+03
      0.095  0.2192E+03  0.4459E+03
      0.116  0.2326E+03  0.4509E+03
      0.138  0.2336E+03  0.4559E+03
      0.159  0.2057E+03  0.4604E+03
      0.181  0.1875E+03  0.4644E+03
      0.203  0.1938E+03  0.4686E+03
      0.224  0.2013E+03  0.4730E+03
      0.246  0.2122E+03  0.4775E+03
      0.267  0.2344E+03  0.4826E+03
      0.289  0.2562E+03  0.4881E+03
      0.311  0.2673E+03  0.4939E+03
      0.332  0.2602E+03  0.4995E+03
      0.354  0.2489E+03  0.5049E+03
      0.375  0.2483E+03  0.5103E+03
      0.397  0.2566E+03  0.5158E+03
      0.419  0.2613E+03  0.5214E+03
      0.440  0.2608E+03  0.5271E+03
      0.462  0.2660E+03  0.5328E+03
      0.483  0.2703E+03  0.5386E+03
      0.505  0.2674E+03  0.5444E+03
      0.526  0.2519E+03  0.5499E+03
      0.548  0.2335E+03  0.5549E+03
      0.570  0.2331E+03  0.5599E+03
      0.591  0.2364E+03  0.5650E+03
      0.613  0.2343E+03  0.5701E+03
      0.634  0.2360E+03  0.5752E+03
      0.656  0.2458E+03  0.5805E+03
      0.678  0.2490E+03  0.5859E+03
      0.699  0.2405E+03  0.5911E+03
      0.721  0.2360E+03  0.5961E+03
      0.742  0.2389E+03  0.6013E+03
      0.764  0.2379E+03  0.6064E+03
      0.786  0.2284E+03  0.6114E+03
      0.807  0.2164E+03  0.6160E+03
      0.829  0.1947E+03  0.6202E+03
      0.850  0.1850E+03  0.6242E+03
      0.872  0.1950E+03  0.6284E+03
      0.893  0.2020E+03  0.6328E+03
      0.915  0.2038E+03  0.6372E+03
      0.937  0.2007E+03  0.6415E+03
      0.958  0.1847E+03  0.6455E+03
      0.980  0.1520E+03  0.6488E+03
      1.001  0.1329E+03  0.6517E+03
      1.023  0.1423E+03  0.6548E+03
      1.045  0.1525E+03  0.6580E+03
      1.066  0.1559E+03  0.6614E+03
      1.088  0.1590E+03  0.6648E+03
      1.109  0.1663E+03  0.6684E+03
      1.131  0.1756E+03  0.6722E+03
      1.152  0.1818E+03  0.6761E+03
      1.174  0.1905E+03  0.6803E+03
      1.196  0.1922E+03  0.6844E+03
      1.217  0.1930E+03  0.6886E+03
      1.239  0.1940E+03  0.6928E+03
      1.260  0.1835E+03  0.6967E+03
      1.282  0.1726E+03  0.7004E+03
      1.304  0.1701E+03  0.7041E+03
      1.325  0.1738E+03  0.7079E+03
      1.347  0.1803E+03  0.7118E+03
      1.368  0.1908E+03  0.7159E+03
      1.390  0.1982E+03  0.7202E+03
      1.412  0.1982E+03  0.7244E+03
      1.433  0.1972E+03  0.7287E+03
      1.455  0.1911E+03  0.7328E+03
      1.476  0.1928E+03  0.7370E+03
      1.498  0.1913E+03  0.7411E+03
      1.519  0.1811E+03  0.7450E+03
      1.541  0.1809E+03  0.7489E+03
      1.563  0.1792E+03  0.7528E+03
      1.584  0.1669E+03  0.7564E+03
      1.606  0.1593E+03  0.7598E+03
      1.627  0.1595E+03  0.7633E+03
      1.649  0.1589E+03  0.7667E+03
      1.671  0.1496E+03  0.7699E+03
      1.692  0.1358E+03  0.7729E+03
      1.714  0.1321E+03  0.7757E+03
      1.735  0.1369E+03  0.7787E+03
      1.757  0.1281E+03  0.7814E+03
      1.779  0.1042E+03  0.7837E+03
      1.800  0.9260E+02  0.7857E+03
      1.822  0.1028E+03  0.7879E+03
      1.843  0.1100E+03  0.7903E+03
      1.865  0.1053E+03  0.7926E+03
      1.886  0.8654E+02  0.7944E+03
      1.908  0.5138E+02  0.7955E+03
      1.930  0.2145E+02  0.7960E+03
      1.951  0.2333E+02  0.7965E+03
      1.973  0.5707E+02  0.7977E+03
      1.994  0.8281E+02  0.7995E+03
      2.016  0.6801E+02  0.8010E+03
      2.038  0.3546E+02  0.8018E+03
      2.059  0.1855E+02  0.8022E+03
      2.081  0.3364E+02  0.8029E+03
      2.102  0.6227E+02  0.8042E+03
      2.124  0.7683E+02  0.8059E+03
      2.146  0.8901E+02  0.8078E+03
      2.167  0.1078E+03  0.8101E+03
      2.189  0.1211E+03  0.8128E+03
      2.210  0.1260E+03  0.8155E+03
      2.232  0.1199E+03  0.8181E+03
      2.253  0.1293E+03  0.8209E+03
      2.275  0.1493E+03  0.8241E+03
      2.297  0.1453E+03  0.8272E+03
      2.318  0.1434E+03  0.8303E+03
      2.340  0.1566E+03  0.8337E+03
      2.361  0.1528E+03  0.8370E+03
      2.383  0.1357E+03  0.8399E+03
      2.405  0.1239E+03  0.8426E+03
      2.426  0.1161E+03  0.8451E+03
      2.448  0.1114E+03  0.8475E+03
      2.469  0.1150E+03  0.8500E+03
      2.491  0.1266E+03  0.8527E+03
      2.513  0.1415E+03  0.8558E+03
      2.534  0.1445E+03  0.8589E+03
      2.556  0.1387E+03  0.8619E+03
      2.577  0.1132E+03  0.8643E+03
      2.599  0.5911E+02  0.8656E+03
      2.620  0.1590E+02  0.8660E+03
      2.642  0.1924E+01  0.8660E+03
      2.664  0.9653E-01  0.8660E+03
      2.685  0.1912E-02  0.8660E+03
      2.707  0.1449E-04  0.8660E+03
      2.728  0.4120E-07  0.8660E+03
      2.750  0.4336E-10  0.8660E+03
      2.772  0.1543E-13  0.8660E+03
      2.793  0.0000E+00  0.8660E+03
      2.815  0.0000E+00  0.8660E+03
      2.836  0.0000E+00  0.8660E+03
      2.858  0.0000E+00  0.8660E+03
      2.880  0.0000E+00  0.8660E+03
