 running on   64 total cores
 distrk:  each k-point on   32 cores,    2 groups
 distr:  one band on   32 cores,    1 groups
 vasp.6.2.1 16May21 (build Nov 23 2021 15:40:41) complex                        
  
 POSCAR found type information on POSCAR Li
 POSCAR found :  1 types and     432 ions
 scaLAPACK will be used
 -----------------------------------------------------------------------------
|                                                                             |
|           W    W    AA    RRRRR   N    N  II  N    N   GGGG   !!!           |
|           W    W   A  A   R    R  NN   N  II  NN   N  G    G  !!!           |
|           W    W  A    A  R    R  N N  N  II  N N  N  G       !!!           |
|           W WW W  AAAAAA  RRRRR   N  N N  II  N  N N  G  GGG   !            |
|           WW  WW  A    A  R   R   N   NN  II  N   NN  G    G                |
|           W    W  A    A  R    R  N    N  II  N    N   GGGG   !!!           |
|                                                                             |
|     For optimal performance we recommend to set                             |
|       NCORE = 2 up to number-of-cores-per-socket                            |
|     NCORE specifies how many cores store one orbital (NPAR=cpu/NCORE).      |
|     This setting can greatly improve the performance of VASP for DFT.       |
|     The default, NCORE=1 might be grossly inefficient on modern             |
|     multi-core architectures or massively parallel machines. Do your        |
|     own testing! More info at https://www.vasp.at/wiki/index.php/NCORE      |
|     Unfortunately you need to use the default for GW and RPA                |
|     calculations (for HF NCORE is supported but not extensively tested      |
|     yet).                                                                   |
|                                                                             |
 -----------------------------------------------------------------------------

 -----------------------------------------------------------------------------
|                                                                             |
|               ----> ADVICE to this user running VASP <----                  |
|                                                                             |
|     You have a (more or less) 'large supercell' and for larger cells it     |
|     might be more efficient to use real-space projection operators.         |
|     Therefore, try LREAL= Auto in the INCAR file.                           |
|     Mind: If you want to do very accurate calculations, keep the            |
|     reciprocal projection scheme (i.e. LREAL=.FALSE.).                      |
|                                                                             |
 -----------------------------------------------------------------------------

 LDA part: xc-table for Pade appr. of Perdew
 POSCAR found type information on POSCAR Li
 POSCAR found :  1 types and     432 ions
 POSCAR, INCAR and KPOINTS ok, starting setup
 FFT: planning ...
 WAVECAR not read
 entering main loop
       N       E                     dE             d eps       ncg     rms          rms(c)
DAV:   1    -0.273710079736E+03   -0.27371E+03   -0.10046E+05  3464   0.641E+02
DAV:   2    -0.754879836826E+03   -0.48117E+03   -0.43918E+03  3996   0.632E+01
DAV:   3    -0.790721818007E+03   -0.35842E+02   -0.32890E+02  4464   0.137E+01
DAV:   4    -0.791971761449E+03   -0.12499E+01   -0.12334E+01  4024   0.281E+00
DAV:   5    -0.792000738161E+03   -0.28977E-01   -0.28941E-01  4184   0.456E-01    0.909E+00
DAV:   6    -0.793550722871E+03   -0.15500E+01   -0.10732E+01  4208   0.575E+00    0.884E+00
DAV:   7    -0.780701986608E+03    0.12849E+02   -0.12024E+01  4199   0.510E+00    0.417E+00
DAV:   8    -0.779065821065E+03    0.16362E+01   -0.64553E+00  3976   0.233E+00    0.229E+00
DAV:   9    -0.778763805592E+03    0.30202E+00   -0.28836E+00  3808   0.139E+00    0.117E+00
DAV:  10    -0.778821456348E+03   -0.57651E-01   -0.51282E-01  4056   0.796E-01    0.101E+00
DAV:  11    -0.778705385275E+03    0.11607E+00   -0.21192E-01  3992   0.532E-01    0.505E-01
DAV:  12    -0.778699335755E+03    0.60495E-02   -0.71570E-02  3744   0.223E-01    0.246E-01
DAV:  13    -0.778700621141E+03   -0.12854E-02   -0.15498E-02  4064   0.134E-01    0.173E-01
DAV:  14    -0.778698817146E+03    0.18040E-02   -0.51416E-03  3952   0.956E-02    0.105E-01
DAV:  15    -0.778697811772E+03    0.10054E-02   -0.16514E-03  3936   0.504E-02    0.478E-02
DAV:  16    -0.778697788504E+03    0.23268E-04   -0.93377E-04  3784   0.268E-02    0.217E-02
DAV:  17    -0.778697772456E+03    0.16048E-04   -0.15542E-04  4176   0.147E-02    0.162E-02
DAV:  18    -0.778697744972E+03    0.27484E-04   -0.44403E-05  3952   0.770E-03    0.747E-03
DAV:  19    -0.778697741641E+03    0.33308E-05   -0.17879E-05  2464   0.433E-03
   1 F= -.77869774E+03 E0= -.77864961E+03  d E =-.962618E-01
