Li                                      
           1
    21.672000    0.000000    0.000000
     0.000000   21.672000    0.000000
     0.000000    0.000000   21.672000
   Li
   432
Direct configuration=     1
   0.99181679  0.02039932  0.99682749
   0.92510844  0.07409561  0.08437228
   0.83872918  0.15202988  0.15595660
   0.75794744  0.24988876  0.25176764
   0.65873216  0.33542885  0.31661751
   0.57855969  0.42211980  0.42582542
   0.49768487  0.50067588  0.49686392
   0.43119738  0.58281592  0.59164134
   0.34982278  0.68208863  0.67504886
   0.25991745  0.75522354  0.75522446
   0.14002232  0.83651827  0.81051941
   0.07807060  0.90598256  0.91945759
   0.07500304  0.91786981  0.06893752
   0.01082042  0.00596806  0.16965128
   0.89583669  0.07726883  0.23004094
   0.82591338  0.17157833  0.34377070
   0.73865234  0.24329086  0.41874643
   0.66781433  0.34852058  0.50504690
   0.56616588  0.40270403  0.59981751
   0.49662411  0.49045656  0.64200885
   0.44276610  0.57850575  0.72789016
   0.34782041  0.68755151  0.84335185
   0.24627375  0.75702400  0.92857791
   0.14173104  0.82713618  0.01100590
   0.16962667  0.83457590  0.17781535
   0.08547837  0.91357959  0.24259231
   0.00078030  0.01191182  0.31001087
   0.91110192  0.06825641  0.41618806
   0.83515914  0.13566622  0.48673699
   0.73620495  0.24063108  0.55699695
   0.66207296  0.33813009  0.68311958
   0.57007925  0.42710274  0.76639636
   0.51205259  0.49823100  0.84379477
   0.43150587  0.58682184  0.94836165
   0.35440135  0.67639873  0.01515783
   0.24170164  0.74116258  0.08663976
   0.23995272  0.74728373  0.22717961
   0.15063417  0.81848712  0.32999469
   0.07735053  0.95180953  0.41137657
   0.01084775  0.01928261  0.50686925
   0.90953706  0.11072075  0.58848781
   0.82233589  0.17647726  0.66462717
   0.73490224  0.25433531  0.74212552
   0.65304223  0.34779003  0.82794636
   0.58723416  0.41506289  0.93293326
   0.51199539  0.48429514  0.01561160
   0.41557119  0.57500213  0.11661159
   0.30708093  0.65372336  0.17851142
   0.32240367  0.67947965  0.33543871
   0.26107373  0.74893762  0.40564372
   0.14245396  0.84451573  0.47585982
   0.08249684  0.91662510  0.58276273
   0.98826272  0.99632015  0.67104465
   0.92053480  0.10131456  0.73271035
   0.81265724  0.18492720  0.82579723
   0.72456163  0.26695010  0.90471271
   0.67154719  0.34584574  0.99934291
   0.59346101  0.39511751  0.09645971
   0.50814875  0.50488913  0.16052978
   0.40585127  0.55371815  0.26354477
   0.40321643  0.58589190  0.39786253
   0.35746372  0.66529767  0.49835042
   0.25380556  0.75441323  0.58209767
   0.17760713  0.83912283  0.65670410
   0.08135074  0.92146015  0.74287503
   0.99711839  0.00626432  0.83573611
   0.90370775  0.09945966  0.89235492
   0.83286071  0.16994690  0.00473667
   0.73919972  0.26317977  0.10590320
   0.66824362  0.34736360  0.19447701
   0.56635768  0.40329977  0.25556071
   0.50594248  0.49203509  0.35510644
   0.07254605  0.07623492  0.91081857
   0.97730230  0.17162781  0.00512548
   0.92662547  0.26358109  0.09760802
   0.83361329  0.34048066  0.18096297
   0.73822085  0.43735650  0.23721717
   0.68011489  0.49975560  0.33542895
   0.58857344  0.57129336  0.40254235
   0.51306061  0.66198374  0.49657307
   0.42694046  0.79046195  0.58642429
   0.33649508  0.83467901  0.65943153
   0.27150567  0.92246261  0.75378432
   0.18188483  0.01521600  0.83448055
   0.14729640  0.98206756  0.97654455
   0.10067446  0.08471381  0.08580213
   0.99717586  0.18131912  0.17079950
   0.91996245  0.24064565  0.25000172
   0.83058770  0.34147838  0.36122540
   0.74678227  0.41947050  0.41111050
   0.66745869  0.49038046  0.50090440
   0.58853658  0.56264607  0.60743059
   0.50009161  0.65293292  0.63202113
   0.42140131  0.77016929  0.74354957
   0.35900178  0.83804027  0.83536594
   0.22629548  0.89496006  0.93453978
   0.22986879  0.91749939  0.10443383
   0.15308248  0.02064170  0.16794975
   0.09957998  0.11002974  0.22019857
   0.98542719  0.15757386  0.34039661
   0.92183173  0.24328371  0.41224532
   0.83324165  0.33935606  0.49476097
   0.75842539  0.42277967  0.59373127
   0.65076329  0.47290535  0.65528097
   0.59972185  0.57188846  0.74858585
   0.49271401  0.67297953  0.84478193
   0.41224318  0.73741774  0.93429037
   0.31752545  0.81921249  0.02579310
   0.32394420  0.84197241  0.16297324
   0.24415726  0.92744819  0.24197010
   0.15927448  0.00930131  0.30945531
   0.09959784  0.09770651  0.40187104
   0.99996033  0.18766407  0.48509366
   0.92756659  0.24894676  0.57445370
   0.81612780  0.32460007  0.66121324
   0.74366382  0.42910593  0.74246410
   0.66635581  0.49874409  0.85734633
   0.57602371  0.59577746  0.92246940
   0.52402840  0.65424440  0.01540108
   0.43661604  0.74474173  0.10964384
   0.40126812  0.75353088  0.25650612
   0.33290373  0.85246595  0.30921962
   0.23819242  0.92734925  0.38775492
   0.17196353  0.04059350  0.47915040
   0.08438731  0.08928291  0.59467074
   0.00641905  0.17189358  0.65649264
   0.90496525  0.26972476  0.74443483
   0.81547575  0.35327465  0.82304975
   0.72256726  0.41426423  0.89746705
   0.67622709  0.49343270  0.99314233
   0.58325794  0.56368305  0.11267954
   0.50436717  0.65374093  0.17922264
   0.48905356  0.66229347  0.33861495
   0.40882061  0.76980334  0.41321365
   0.33253968  0.83748053  0.46998508
   0.26013968  0.93472874  0.55592594
   0.17690679  0.00067603  0.66033180
   0.09079114  0.07955737  0.74813770
   0.00710248  0.16368672  0.83236069
   0.90744811  0.25623489  0.90886421
   0.84355232  0.30814971  0.98688620
   0.75470011  0.41664651  0.08124669
   0.66846413  0.49939821  0.16140252
   0.58003575  0.58741293  0.25858175
   0.17599964  0.16611510  0.82790064
   0.09831541  0.23878580  0.90305487
   0.00635704  0.32095957  0.00240116
   0.92261921  0.40672434  0.08383141
   0.81860931  0.48414219  0.18313896
   0.74668491  0.57859406  0.24263546
   0.64983573  0.68136704  0.33696158
   0.57712256  0.75275716  0.43675603
   0.49820331  0.83549080  0.48484257
   0.40626540  0.91538677  0.56438704
   0.36071688  0.01487005  0.64654835
   0.25987200  0.06234680  0.75892402
   0.24577018  0.09132380  0.91417944
   0.15844961  0.15932218  0.99863308
   0.09239860  0.23559357  0.08475833
   0.00375630  0.34005111  0.18147509
   0.91276897  0.38903240  0.25919969
   0.84587463  0.48656346  0.33288008
   0.74842662  0.55546725  0.40106369
   0.66873785  0.63624098  0.48601636
   0.58222375  0.74449258  0.56494986
   0.51710569  0.83115955  0.65837436
   0.42122176  0.93246138  0.73186660
   0.33811283  0.99393453  0.85296453
   0.31014310  0.98604691  0.01033347
   0.23692142  0.07447083  0.07024970
   0.18332541  0.16937510  0.15934832
   0.08534391  0.25842927  0.23683749
   0.00534031  0.30825621  0.34270274
   0.92316302  0.42006278  0.41121505
   0.84007261  0.49672730  0.49867577
   0.77090843  0.58225233  0.58802757
   0.64403094  0.65322549  0.65062351
   0.56253630  0.73752891  0.75329303
   0.50831216  0.83594280  0.84206705
   0.39738600  0.92964056  0.92728613
   0.41216121  0.90826999  0.09275959
   0.31849749  0.01141486  0.15987383
   0.26812286  0.08887411  0.27393810
   0.16564426  0.20025368  0.34062942
   0.09190577  0.24945564  0.42133026
   0.00625278  0.34979753  0.49786140
   0.92157627  0.41536035  0.58285082
   0.85099702  0.50886025  0.65188218
   0.72150189  0.58053461  0.75411841
   0.65644055  0.67437679  0.84405010
   0.56276059  0.73873408  0.94565262
   0.48843291  0.84028787  0.02277794
   0.49549422  0.85004573  0.18963228
   0.40057005  0.93192076  0.25541775
   0.32415032  0.02274307  0.33972945
   0.22288355  0.11323647  0.40497595
   0.18087190  0.19515382  0.50345305
   0.07815907  0.24318426  0.58339585
   0.00837805  0.34564564  0.66129474
   0.92008940  0.40657251  0.73557013
   0.83543927  0.48625962  0.84762440
   0.75571752  0.59149318  0.92381937
   0.66535344  0.66144287  0.01988713
   0.58976973  0.74149421  0.11156652
   0.56852447  0.74551980  0.23325706
   0.48485177  0.82615403  0.34222437
   0.42976741  0.92000138  0.41395252
   0.31836185  0.01077132  0.46874129
   0.24590585  0.08470449  0.57364505
   0.17223133  0.17820102  0.65907524
   0.08209110  0.25922529  0.71743345
   0.01243671  0.30941988  0.81851863
   0.93445682  0.41996081  0.89414056
   0.82716728  0.48704188  0.98200149
   0.76510306  0.57463676  0.09895719
   0.67450990  0.66023799  0.18343902
   0.26384619  0.24199325  0.73520513
   0.17413791  0.32829546  0.82240636
   0.08248873  0.42087711  0.90813600
   0.98053957  0.50144116  0.98539720
   0.90868190  0.56969646  0.08597019
   0.85233880  0.64152365  0.17570110
   0.77728303  0.71802400  0.25238632
   0.68722262  0.81189275  0.31920971
   0.60016568  0.91282411  0.40036103
   0.49883413  0.97962588  0.48153005
   0.43022688  0.07522779  0.57637412
   0.34579997  0.17857305  0.65539955
   0.35021320  0.16267478  0.83173413
   0.24491514  0.23329061  0.91250306
   0.17016946  0.32063662  0.98798775
   0.06755565  0.41347185  0.08155135
   0.98423068  0.48570989  0.17266561
   0.92157485  0.57373751  0.25956570
   0.81944945  0.65134477  0.34687922
   0.74602437  0.74205532  0.43518501
   0.67701068  0.85971716  0.49578420
   0.57585461  0.91243651  0.55168557
   0.52701679  0.99742211  0.64423747
   0.41994641  0.09428393  0.74916482
   0.43330664  0.06312874  0.91233746
   0.32887541  0.15700581  0.99702397
   0.25130320  0.22486468  0.06345206
   0.17231467  0.32509070  0.15711501
   0.11131681  0.39713859  0.25347659
   0.01015576  0.48226583  0.33063736
   0.91015540  0.58273818  0.42847149
   0.83699058  0.65270903  0.50256862
   0.75131046  0.74036298  0.57512140
   0.65126032  0.82896080  0.66501919
   0.60508774  0.90780800  0.75918503
   0.50205306  0.98874605  0.83981557
   0.49381159  0.97972717  0.99224224
   0.41778973  0.10411230  0.06479238
   0.31651926  0.13887902  0.16086358
   0.24582356  0.24733055  0.25735122
   0.14912280  0.31053209  0.34979224
   0.10916059  0.40717005  0.41678748
   0.01633963  0.50528132  0.50413674
   0.93842292  0.56159858  0.59472090
   0.85141675  0.64918690  0.66434857
   0.75152855  0.73551316  0.72199056
   0.67206282  0.80181163  0.85612887
   0.59682203  0.91529473  0.92059910
   0.58811267  0.91349255  0.08677274
   0.47704017  0.00714532  0.15712312
   0.41831212  0.09946549  0.25954027
   0.33180480  0.16525296  0.33483401
   0.25441465  0.27422078  0.42459019
   0.15798175  0.36464526  0.53363510
   0.07885473  0.43527462  0.58311166
   0.00071949  0.49431756  0.67443690
   0.90984411  0.58428557  0.75945038
   0.85711595  0.65499045  0.85678509
   0.74266685  0.72268899  0.96101999
   0.65899033  0.85245200  0.00900023
   0.67334197  0.83714514  0.18557438
   0.55519798  0.94088743  0.27425596
   0.49303116  0.00994932  0.33401303
   0.42156918  0.11268041  0.40996881
   0.32273861  0.16483020  0.50337989
   0.27085691  0.26407404  0.58081465
   0.18536820  0.33966467  0.65683565
   0.09532998  0.41853366  0.75741733
   0.00791892  0.50973333  0.81823426
   0.92589651  0.58614459  0.92466423
   0.83648970  0.65567918  0.99758462
   0.76118831  0.73695270  0.10024128
   0.36294301  0.33787664  0.66226188
   0.27132001  0.42001268  0.74066666
   0.18043764  0.52664990  0.82752660
   0.08468530  0.57617775  0.92591272
   0.01543701  0.66276438  0.03532387
   0.91219588  0.73135447  0.08220026
   0.83448639  0.84640748  0.18464722
   0.75508274  0.93204019  0.23697076
   0.67782837  0.99931718  0.31096672
   0.57248623  0.07189135  0.41538875
   0.50141586  0.16328981  0.50264532
   0.42975987  0.26585891  0.57846032
   0.41427185  0.23820181  0.72994272
   0.34748896  0.32675771  0.85243694
   0.26473505  0.43198541  0.90825157
   0.15313648  0.49873617  0.00227892
   0.07388203  0.56904779  0.09301753
   0.99259830  0.67559635  0.17790433
   0.90201688  0.74061744  0.26166939
   0.83154316  0.82868246  0.35312264
   0.72443254  0.92131454  0.40828697
   0.66807393  0.00012115  0.49570564
   0.59667827  0.07595326  0.57579590
   0.52790961  0.17230968  0.66069036
   0.52314527  0.15986761  0.82429145
   0.41404260  0.24527292  0.88939667
   0.33169591  0.35438727  0.98036871
   0.23742772  0.40431113  0.07564628
   0.20703071  0.48161796  0.18084114
   0.08021384  0.56486912  0.22678850
   0.00670441  0.64886499  0.32325191
   0.92776354  0.73717007  0.38617487
   0.85841262  0.83547523  0.47955409
   0.75347677  0.89398067  0.59796201
   0.66751635  0.99382737  0.64809490
   0.58297009  0.07804711  0.75476148
   0.58664508  0.09914182  0.90246598
   0.50332527  0.18176934  0.00229937
   0.38568011  0.23538573  0.08152127
   0.31770291  0.32594545  0.16513647
   0.25001252  0.37702778  0.27437937
   0.18106968  0.48714322  0.31957764
   0.09169109  0.57679354  0.41992649
   0.01184951  0.64353759  0.48400927
   0.92057778  0.75328294  0.58330859
   0.84101970  0.84156535  0.67186270
   0.74322151  0.90353611  0.74982851
   0.67528687  0.99230933  0.86194792
   0.68474716  0.99966552  0.99641436
   0.57044595  0.08018825  0.09559819
   0.48800529  0.17014770  0.15754972
   0.41679202  0.24164510  0.25997329
   0.33804192  0.31846378  0.34269671
   0.23820770  0.42926905  0.43068322
   0.17493305  0.50767178  0.50803186
   0.07840410  0.59061395  0.59964078
   0.97465909  0.65073577  0.68228526
   0.90827795  0.76019730  0.74590502
   0.81986914  0.81891153  0.83768150
   0.75591155  0.92107909  0.94367340
   0.76344587  0.91959411  0.06938722
   0.67261131  0.01333901  0.17102891
   0.57492509  0.08307784  0.25197363
   0.50712836  0.19878855  0.33435562
   0.41825182  0.23210838  0.42166427
   0.33280371  0.33789989  0.48939310
   0.27948496  0.41902038  0.60709452
   0.18422143  0.51830327  0.66709905
   0.09364378  0.59952718  0.75111039
   0.02236065  0.66304473  0.84551928
   0.93586237  0.76329351  0.94332925
   0.85446107  0.82439439  0.00050385
   0.39447932  0.42287437  0.57849386
   0.34018779  0.51718011  0.66969320
   0.26498761  0.59384914  0.75751460
   0.17638986  0.67503555  0.84884603
   0.09395209  0.74672968  0.91466168
   0.00520296  0.82352577  0.01136497
   0.92226374  0.92004185  0.08545189
   0.82154498  0.00436130  0.16237993
   0.74344206  0.09624050  0.25696171
   0.66716222  0.17528595  0.33955418
   0.59465074  0.25370746  0.44728542
   0.48509730  0.37537062  0.49824904
   0.50191528  0.31911342  0.67417662
   0.44546658  0.42794651  0.75813384
   0.34902275  0.49211472  0.83599467
   0.26258553  0.59046925  0.90843345
   0.16148862  0.64944013  0.01654402
   0.09535068  0.74726894  0.12267460
   0.98536772  0.83673267  0.13036339
   0.91339397  0.93696076  0.26060110
   0.82003176  0.01151999  0.31952349
   0.75088078  0.07093632  0.39217733
   0.64821038  0.16080256  0.47713337
   0.56766997  0.25896576  0.55152879
   0.57476175  0.25424828  0.76261462
   0.50645845  0.30470285  0.82267297
   0.42708104  0.42419186  0.92463303
   0.32358303  0.51277410  0.01680374
   0.26175014  0.59035605  0.09383367
   0.16618643  0.64977073  0.14711953
   0.09391242  0.73775695  0.23870452
   0.00327122  0.82919684  0.30852110
   0.90712162  0.92836693  0.39098342
   0.83705945  0.00823212  0.49976892
   0.73845261  0.07774187  0.59257328
   0.64118972  0.16769036  0.65058493
   0.65054313  0.15868786  0.81401548
   0.58170240  0.25633998  0.89418097
   0.50865323  0.31454349  0.99451149
   0.40007313  0.40415745  0.08991551
   0.31501516  0.47554716  0.17662105
   0.24483537  0.57828015  0.27064754
   0.14867384  0.68060936  0.31733214
   0.07329898  0.74112407  0.39896128
   0.00272777  0.82834793  0.51597178
   0.91601325  0.92104868  0.58304289
   0.83619140  0.00722885  0.66734862
   0.75682380  0.07211875  0.74348012
   0.74734835  0.08772444  0.92456997
   0.67775255  0.18837090  0.02770092
   0.60639548  0.25527385  0.07972374
   0.50229769  0.34627127  0.14293085
   0.40395786  0.40722416  0.25599575
   0.29385060  0.47182061  0.32941992
   0.23764625  0.61514847  0.41161770
   0.16782794  0.68449399  0.50730370
   0.07171038  0.75230560  0.58491282
   0.00771653  0.83385445  0.66142525
   0.89567317  0.91051327  0.75152452
   0.83742785  0.00195305  0.82057766
   0.83062537  0.00762928  0.01566384
   0.73538317  0.09357572  0.09366764
   0.64344931  0.16834686  0.18288408
   0.57088052  0.25802587  0.25490261
   0.46807008  0.31747125  0.35232223
   0.38920133  0.42822040  0.40949455
   0.32050614  0.51028735  0.50291761
   0.24521163  0.60175550  0.60798244
   0.13728787  0.67338704  0.65048889
   0.07594284  0.75693722  0.74133266
   0.98941254  0.84176164  0.84347163
   0.90526200  0.92673346  0.93385757
