 504 504   0   0
  0.1922536E+02  0.2105579E-08  0.2083983E-08  0.2208205E-08  0.5000000E-15
  1.000000000000000E-004
  CAR 
 Li                                      
      3.75706466     -3.37707945  301      0.54298860      1.00000000
     -3.377  0.0000E+00  0.0000E+00
     -3.353  0.0000E+00  0.0000E+00
     -3.330  0.0000E+00  0.0000E+00
     -3.306  0.0000E+00  0.0000E+00
     -3.282  0.0000E+00  0.0000E+00
     -3.258  0.0000E+00  0.0000E+00
     -3.234  0.0000E+00  0.0000E+00
     -3.211  0.4203E-11  0.9995E-13
     -3.187  0.1100E-07  0.2616E-09
     -3.163  0.8417E-05  0.2004E-06
     -3.139  0.1902E-02  0.4544E-04
     -3.115  0.1288E+00  0.3107E-02
     -3.092  0.2660E+01  0.6638E-01
     -3.068  0.1717E+02  0.4747E+00
     -3.044  0.3535E+02  0.1315E+01
     -3.020  0.2348E+02  0.1874E+01
     -2.997  0.5619E+01  0.2007E+01
     -2.973  0.9483E+01  0.2233E+01
     -2.949  0.4755E+02  0.3364E+01
     -2.925  0.9498E+02  0.5622E+01
     -2.901  0.7490E+02  0.7403E+01
     -2.878  0.2299E+02  0.7950E+01
     -2.854  0.9346E+01  0.8172E+01
     -2.830  0.4082E+02  0.9143E+01
     -2.806  0.9163E+02  0.1132E+02
     -2.783  0.8135E+02  0.1326E+02
     -2.759  0.2953E+02  0.1396E+02
     -2.735  0.1876E+02  0.1440E+02
     -2.711  0.5326E+02  0.1567E+02
     -2.687  0.9810E+02  0.1800E+02
     -2.664  0.1041E+03  0.2048E+02
     -2.640  0.5437E+02  0.2177E+02
     -2.616  0.2984E+02  0.2248E+02
     -2.592  0.7401E+02  0.2424E+02
     -2.569  0.1359E+03  0.2748E+02
     -2.545  0.1523E+03  0.3110E+02
     -2.521  0.9464E+02  0.3335E+02
     -2.497  0.2938E+02  0.3405E+02
     -2.473  0.2977E+02  0.3476E+02
     -2.450  0.7308E+02  0.3649E+02
     -2.426  0.9071E+02  0.3865E+02
     -2.402  0.5560E+02  0.3997E+02
     -2.378  0.4262E+02  0.4099E+02
     -2.355  0.6514E+02  0.4253E+02
     -2.331  0.9427E+02  0.4478E+02
     -2.307  0.1219E+03  0.4767E+02
     -2.283  0.1240E+03  0.5062E+02
     -2.259  0.1004E+03  0.5301E+02
     -2.236  0.1016E+03  0.5543E+02
     -2.212  0.1289E+03  0.5849E+02
     -2.188  0.1765E+03  0.6269E+02
     -2.164  0.1790E+03  0.6695E+02
     -2.140  0.1107E+03  0.6958E+02
     -2.117  0.5872E+02  0.7098E+02
     -2.093  0.4390E+02  0.7202E+02
     -2.069  0.5132E+02  0.7324E+02
     -2.045  0.6696E+02  0.7483E+02
     -2.022  0.5842E+02  0.7622E+02
     -1.998  0.7352E+02  0.7797E+02
     -1.974  0.1168E+03  0.8075E+02
     -1.950  0.1498E+03  0.8431E+02
     -1.926  0.1540E+03  0.8797E+02
     -1.903  0.1241E+03  0.9093E+02
     -1.879  0.9144E+02  0.9310E+02
     -1.855  0.1082E+03  0.9567E+02
     -1.831  0.1394E+03  0.9899E+02
     -1.808  0.1876E+03  0.1034E+03
     -1.784  0.1992E+03  0.1082E+03
     -1.760  0.1219E+03  0.1111E+03
     -1.736  0.3799E+02  0.1120E+03
     -1.712  0.3137E+02  0.1127E+03
     -1.689  0.9330E+02  0.1150E+03
     -1.665  0.1483E+03  0.1185E+03
     -1.641  0.1347E+03  0.1217E+03
     -1.617  0.1256E+03  0.1247E+03
     -1.594  0.1523E+03  0.1283E+03
     -1.570  0.1667E+03  0.1323E+03
     -1.546  0.1779E+03  0.1365E+03
     -1.522  0.1611E+03  0.1403E+03
     -1.498  0.1160E+03  0.1431E+03
     -1.475  0.1113E+03  0.1457E+03
     -1.451  0.1356E+03  0.1489E+03
     -1.427  0.1652E+03  0.1529E+03
     -1.403  0.1680E+03  0.1569E+03
     -1.380  0.1261E+03  0.1599E+03
     -1.356  0.8890E+02  0.1620E+03
     -1.332  0.9464E+02  0.1642E+03
     -1.308  0.1089E+03  0.1668E+03
     -1.284  0.9471E+02  0.1691E+03
     -1.261  0.9395E+02  0.1713E+03
     -1.237  0.1290E+03  0.1744E+03
     -1.213  0.1430E+03  0.1778E+03
     -1.189  0.1315E+03  0.1809E+03
     -1.165  0.1503E+03  0.1845E+03
     -1.142  0.1679E+03  0.1885E+03
     -1.118  0.1610E+03  0.1923E+03
     -1.094  0.1713E+03  0.1964E+03
     -1.070  0.2013E+03  0.2012E+03
     -1.047  0.2312E+03  0.2067E+03
     -1.023  0.2267E+03  0.2121E+03
     -0.999  0.1953E+03  0.2167E+03
     -0.975  0.1681E+03  0.2207E+03
     -0.951  0.1647E+03  0.2246E+03
     -0.928  0.1489E+03  0.2282E+03
     -0.904  0.1101E+03  0.2308E+03
     -0.880  0.8086E+02  0.2327E+03
     -0.856  0.1181E+03  0.2355E+03
     -0.833  0.1633E+03  0.2394E+03
     -0.809  0.1486E+03  0.2429E+03
     -0.785  0.1383E+03  0.2462E+03
     -0.761  0.1568E+03  0.2499E+03
     -0.737  0.1773E+03  0.2542E+03
     -0.714  0.2054E+03  0.2590E+03
     -0.690  0.1909E+03  0.2636E+03
     -0.666  0.1516E+03  0.2672E+03
     -0.642  0.1235E+03  0.2701E+03
     -0.619  0.1105E+03  0.2727E+03
     -0.595  0.1504E+03  0.2763E+03
     -0.571  0.1789E+03  0.2806E+03
     -0.547  0.1500E+03  0.2841E+03
     -0.523  0.1388E+03  0.2874E+03
     -0.500  0.1573E+03  0.2912E+03
     -0.476  0.1908E+03  0.2957E+03
     -0.452  0.2305E+03  0.3012E+03
     -0.428  0.2343E+03  0.3068E+03
     -0.405  0.2114E+03  0.3118E+03
     -0.381  0.1939E+03  0.3164E+03
     -0.357  0.2020E+03  0.3212E+03
     -0.333  0.2284E+03  0.3267E+03
     -0.309  0.2293E+03  0.3321E+03
     -0.286  0.1979E+03  0.3368E+03
     -0.262  0.1530E+03  0.3404E+03
     -0.238  0.1286E+03  0.3435E+03
     -0.214  0.1638E+03  0.3474E+03
     -0.190  0.2014E+03  0.3522E+03
     -0.167  0.1723E+03  0.3563E+03
     -0.143  0.1331E+03  0.3595E+03
     -0.119  0.1544E+03  0.3631E+03
     -0.095  0.1871E+03  0.3676E+03
     -0.072  0.1956E+03  0.3722E+03
     -0.048  0.2009E+03  0.3770E+03
     -0.024  0.1984E+03  0.3817E+03
     -0.000  0.1893E+03  0.3862E+03
      0.024  0.1931E+03  0.3908E+03
      0.047  0.2318E+03  0.3963E+03
      0.071  0.2764E+03  0.4029E+03
      0.095  0.2888E+03  0.4098E+03
      0.119  0.2557E+03  0.4158E+03
      0.142  0.1959E+03  0.4205E+03
      0.166  0.1756E+03  0.4247E+03
      0.190  0.1869E+03  0.4291E+03
      0.214  0.1961E+03  0.4338E+03
      0.238  0.2069E+03  0.4387E+03
      0.261  0.2074E+03  0.4436E+03
      0.285  0.1966E+03  0.4483E+03
      0.309  0.1873E+03  0.4528E+03
      0.333  0.1833E+03  0.4571E+03
      0.356  0.1906E+03  0.4617E+03
      0.380  0.1888E+03  0.4662E+03
      0.404  0.1735E+03  0.4703E+03
      0.428  0.1775E+03  0.4745E+03
      0.452  0.2099E+03  0.4795E+03
      0.475  0.2423E+03  0.4853E+03
      0.499  0.2631E+03  0.4915E+03
      0.523  0.2815E+03  0.4982E+03
      0.547  0.2885E+03  0.5051E+03
      0.570  0.2801E+03  0.5117E+03
      0.594  0.2708E+03  0.5182E+03
      0.618  0.2824E+03  0.5249E+03
      0.642  0.2985E+03  0.5320E+03
      0.666  0.2934E+03  0.5390E+03
      0.689  0.2794E+03  0.5456E+03
      0.713  0.2654E+03  0.5519E+03
      0.737  0.2529E+03  0.5579E+03
      0.761  0.2355E+03  0.5635E+03
      0.785  0.2195E+03  0.5687E+03
      0.808  0.2253E+03  0.5741E+03
      0.832  0.2371E+03  0.5797E+03
      0.856  0.2308E+03  0.5852E+03
      0.880  0.2081E+03  0.5902E+03
      0.903  0.2025E+03  0.5950E+03
      0.927  0.2175E+03  0.6002E+03
      0.951  0.2166E+03  0.6053E+03
      0.975  0.2106E+03  0.6103E+03
      0.999  0.2093E+03  0.6153E+03
      1.022  0.1892E+03  0.6198E+03
      1.046  0.1733E+03  0.6239E+03
      1.070  0.1796E+03  0.6282E+03
      1.094  0.1835E+03  0.6326E+03
      1.117  0.1951E+03  0.6372E+03
      1.141  0.2125E+03  0.6423E+03
      1.165  0.2250E+03  0.6476E+03
      1.189  0.2313E+03  0.6531E+03
      1.213  0.2353E+03  0.6587E+03
      1.236  0.2366E+03  0.6643E+03
      1.260  0.2397E+03  0.6700E+03
      1.284  0.2379E+03  0.6757E+03
      1.308  0.2339E+03  0.6813E+03
      1.331  0.2317E+03  0.6868E+03
      1.355  0.2245E+03  0.6921E+03
      1.379  0.2141E+03  0.6972E+03
      1.403  0.2070E+03  0.7021E+03
      1.427  0.2181E+03  0.7073E+03
      1.450  0.2260E+03  0.7127E+03
      1.474  0.2202E+03  0.7179E+03
      1.498  0.2224E+03  0.7232E+03
      1.522  0.2285E+03  0.7286E+03
      1.545  0.2085E+03  0.7336E+03
      1.569  0.1725E+03  0.7377E+03
      1.593  0.1680E+03  0.7417E+03
      1.617  0.1862E+03  0.7461E+03
      1.641  0.2021E+03  0.7509E+03
      1.664  0.2172E+03  0.7561E+03
      1.688  0.2204E+03  0.7613E+03
      1.712  0.2087E+03  0.7663E+03
      1.736  0.2026E+03  0.7711E+03
      1.760  0.2004E+03  0.7759E+03
      1.783  0.2032E+03  0.7807E+03
      1.807  0.2038E+03  0.7856E+03
      1.831  0.2107E+03  0.7906E+03
      1.855  0.2255E+03  0.7959E+03
      1.878  0.2272E+03  0.8013E+03
      1.902  0.2211E+03  0.8066E+03
      1.926  0.2236E+03  0.8119E+03
      1.950  0.2337E+03  0.8175E+03
      1.974  0.2313E+03  0.8230E+03
      1.997  0.2150E+03  0.8281E+03
      2.021  0.2044E+03  0.8329E+03
      2.045  0.1946E+03  0.8376E+03
      2.069  0.1863E+03  0.8420E+03
      2.092  0.1896E+03  0.8465E+03
      2.116  0.1991E+03  0.8512E+03
      2.140  0.2050E+03  0.8561E+03
      2.164  0.2013E+03  0.8609E+03
      2.188  0.1926E+03  0.8655E+03
      2.211  0.1902E+03  0.8700E+03
      2.235  0.1838E+03  0.8744E+03
      2.259  0.1823E+03  0.8787E+03
      2.283  0.1904E+03  0.8832E+03
      2.306  0.1864E+03  0.8877E+03
      2.330  0.1721E+03  0.8918E+03
      2.354  0.1624E+03  0.8956E+03
      2.378  0.1596E+03  0.8994E+03
      2.402  0.1497E+03  0.9030E+03
      2.425  0.1457E+03  0.9065E+03
      2.449  0.1389E+03  0.9098E+03
      2.473  0.1340E+03  0.9129E+03
      2.497  0.1431E+03  0.9163E+03
      2.520  0.1553E+03  0.9200E+03
      2.544  0.1543E+03  0.9237E+03
      2.568  0.1492E+03  0.9273E+03
      2.592  0.1539E+03  0.9309E+03
      2.616  0.1408E+03  0.9343E+03
      2.639  0.1210E+03  0.9371E+03
      2.663  0.1184E+03  0.9400E+03
      2.687  0.1244E+03  0.9429E+03
      2.711  0.1318E+03  0.9461E+03
      2.735  0.1371E+03  0.9493E+03
      2.758  0.1442E+03  0.9527E+03
      2.782  0.1359E+03  0.9560E+03
      2.806  0.1238E+03  0.9589E+03
      2.830  0.1376E+03  0.9622E+03
      2.853  0.1453E+03  0.9656E+03
      2.877  0.1389E+03  0.9690E+03
      2.901  0.1309E+03  0.9721E+03
      2.925  0.1212E+03  0.9749E+03
      2.949  0.1188E+03  0.9778E+03
      2.972  0.1219E+03  0.9807E+03
      2.996  0.1184E+03  0.9835E+03
      3.020  0.1133E+03  0.9862E+03
      3.044  0.1145E+03  0.9889E+03
      3.067  0.1075E+03  0.9915E+03
      3.091  0.1052E+03  0.9940E+03
      3.115  0.1068E+03  0.9965E+03
      3.139  0.1051E+03  0.9990E+03
      3.163  0.9523E+02  0.1001E+04
      3.186  0.7761E+02  0.1003E+04
      3.210  0.5429E+02  0.1004E+04
      3.234  0.3820E+02  0.1005E+04
      3.258  0.2249E+02  0.1006E+04
      3.281  0.1362E+02  0.1006E+04
      3.305  0.2258E+02  0.1007E+04
      3.329  0.2711E+02  0.1007E+04
      3.353  0.1935E+02  0.1008E+04
      3.377  0.1421E+02  0.1008E+04
      3.400  0.1659E+02  0.1009E+04
      3.424  0.2567E+02  0.1009E+04
      3.448  0.2502E+02  0.1010E+04
      3.472  0.9381E+01  0.1010E+04
      3.495  0.1191E+01  0.1010E+04
      3.519  0.4923E-01  0.1010E+04
      3.543  0.6447E-03  0.1010E+04
      3.567  0.2610E-05  0.1010E+04
      3.591  0.3202E-08  0.1010E+04
      3.614  0.1174E-11  0.1010E+04
      3.638  0.0000E+00  0.1010E+04
      3.662  0.0000E+00  0.1010E+04
      3.686  0.0000E+00  0.1010E+04
      3.710  0.0000E+00  0.1010E+04
      3.733  0.0000E+00  0.1010E+04
      3.757  0.0000E+00  0.1010E+04
