 500 500   0   0
  0.1852332E+02  0.2100050E-08  0.2100050E-08  0.2100050E-08  0.5000000E-15
  1.000000000000000E-004
  CAR 
 Li                                      
      3.86649653     -3.30708445  301      0.63791196      1.00000000
     -3.307  0.0000E+00  0.0000E+00
     -3.283  0.0000E+00  0.0000E+00
     -3.259  0.0000E+00  0.0000E+00
     -3.235  0.0000E+00  0.0000E+00
     -3.211  0.0000E+00  0.0000E+00
     -3.188  0.0000E+00  0.0000E+00
     -3.164  0.0000E+00  0.0000E+00
     -3.140  0.2880E-11  0.6886E-13
     -3.116  0.8283E-08  0.1981E-09
     -3.092  0.6870E-05  0.1645E-06
     -3.068  0.1659E-02  0.3984E-04
     -3.044  0.1184E+00  0.2871E-02
     -3.020  0.2546E+01  0.6374E-01
     -2.996  0.1688E+02  0.4674E+00
     -2.972  0.3529E+02  0.1311E+01
     -2.948  0.2352E+02  0.1874E+01
     -2.924  0.5425E+01  0.2003E+01
     -2.901  0.8134E+01  0.2198E+01
     -2.877  0.4569E+02  0.3290E+01
     -2.853  0.9674E+02  0.5604E+01
     -2.829  0.7594E+02  0.7419E+01
     -2.805  0.2226E+02  0.7952E+01
     -2.781  0.8329E+01  0.8151E+01
     -2.757  0.3975E+02  0.9101E+01
     -2.733  0.9324E+02  0.1133E+02
     -2.709  0.8156E+02  0.1328E+02
     -2.685  0.2729E+02  0.1393E+02
     -2.661  0.1158E+02  0.1421E+02
     -2.638  0.4706E+02  0.1534E+02
     -2.614  0.1088E+03  0.1794E+02
     -2.590  0.1111E+03  0.2059E+02
     -2.566  0.5029E+02  0.2180E+02
     -2.542  0.2116E+02  0.2230E+02
     -2.518  0.6297E+02  0.2381E+02
     -2.494  0.1407E+03  0.2717E+02
     -2.470  0.1621E+03  0.3105E+02
     -2.446  0.9581E+02  0.3334E+02
     -2.422  0.2748E+02  0.3400E+02
     -2.398  0.2458E+02  0.3458E+02
     -2.375  0.7365E+02  0.3635E+02
     -2.351  0.9463E+02  0.3861E+02
     -2.327  0.4843E+02  0.3977E+02
     -2.303  0.1466E+02  0.4012E+02
     -2.279  0.4217E+02  0.4113E+02
     -2.255  0.1260E+03  0.4414E+02
     -2.231  0.1685E+03  0.4817E+02
     -2.207  0.1145E+03  0.5091E+02
     -2.183  0.5072E+02  0.5212E+02
     -2.159  0.6788E+02  0.5374E+02
     -2.135  0.1574E+03  0.5750E+02
     -2.111  0.2185E+03  0.6273E+02
     -2.088  0.1864E+03  0.6719E+02
     -2.064  0.9256E+02  0.6940E+02
     -2.040  0.2982E+02  0.7011E+02
     -2.016  0.4417E+02  0.7117E+02
     -1.992  0.9211E+02  0.7337E+02
     -1.968  0.7932E+02  0.7527E+02
     -1.944  0.2978E+02  0.7598E+02
     -1.920  0.3130E+02  0.7673E+02
     -1.896  0.1071E+03  0.7929E+02
     -1.872  0.1844E+03  0.8370E+02
     -1.848  0.1650E+03  0.8764E+02
     -1.825  0.8290E+02  0.8963E+02
     -1.801  0.4936E+02  0.9081E+02
     -1.777  0.1134E+03  0.9352E+02
     -1.753  0.2031E+03  0.9838E+02
     -1.729  0.2155E+03  0.1035E+03
     -1.705  0.1355E+03  0.1068E+03
     -1.681  0.5103E+02  0.1080E+03
     -1.657  0.5017E+02  0.1092E+03
     -1.633  0.1233E+03  0.1121E+03
     -1.609  0.1638E+03  0.1161E+03
     -1.585  0.1183E+03  0.1189E+03
     -1.562  0.6356E+02  0.1204E+03
     -1.538  0.1030E+03  0.1229E+03
     -1.514  0.1905E+03  0.1274E+03
     -1.490  0.2107E+03  0.1325E+03
     -1.466  0.1551E+03  0.1362E+03
     -1.442  0.7711E+02  0.1380E+03
     -1.418  0.7712E+02  0.1399E+03
     -1.394  0.1658E+03  0.1438E+03
     -1.370  0.2227E+03  0.1491E+03
     -1.346  0.1803E+03  0.1535E+03
     -1.322  0.9021E+02  0.1556E+03
     -1.298  0.5338E+02  0.1569E+03
     -1.275  0.1067E+03  0.1594E+03
     -1.251  0.1579E+03  0.1632E+03
     -1.227  0.1313E+03  0.1664E+03
     -1.203  0.6752E+02  0.1680E+03
     -1.179  0.6570E+02  0.1695E+03
     -1.155  0.1156E+03  0.1723E+03
     -1.131  0.1343E+03  0.1755E+03
     -1.107  0.1178E+03  0.1783E+03
     -1.083  0.8147E+02  0.1803E+03
     -1.059  0.1143E+03  0.1830E+03
     -1.035  0.2195E+03  0.1883E+03
     -1.012  0.2942E+03  0.1953E+03
     -0.988  0.2858E+03  0.2021E+03
     -0.964  0.2096E+03  0.2071E+03
     -0.940  0.1286E+03  0.2102E+03
     -0.916  0.1416E+03  0.2136E+03
     -0.892  0.2110E+03  0.2187E+03
     -0.868  0.2069E+03  0.2236E+03
     -0.844  0.1319E+03  0.2268E+03
     -0.820  0.7317E+02  0.2285E+03
     -0.796  0.7794E+02  0.2304E+03
     -0.772  0.1343E+03  0.2336E+03
     -0.749  0.1824E+03  0.2379E+03
     -0.725  0.1542E+03  0.2416E+03
     -0.701  0.1489E+03  0.2452E+03
     -0.677  0.2163E+03  0.2504E+03
     -0.653  0.2387E+03  0.2561E+03
     -0.629  0.2023E+03  0.2609E+03
     -0.605  0.1398E+03  0.2642E+03
     -0.581  0.6784E+02  0.2659E+03
     -0.557  0.5029E+02  0.2671E+03
     -0.533  0.7789E+02  0.2689E+03
     -0.509  0.7981E+02  0.2708E+03
     -0.485  0.7239E+02  0.2726E+03
     -0.462  0.1277E+03  0.2756E+03
     -0.438  0.2160E+03  0.2808E+03
     -0.414  0.2594E+03  0.2870E+03
     -0.390  0.2698E+03  0.2934E+03
     -0.366  0.2643E+03  0.2998E+03
     -0.342  0.2369E+03  0.3054E+03
     -0.318  0.2027E+03  0.3103E+03
     -0.294  0.2069E+03  0.3152E+03
     -0.270  0.2382E+03  0.3209E+03
     -0.246  0.2518E+03  0.3269E+03
     -0.222  0.2150E+03  0.3321E+03
     -0.199  0.1543E+03  0.3358E+03
     -0.175  0.1167E+03  0.3386E+03
     -0.151  0.1257E+03  0.3416E+03
     -0.127  0.1429E+03  0.3450E+03
     -0.103  0.1756E+03  0.3492E+03
     -0.079  0.1951E+03  0.3538E+03
     -0.055  0.1710E+03  0.3579E+03
     -0.031  0.1587E+03  0.3617E+03
     -0.007  0.1673E+03  0.3657E+03
      0.017  0.1816E+03  0.3701E+03
      0.041  0.2101E+03  0.3751E+03
      0.064  0.2392E+03  0.3808E+03
      0.088  0.2472E+03  0.3867E+03
      0.112  0.2328E+03  0.3923E+03
      0.136  0.2078E+03  0.3973E+03
      0.160  0.1989E+03  0.4020E+03
      0.184  0.2093E+03  0.4070E+03
      0.208  0.2013E+03  0.4118E+03
      0.232  0.1515E+03  0.4155E+03
      0.256  0.1270E+03  0.4185E+03
      0.280  0.1679E+03  0.4225E+03
      0.304  0.2251E+03  0.4279E+03
      0.328  0.2462E+03  0.4338E+03
      0.351  0.2232E+03  0.4391E+03
      0.375  0.1962E+03  0.4438E+03
      0.399  0.1832E+03  0.4482E+03
      0.423  0.1917E+03  0.4528E+03
      0.447  0.2029E+03  0.4576E+03
      0.471  0.2010E+03  0.4624E+03
      0.495  0.2045E+03  0.4673E+03
      0.519  0.2133E+03  0.4724E+03
      0.543  0.2238E+03  0.4778E+03
      0.567  0.2301E+03  0.4833E+03
      0.591  0.2340E+03  0.4889E+03
      0.614  0.2374E+03  0.4946E+03
      0.638  0.2324E+03  0.5001E+03
      0.662  0.2254E+03  0.5055E+03
      0.686  0.2240E+03  0.5109E+03
      0.710  0.2240E+03  0.5162E+03
      0.734  0.2286E+03  0.5217E+03
      0.758  0.2418E+03  0.5275E+03
      0.782  0.2544E+03  0.5335E+03
      0.806  0.2605E+03  0.5398E+03
      0.830  0.2707E+03  0.5462E+03
      0.854  0.2779E+03  0.5529E+03
      0.878  0.2737E+03  0.5594E+03
      0.901  0.2712E+03  0.5659E+03
      0.925  0.2639E+03  0.5722E+03
      0.949  0.2552E+03  0.5783E+03
      0.973  0.2461E+03  0.5842E+03
      0.997  0.2264E+03  0.5896E+03
      1.021  0.2079E+03  0.5946E+03
      1.045  0.1987E+03  0.5994E+03
      1.069  0.2000E+03  0.6041E+03
      1.093  0.1967E+03  0.6088E+03
      1.117  0.1819E+03  0.6132E+03
      1.141  0.1733E+03  0.6173E+03
      1.164  0.1814E+03  0.6217E+03
      1.188  0.1775E+03  0.6259E+03
      1.212  0.1733E+03  0.6301E+03
      1.236  0.1838E+03  0.6344E+03
      1.260  0.1937E+03  0.6391E+03
      1.284  0.2020E+03  0.6439E+03
      1.308  0.2172E+03  0.6491E+03
      1.332  0.2266E+03  0.6545E+03
      1.356  0.2258E+03  0.6599E+03
      1.380  0.2315E+03  0.6655E+03
      1.404  0.2345E+03  0.6711E+03
      1.427  0.2280E+03  0.6765E+03
      1.451  0.2242E+03  0.6819E+03
      1.475  0.2275E+03  0.6873E+03
      1.499  0.2282E+03  0.6928E+03
      1.523  0.2260E+03  0.6982E+03
      1.547  0.2178E+03  0.7034E+03
      1.571  0.2033E+03  0.7083E+03
      1.595  0.1981E+03  0.7130E+03
      1.619  0.1977E+03  0.7177E+03
      1.643  0.1957E+03  0.7224E+03
      1.667  0.1962E+03  0.7271E+03
      1.691  0.2014E+03  0.7319E+03
      1.714  0.2038E+03  0.7368E+03
      1.738  0.1927E+03  0.7414E+03
      1.762  0.1848E+03  0.7458E+03
      1.786  0.1956E+03  0.7505E+03
      1.810  0.2050E+03  0.7554E+03
      1.834  0.1912E+03  0.7600E+03
      1.858  0.1677E+03  0.7640E+03
      1.882  0.1548E+03  0.7677E+03
      1.906  0.1586E+03  0.7715E+03
      1.930  0.1590E+03  0.7753E+03
      1.954  0.1492E+03  0.7788E+03
      1.977  0.1515E+03  0.7824E+03
      2.001  0.1524E+03  0.7861E+03
      2.025  0.1508E+03  0.7897E+03
      2.049  0.1534E+03  0.7934E+03
      2.073  0.1569E+03  0.7971E+03
      2.097  0.1614E+03  0.8010E+03
      2.121  0.1674E+03  0.8050E+03
      2.145  0.1793E+03  0.8093E+03
      2.169  0.1931E+03  0.8139E+03
      2.193  0.1969E+03  0.8186E+03
      2.217  0.1895E+03  0.8231E+03
      2.240  0.1895E+03  0.8277E+03
      2.264  0.1962E+03  0.8323E+03
      2.288  0.1922E+03  0.8369E+03
      2.312  0.1913E+03  0.8415E+03
      2.336  0.1818E+03  0.8459E+03
      2.360  0.1614E+03  0.8497E+03
      2.384  0.1524E+03  0.8534E+03
      2.408  0.1558E+03  0.8571E+03
      2.432  0.1483E+03  0.8606E+03
      2.456  0.1355E+03  0.8639E+03
      2.480  0.1268E+03  0.8669E+03
      2.504  0.1204E+03  0.8698E+03
      2.527  0.1331E+03  0.8730E+03
      2.551  0.1509E+03  0.8766E+03
      2.575  0.1505E+03  0.8802E+03
      2.599  0.1356E+03  0.8834E+03
      2.623  0.1303E+03  0.8865E+03
      2.647  0.1466E+03  0.8900E+03
      2.671  0.1545E+03  0.8937E+03
      2.695  0.1505E+03  0.8973E+03
      2.719  0.1337E+03  0.9005E+03
      2.743  0.1196E+03  0.9034E+03
      2.767  0.1239E+03  0.9064E+03
      2.790  0.1337E+03  0.9096E+03
      2.814  0.1281E+03  0.9126E+03
      2.838  0.1271E+03  0.9157E+03
      2.862  0.1369E+03  0.9189E+03
      2.886  0.1425E+03  0.9223E+03
      2.910  0.1426E+03  0.9257E+03
      2.934  0.1433E+03  0.9292E+03
      2.958  0.1493E+03  0.9327E+03
      2.982  0.1613E+03  0.9366E+03
      3.006  0.1602E+03  0.9404E+03
      3.030  0.1400E+03  0.9438E+03
      3.053  0.1242E+03  0.9468E+03
      3.077  0.1287E+03  0.9498E+03
      3.101  0.1370E+03  0.9531E+03
      3.125  0.1380E+03  0.9564E+03
      3.149  0.1384E+03  0.9597E+03
      3.173  0.1406E+03  0.9631E+03
      3.197  0.1415E+03  0.9665E+03
      3.221  0.1362E+03  0.9697E+03
      3.245  0.1312E+03  0.9729E+03
      3.269  0.1313E+03  0.9760E+03
      3.293  0.1260E+03  0.9790E+03
      3.317  0.1116E+03  0.9817E+03
      3.340  0.9928E+02  0.9840E+03
      3.364  0.8746E+02  0.9861E+03
      3.388  0.6957E+02  0.9878E+03
      3.412  0.7020E+02  0.9895E+03
      3.436  0.8783E+02  0.9916E+03
      3.460  0.1021E+03  0.9940E+03
      3.484  0.1051E+03  0.9965E+03
      3.508  0.9624E+02  0.9988E+03
      3.532  0.7664E+02  0.1001E+04
      3.556  0.4212E+02  0.1002E+04
      3.580  0.1213E+02  0.1002E+04
      3.603  0.1448E+01  0.1002E+04
      3.627  0.6059E-01  0.1002E+04
      3.651  0.8075E-03  0.1002E+04
      3.675  0.3253E-05  0.1002E+04
      3.699  0.3854E-08  0.1002E+04
      3.723  0.1321E-11  0.1002E+04
      3.747  0.0000E+00  0.1002E+04
      3.771  0.0000E+00  0.1002E+04
      3.795  0.0000E+00  0.1002E+04
      3.819  0.0000E+00  0.1002E+04
      3.843  0.0000E+00  0.1002E+04
      3.866  0.0000E+00  0.1002E+04
