Li                                      
           1
    21.000500    0.000000    0.000000
     0.000000   21.000500    0.000000
     0.000000    0.000000   21.000500
   Li
   500
Direct configuration=     1
   0.99983778  0.98989629  0.00991256
   0.01684279  0.13511105  0.09613621
   0.01015000  0.20277543  0.22266266
   0.01211658  0.34115752  0.31246269
   0.99335716  0.41590451  0.38242166
   0.01358044  0.52299125  0.47341738
   0.00877785  0.61509448  0.60896783
   0.99896680  0.70968008  0.70697124
   0.99958414  0.80458857  0.82514411
   0.99541643  0.90056812  0.90616897
   0.10332707  0.00243942  0.09424936
   0.07821514  0.10420964  0.22303238
   0.09192213  0.19529365  0.32408554
   0.10722436  0.32368177  0.39372872
   0.07084025  0.43574443  0.50406732
   0.08588983  0.51244992  0.60200402
   0.10001250  0.60301262  0.69888526
   0.11634493  0.67928315  0.80385400
   0.10412289  0.76862383  0.89885971
   0.10346081  0.87927386  0.98362166
   0.18929998  0.01392706  0.20011428
   0.19095293  0.10255259  0.28231268
   0.20085578  0.19501741  0.40676689
   0.20336172  0.31450131  0.51203883
   0.18753017  0.39275173  0.60853898
   0.20036456  0.48573376  0.69190255
   0.18660154  0.59725805  0.80241318
   0.20636833  0.67714086  0.91339884
   0.20061677  0.80515573  0.97681212
   0.20045951  0.90132169  0.07562103
   0.30088383  0.01296563  0.29439534
   0.28618545  0.10215878  0.39663981
   0.26780773  0.18808991  0.48251009
   0.30292897  0.30038622  0.60281386
   0.31182997  0.38966994  0.70375947
   0.31241351  0.49835067  0.80989585
   0.31410664  0.59146050  0.90145779
   0.29873504  0.69447835  0.99998626
   0.28809734  0.80109558  0.08732281
   0.29704158  0.90220649  0.17426405
   0.39434168  0.99708858  0.40523281
   0.38746387  0.10059540  0.51749446
   0.39214674  0.18433748  0.57483258
   0.42899894  0.27757222  0.68267808
   0.39786758  0.36777025  0.78304688
   0.40594828  0.47827929  0.88577340
   0.41414724  0.57923863  0.01125108
   0.41307483  0.70801650  0.10792834
   0.40416297  0.80307447  0.18593455
   0.38812911  0.88818548  0.29749926
   0.50638384  0.99599672  0.50382213
   0.50270014  0.05546486  0.59860254
   0.51005576  0.19156183  0.69152124
   0.52371058  0.31123739  0.78870036
   0.51632709  0.38300169  0.87228100
   0.49334122  0.50154652  0.98104436
   0.50533719  0.57355347  0.10670811
   0.51677635  0.69865127  0.19136126
   0.51414899  0.79322736  0.29808639
   0.47978407  0.88393382  0.40348628
   0.60683950  0.98701256  0.62147412
   0.60978429  0.09970618  0.70060947
   0.61722797  0.19693608  0.77936323
   0.60975378  0.33838892  0.86389913
   0.60672988  0.39438659  0.01632204
   0.59943079  0.50701388  0.10459532
   0.60280217  0.60698944  0.21198317
   0.61102250  0.70644321  0.29856259
   0.60971348  0.82654474  0.42581535
   0.61247579  0.91369183  0.49841061
   0.71828143  0.98900593  0.70895712
   0.69315264  0.08170373  0.80648327
   0.69794698  0.20610313  0.90609617
   0.70082735  0.28913477  0.00973531
   0.68856990  0.39712674  0.11813213
   0.68421676  0.50649312  0.22189784
   0.69133471  0.61222956  0.30495556
   0.67668039  0.70547974  0.40686726
   0.73051024  0.80589530  0.48706900
   0.68334743  0.88177067  0.60290821
   0.76550869  0.00737137  0.81220512
   0.79888390  0.09774058  0.93410604
   0.79649318  0.20724332  0.02162625
   0.80385723  0.30037846  0.11248643
   0.81571617  0.41377541  0.21501592
   0.79413216  0.53003372  0.31170132
   0.79891756  0.63872019  0.38684799
   0.79096300  0.72373465  0.49646188
   0.79377114  0.80684861  0.62411826
   0.79852695  0.90475201  0.68844598
   0.89600150  0.98504077  0.89808593
   0.92685457  0.12066238  0.00445384
   0.93787824  0.21256807  0.11601390
   0.91499909  0.29362600  0.23850849
   0.90021193  0.40574207  0.32814313
   0.90668129  0.53934247  0.40418772
   0.89465835  0.61302053  0.48980401
   0.89684064  0.70670832  0.60488386
   0.91337956  0.81675441  0.70409349
   0.90459211  0.90817221  0.80497994
   0.09059812  0.12071950  0.00807144
   0.11533728  0.21459658  0.12953158
   0.11594485  0.27962575  0.23205800
   0.11323619  0.41237528  0.30973785
   0.09668323  0.52819232  0.37974854
   0.10357960  0.64456128  0.50030749
   0.09176928  0.71029199  0.60543544
   0.12539911  0.81488650  0.73566110
   0.08647649  0.90784433  0.82719709
   0.10512551  0.01161853  0.90154365
   0.18729177  0.10069469  0.11529180
   0.20896560  0.17217566  0.20445972
   0.21041827  0.29755290  0.31646538
   0.19170105  0.41793870  0.39058669
   0.16822356  0.51143307  0.48744883
   0.20087344  0.57653881  0.59315214
   0.20120353  0.67928509  0.70261030
   0.22115901  0.76642626  0.80783152
   0.19947507  0.88411976  0.88360239
   0.19017447  0.99681172  0.98529895
   0.31293067  0.08023925  0.18550310
   0.28555690  0.18568552  0.29476806
   0.29061034  0.30915255  0.39515976
   0.27629777  0.41685785  0.50332368
   0.27639948  0.47491700  0.59486896
   0.30396888  0.58950401  0.70468760
   0.30042478  0.68547763  0.78492984
   0.30604154  0.78682974  0.88602828
   0.28939412  0.88025308  0.97926024
   0.27716047  0.98654693  0.08327582
   0.39534685  0.10882432  0.29943946
   0.37015717  0.18681857  0.39580282
   0.38250008  0.29450542  0.49520577
   0.41609179  0.38963575  0.57572144
   0.40954497  0.47641270  0.69841633
   0.41695000  0.60933160  0.78652716
   0.41988345  0.68403087  0.89573628
   0.39547284  0.78847619  0.97865277
   0.38635036  0.89253178  0.06778025
   0.42060455  0.97689891  0.20163311
   0.49221473  0.08321912  0.39645314
   0.50853295  0.17603986  0.47819953
   0.48844603  0.29201754  0.57899571
   0.51532541  0.39312847  0.66358301
   0.50072020  0.48858590  0.78340950
   0.49824325  0.58186738  0.87567055
   0.49255743  0.67789146  0.01106900
   0.49392254  0.80100200  0.07478427
   0.51341529  0.87445202  0.18394228
   0.48420425  0.96956718  0.29840459
   0.59212880  0.07382624  0.49827786
   0.57585538  0.18449968  0.58477639
   0.60773152  0.26917882  0.66658288
   0.61329715  0.40115038  0.79275775
   0.58704868  0.48589488  0.87061178
   0.59765789  0.56572924  0.01223030
   0.59747397  0.68637307  0.11764443
   0.62746880  0.79051918  0.20589218
   0.58666317  0.89950599  0.28695391
   0.61029432  0.99365153  0.37721184
   0.69648816  0.10357053  0.58500713
   0.68308412  0.19508159  0.67891953
   0.71528992  0.29297520  0.77568674
   0.69571161  0.38184627  0.90649894
   0.68169178  0.47871627  0.00502991
   0.69571310  0.60157886  0.12589075
   0.70876322  0.71322018  0.21274169
   0.69789758  0.81324045  0.31997966
   0.71165003  0.90064992  0.41401054
   0.71619258  0.97393344  0.51853305
   0.79635568  0.09916737  0.72356843
   0.79984991  0.18814466  0.77694306
   0.80300941  0.28859723  0.89212036
   0.79990400  0.37969018  0.00579284
   0.77975925  0.50429470  0.11696936
   0.78491791  0.61689804  0.21287527
   0.78808582  0.74110605  0.28588506
   0.80274338  0.80960615  0.40463975
   0.82737304  0.88646703  0.53454939
   0.81280803  0.00569399  0.59893779
   0.91100823  0.10078381  0.81144141
   0.88566823  0.19690651  0.91115090
   0.90901533  0.27679105  0.02295025
   0.89368599  0.37999711  0.13889614
   0.88756314  0.49780425  0.21283970
   0.90870546  0.64673777  0.31083411
   0.90679319  0.70586054  0.39377706
   0.90042615  0.79903746  0.50516540
   0.90681005  0.89732402  0.59942154
   0.90837295  0.99887178  0.69996864
   0.00659588  0.10272373  0.94033367
   0.02946114  0.22345663  0.98281805
   0.01314837  0.31708565  0.13892064
   0.01082960  0.42558603  0.20942550
   0.00972370  0.51438636  0.29228167
   0.01003806  0.64474674  0.38940257
   0.00472259  0.70679991  0.52631096
   0.99508456  0.80757100  0.61511252
   0.02871609  0.90325276  0.72514821
   0.99970656  0.99613738  0.81056157
   0.20599818  0.19199137  0.98398457
   0.19066236  0.30712998  0.08962244
   0.19195515  0.39880419  0.20617355
   0.19768381  0.52066550  0.30510787
   0.19827948  0.62313576  0.40496146
   0.22095702  0.72167066  0.50654131
   0.20713778  0.78971434  0.63486524
   0.21458764  0.91336900  0.71448755
   0.20472025  0.01175456  0.80134838
   0.17167172  0.07734894  0.88697103
   0.26580248  0.20511022  0.10248180
   0.28822638  0.30970113  0.22168481
   0.29174793  0.39357466  0.30744988
   0.27446701  0.51724071  0.39930904
   0.30603314  0.59744377  0.54005480
   0.30097980  0.68262291  0.60873430
   0.31641000  0.77875935  0.69715683
   0.30427791  0.88382843  0.79683204
   0.29950406  0.01071053  0.90070666
   0.30916227  0.11185581  0.98718055
   0.38315095  0.18339134  0.20208366
   0.38620428  0.28561523  0.31021698
   0.39553987  0.41052600  0.40470442
   0.40263052  0.48849924  0.49551978
   0.41006611  0.57417524  0.59422817
   0.39935890  0.68395633  0.71113651
   0.41232882  0.78443721  0.80024682
   0.41162902  0.90134577  0.89358128
   0.39077696  0.00295340  0.96789219
   0.39987032  0.09778300  0.06073540
   0.47697346  0.18905180  0.31648460
   0.48783858  0.29437821  0.39522221
   0.49265614  0.39378481  0.49585326
   0.50433594  0.50660981  0.58746137
   0.49769611  0.58556059  0.70655634
   0.50899642  0.71308856  0.80370068
   0.51172192  0.80487334  0.91860377
   0.51102704  0.91572726  0.00120996
   0.48918580  0.00669607  0.10267756
   0.47998821  0.10960133  0.22214296
   0.57930628  0.16435779  0.38086328
   0.60958965  0.27412498  0.47261282
   0.59689699  0.37691061  0.59080343
   0.62177588  0.49674811  0.66752473
   0.60035052  0.57572837  0.77042960
   0.59429838  0.66129249  0.89680301
   0.57538392  0.80815653  0.99760943
   0.58228216  0.90164612  0.10338300
   0.57678393  0.00313265  0.17719025
   0.60273138  0.06326880  0.29235239
   0.67925859  0.18838068  0.47390189
   0.70477066  0.30064384  0.56932885
   0.69848897  0.37988397  0.67629240
   0.71301277  0.49818682  0.79675943
   0.69635651  0.57195972  0.88531819
   0.67101511  0.67991896  0.00150873
   0.65975445  0.80039005  0.09814859
   0.68811533  0.90694136  0.18887658
   0.70620199  0.98550738  0.28336157
   0.71611741  0.07827010  0.38715882
   0.79576112  0.19745191  0.58226150
   0.79446512  0.31735194  0.68434563
   0.80494958  0.39927520  0.80162468
   0.80222466  0.46685470  0.89888248
   0.77444727  0.58619069  0.99758974
   0.76887217  0.71195859  0.09904389
   0.79909375  0.84353009  0.18945883
   0.79486268  0.89729900  0.29283850
   0.81313608  0.98742008  0.41132872
   0.78751085  0.09582526  0.48957416
   0.90059026  0.19113663  0.68849076
   0.90170337  0.26569361  0.77456234
   0.90023504  0.35244877  0.90088754
   0.87688249  0.48844252  0.02263231
   0.87408187  0.61532019  0.07785898
   0.89373590  0.70618368  0.18429333
   0.89211760  0.79694072  0.29214766
   0.90210563  0.88202139  0.38410515
   0.89489746  0.99258425  0.49323887
   0.89816505  0.10343940  0.58781806
   0.99998742  0.18497971  0.80334716
   0.00318060  0.29892651  0.86185373
   0.99259205  0.39579346  0.01596673
   0.98458120  0.51535513  0.11320017
   0.98450148  0.60363195  0.21062721
   0.00261135  0.73027476  0.31834313
   0.03229634  0.76780892  0.40726444
   0.99226650  0.90042540  0.48719763
   0.98954549  0.97153958  0.59918200
   0.99656302  0.08807319  0.68200375
   0.12092612  0.21121617  0.89830347
   0.10626464  0.31976967  0.99321154
   0.09950214  0.41129971  0.10448851
   0.12402675  0.53687903  0.21127484
   0.10600880  0.65435764  0.30678985
   0.11166094  0.75112974  0.41379202
   0.10253423  0.82103771  0.51121860
   0.12038318  0.90955821  0.62721321
   0.11080270  0.99621065  0.72592124
   0.06402670  0.10525236  0.80734229
   0.29851751  0.30567554  0.99988205
   0.30800815  0.39906331  0.12758421
   0.28673448  0.51319238  0.20325642
   0.29255619  0.62928449  0.29520364
   0.31672567  0.69087398  0.39701803
   0.31351458  0.81342944  0.52584136
   0.29704686  0.89745559  0.61026823
   0.31150029  0.01167393  0.70720027
   0.32051731  0.10856147  0.80830725
   0.30125120  0.18770409  0.88767078
   0.39552416  0.29474331  0.09803013
   0.39917606  0.39062367  0.22645965
   0.37722859  0.50610744  0.29785582
   0.39156003  0.63339132  0.40712235
   0.40156418  0.70626813  0.52034591
   0.39501796  0.80279375  0.59473292
   0.39739729  0.88749544  0.71165810
   0.41139212  0.01216387  0.80549844
   0.41306485  0.13950815  0.90470386
   0.39915174  0.22934432  0.01336870
   0.49633060  0.27826288  0.21461819
   0.50366857  0.40408450  0.31767107
   0.49257093  0.52074160  0.39667207
   0.50070530  0.61421556  0.50612818
   0.50174294  0.69563834  0.61486095
   0.48610949  0.79672481  0.68620609
   0.50535018  0.90036148  0.80922155
   0.49051691  0.02860547  0.89747005
   0.50955724  0.12727234  0.98539865
   0.49618304  0.19962732  0.10410356
   0.59907880  0.29886354  0.30028875
   0.59276827  0.41686780  0.39303666
   0.59946502  0.50099081  0.49335778
   0.61312133  0.60892661  0.59925698
   0.60013451  0.70609959  0.69710899
   0.59920103  0.78732856  0.81635272
   0.59425343  0.93846124  0.88914520
   0.62298299  0.02710078  0.00613134
   0.57511941  0.13159419  0.10677585
   0.62272728  0.18458400  0.22018692
   0.69685708  0.31667561  0.38880842
   0.69298694  0.40261447  0.50312854
   0.70759842  0.51568242  0.58239097
   0.70157412  0.59835098  0.70711146
   0.70093716  0.68019041  0.79359734
   0.69214119  0.80229016  0.88475543
   0.69129354  0.90009298  0.01995601
   0.69515929  0.02232062  0.11042124
   0.71342437  0.09544939  0.20591000
   0.71961295  0.19908612  0.29241176
   0.80087501  0.30175693  0.50316671
   0.81644349  0.42708969  0.57071992
   0.81737206  0.48983536  0.70161057
   0.81345300  0.59232365  0.79342278
   0.77904586  0.69588254  0.92194181
   0.79323745  0.80745301  0.99279160
   0.77898706  0.91178139  0.09829379
   0.80266863  0.98836874  0.19285953
   0.81514516  0.08171437  0.28066682
   0.79464488  0.20722277  0.38521718
   0.91412318  0.31431638  0.60822210
   0.90566016  0.39832449  0.68050323
   0.92216704  0.49424494  0.79048550
   0.89225435  0.58295173  0.91011870
   0.87899706  0.68903015  0.00009423
   0.90117757  0.79869251  0.08406040
   0.91945109  0.90953398  0.18914301
   0.91308423  0.99660550  0.29300341
   0.91070816  0.09688221  0.41465567
   0.89924403  0.19998355  0.50162307
   0.00370952  0.29301793  0.69515427
   0.00220122  0.38865022  0.79222270
   0.98394783  0.47488984  0.89537423
   0.96780046  0.58285507  0.01371766
   0.99014154  0.69091470  0.09653373
   0.01600301  0.81841248  0.19289793
   0.00576195  0.90445526  0.29623467
   0.00299779  0.99268011  0.41711608
   0.98696443  0.08649058  0.49955004
   0.98814590  0.19200398  0.57431655
   0.12394859  0.28613043  0.78166613
   0.09566291  0.41911758  0.87983297
   0.07073124  0.48730808  0.98907503
   0.09488034  0.59144788  0.09426136
   0.09542070  0.71385541  0.18676686
   0.12863011  0.82116083  0.29580332
   0.09734921  0.88397424  0.40944332
   0.10384460  0.97587030  0.50127420
   0.09633211  0.07483702  0.60780860
   0.08283674  0.18682502  0.68629017
   0.20974471  0.29579644  0.89141119
   0.21172894  0.41159377  0.01170705
   0.21222521  0.50219610  0.09997391
   0.20101083  0.62602202  0.19065424
   0.20762635  0.74373780  0.29619938
   0.21429181  0.81111558  0.42133508
   0.20442483  0.88585873  0.50867553
   0.20512038  0.98739216  0.60949504
   0.20452449  0.11514880  0.71706131
   0.20475194  0.16660346  0.80134740
   0.38736803  0.38619979  0.97365940
   0.41918002  0.47764514  0.10930905
   0.39744659  0.61312229  0.18785898
   0.41300078  0.72969407  0.29496561
   0.39792922  0.81040936  0.41310877
   0.40334802  0.88123310  0.49717332
   0.40508217  0.97547689  0.61725118
   0.41503826  0.13398396  0.70327562
   0.41057203  0.20197833  0.79991891
   0.39460012  0.31035121  0.88611767
   0.48277574  0.39475995  0.09514991
   0.50983106  0.47382038  0.19097986
   0.48558429  0.59682692  0.29302935
   0.50545602  0.71948483  0.38979853
   0.49711721  0.78479767  0.48087367
   0.49442390  0.90527696  0.60978419
   0.49208083  0.97835323  0.71416167
   0.51956735  0.10213822  0.80331774
   0.52480950  0.23015266  0.89466525
   0.50643476  0.30036905  0.98876299
   0.58539831  0.38250038  0.18600004
   0.60175796  0.50250447  0.32062681
   0.58862256  0.60212316  0.40313556
   0.60431472  0.72526624  0.50592935
   0.57447385  0.78805550  0.61055455
   0.61359454  0.89805067  0.72471836
   0.61450341  0.01267610  0.78544073
   0.61225303  0.11053225  0.91722653
   0.61761399  0.24153279  0.00425371
   0.59217490  0.28716102  0.11204993
   0.67776884  0.41634121  0.31674861
   0.70439793  0.51174123  0.40347781
   0.69892702  0.59936897  0.48776586
   0.70735810  0.70123232  0.59747163
   0.70571350  0.79204010  0.73026317
   0.70455617  0.90980771  0.80798842
   0.69016383  0.01635221  0.92615642
   0.68049388  0.13212944  0.05369321
   0.69504893  0.20196980  0.12448078
   0.71703449  0.31706296  0.22627876
   0.78728639  0.42890691  0.38347996
   0.79431115  0.50912828  0.45847610
   0.79663765  0.59001329  0.61197853
   0.82460185  0.68855390  0.69504124
   0.80169557  0.80022664  0.80514963
   0.79728116  0.90677076  0.90297515
   0.79407934  0.01219879  0.02124647
   0.81426425  0.12892225  0.10457939
   0.82947603  0.22857328  0.21773017
   0.78646996  0.33877779  0.32463434
   0.90768406  0.41811635  0.49359973
   0.91652284  0.51212284  0.58372299
   0.92230413  0.60960744  0.70215849
   0.87678761  0.68541623  0.80115048
   0.86883429  0.79456730  0.88291128
   0.90653965  0.89671541  0.01468731
   0.90123087  0.00624576  0.08640980
   0.90607374  0.09746035  0.20321097
   0.90185782  0.19142679  0.31309237
   0.90129446  0.32317213  0.41349343
   0.98713650  0.41827772  0.58179264
   0.00142885  0.48870799  0.70343987
   0.00948991  0.57315017  0.80938777
   0.98979380  0.68642992  0.89902045
   0.97038087  0.77858574  0.97452478
   0.99684329  0.89980271  0.08299259
   0.00040289  0.02410325  0.17614906
   0.98266669  0.08468266  0.30194602
   0.00342289  0.21369578  0.39618990
   0.00201695  0.28870147  0.48661860
   0.07213689  0.39017545  0.67811662
   0.09691053  0.47668473  0.79714218
   0.08790160  0.59153474  0.91530305
   0.09944709  0.68541243  0.01777407
   0.10230613  0.80993110  0.07457231
   0.12146442  0.91247945  0.18929446
   0.08152629  0.98107529  0.30751908
   0.08619859  0.10905056  0.40003069
   0.10538898  0.18973905  0.51102100
   0.08913352  0.30100426  0.58512212
   0.17796027  0.39610985  0.78152475
   0.21159929  0.50864315  0.90507342
   0.21208496  0.58024110  0.00341744
   0.17946631  0.70891645  0.07886407
   0.21730002  0.80030008  0.17985768
   0.20768486  0.88541690  0.29713929
   0.19055623  0.99413718  0.40509270
   0.19899189  0.07749225  0.52380805
   0.18915417  0.20244725  0.61048099
   0.20417795  0.30517585  0.68789088
   0.29455136  0.39282910  0.88063570
   0.32982498  0.47728291  0.01043174
   0.30403522  0.59490100  0.08625649
   0.29622050  0.71644029  0.18871339
   0.29948041  0.81184768  0.27841134
   0.30826897  0.91361267  0.39357442
   0.31409168  0.98969713  0.51625121
   0.28435137  0.10465860  0.62219757
   0.28916511  0.20246746  0.69259723
   0.28835720  0.27539224  0.78195931
