 500 500   0   0
  0.2029568E+02  0.2165000E-08  0.2165000E-08  0.2165000E-08  0.5000000E-15
  1.000000000000000E-004
  CAR 
 Li                                      
      3.34567475     -3.42857831  301      0.38146714      1.00000000
     -3.429  0.0000E+00  0.0000E+00
     -3.406  0.0000E+00  0.0000E+00
     -3.383  0.0000E+00  0.0000E+00
     -3.361  0.0000E+00  0.0000E+00
     -3.338  0.0000E+00  0.0000E+00
     -3.316  0.0000E+00  0.0000E+00
     -3.293  0.1967E-13  0.4441E-15
     -3.271  0.6778E-10  0.1531E-11
     -3.248  0.8353E-07  0.1888E-08
     -3.225  0.3403E-04  0.7703E-06
     -3.203  0.4625E-02  0.1052E-03
     -3.180  0.2122E+00  0.4896E-02
     -3.158  0.3336E+01  0.8023E-01
     -3.135  0.1830E+02  0.4934E+00
     -3.112  0.3553E+02  0.1296E+01
     -3.090  0.2462E+02  0.1852E+01
     -3.067  0.6621E+01  0.2001E+01
     -3.045  0.8108E+01  0.2184E+01
     -3.022  0.3945E+02  0.3075E+01
     -3.000  0.8650E+02  0.5028E+01
     -2.977  0.8536E+02  0.6956E+01
     -2.954  0.3849E+02  0.7825E+01
     -2.932  0.1101E+02  0.8073E+01
     -2.909  0.2548E+02  0.8649E+01
     -2.887  0.7245E+02  0.1028E+02
     -2.864  0.9458E+02  0.1242E+02
     -2.841  0.5536E+02  0.1367E+02
     -2.819  0.1798E+02  0.1408E+02
     -2.796  0.3012E+02  0.1476E+02
     -2.774  0.8316E+02  0.1663E+02
     -2.751  0.1192E+03  0.1933E+02
     -2.729  0.8605E+02  0.2127E+02
     -2.706  0.3242E+02  0.2200E+02
     -2.683  0.3346E+02  0.2276E+02
     -2.661  0.9631E+02  0.2493E+02
     -2.638  0.1562E+03  0.2846E+02
     -2.616  0.1447E+03  0.3173E+02
     -2.593  0.7775E+02  0.3348E+02
     -2.571  0.2515E+02  0.3405E+02
     -2.548  0.3016E+02  0.3473E+02
     -2.525  0.7519E+02  0.3643E+02
     -2.503  0.9249E+02  0.3852E+02
     -2.480  0.5386E+02  0.3973E+02
     -2.458  0.3111E+02  0.4044E+02
     -2.435  0.7476E+02  0.4212E+02
     -2.412  0.1385E+03  0.4525E+02
     -2.390  0.1481E+03  0.4860E+02
     -2.367  0.1011E+03  0.5088E+02
     -2.345  0.5346E+02  0.5209E+02
     -2.322  0.7275E+02  0.5373E+02
     -2.300  0.1533E+03  0.5719E+02
     -2.277  0.2052E+03  0.6182E+02
     -2.254  0.1887E+03  0.6608E+02
     -2.232  0.1200E+03  0.6879E+02
     -2.209  0.4965E+02  0.6991E+02
     -2.187  0.3831E+02  0.7078E+02
     -2.164  0.7830E+02  0.7255E+02
     -2.141  0.9087E+02  0.7460E+02
     -2.119  0.5296E+02  0.7580E+02
     -2.096  0.3873E+02  0.7667E+02
     -2.074  0.9219E+02  0.7875E+02
     -2.051  0.1609E+03  0.8239E+02
     -2.029  0.1708E+03  0.8624E+02
     -2.006  0.1165E+03  0.8887E+02
     -1.983  0.6071E+02  0.9024E+02
     -1.961  0.8456E+02  0.9215E+02
     -1.938  0.1683E+03  0.9595E+02
     -1.916  0.2110E+03  0.1007E+03
     -1.893  0.1809E+03  0.1048E+03
     -1.871  0.1079E+03  0.1072E+03
     -1.848  0.5945E+02  0.1086E+03
     -1.825  0.9376E+02  0.1107E+03
     -1.803  0.1499E+03  0.1141E+03
     -1.780  0.1465E+03  0.1174E+03
     -1.758  0.9450E+02  0.1195E+03
     -1.735  0.7294E+02  0.1212E+03
     -1.712  0.1262E+03  0.1240E+03
     -1.690  0.1916E+03  0.1283E+03
     -1.667  0.2065E+03  0.1330E+03
     -1.645  0.1520E+03  0.1364E+03
     -1.622  0.8258E+02  0.1383E+03
     -1.600  0.9935E+02  0.1406E+03
     -1.577  0.1749E+03  0.1445E+03
     -1.554  0.2116E+03  0.1493E+03
     -1.532  0.1751E+03  0.1532E+03
     -1.509  0.9935E+02  0.1555E+03
     -1.487  0.6374E+02  0.1569E+03
     -1.464  0.1025E+03  0.1592E+03
     -1.441  0.1454E+03  0.1625E+03
     -1.419  0.1389E+03  0.1657E+03
     -1.396  0.9174E+02  0.1677E+03
     -1.374  0.7685E+02  0.1695E+03
     -1.351  0.1196E+03  0.1722E+03
     -1.329  0.1508E+03  0.1756E+03
     -1.306  0.1303E+03  0.1785E+03
     -1.283  0.9355E+02  0.1806E+03
     -1.261  0.1288E+03  0.1835E+03
     -1.238  0.2160E+03  0.1884E+03
     -1.216  0.2663E+03  0.1944E+03
     -1.193  0.2615E+03  0.2003E+03
     -1.170  0.2262E+03  0.2054E+03
     -1.148  0.1639E+03  0.2091E+03
     -1.125  0.1349E+03  0.2122E+03
     -1.103  0.1763E+03  0.2162E+03
     -1.080  0.2093E+03  0.2209E+03
     -1.058  0.1804E+03  0.2250E+03
     -1.035  0.1173E+03  0.2276E+03
     -1.012  0.9152E+02  0.2297E+03
     -0.990  0.1255E+03  0.2325E+03
     -0.967  0.1655E+03  0.2362E+03
     -0.945  0.1608E+03  0.2399E+03
     -0.922  0.1295E+03  0.2428E+03
     -0.900  0.1600E+03  0.2464E+03
     -0.877  0.2191E+03  0.2514E+03
     -0.854  0.2286E+03  0.2565E+03
     -0.832  0.2005E+03  0.2610E+03
     -0.809  0.1459E+03  0.2643E+03
     -0.787  0.8365E+02  0.2662E+03
     -0.764  0.7167E+02  0.2679E+03
     -0.741  0.8876E+02  0.2699E+03
     -0.719  0.8294E+02  0.2717E+03
     -0.696  0.9913E+02  0.2740E+03
     -0.674  0.1728E+03  0.2779E+03
     -0.651  0.2300E+03  0.2831E+03
     -0.629  0.2553E+03  0.2888E+03
     -0.606  0.2546E+03  0.2946E+03
     -0.583  0.2393E+03  0.3000E+03
     -0.561  0.2276E+03  0.3051E+03
     -0.538  0.2215E+03  0.3101E+03
     -0.516  0.2358E+03  0.3154E+03
     -0.493  0.2618E+03  0.3214E+03
     -0.470  0.2517E+03  0.3270E+03
     -0.448  0.2079E+03  0.3317E+03
     -0.425  0.1613E+03  0.3354E+03
     -0.403  0.1328E+03  0.3384E+03
     -0.380  0.1303E+03  0.3413E+03
     -0.358  0.1362E+03  0.3444E+03
     -0.335  0.1518E+03  0.3478E+03
     -0.312  0.1880E+03  0.3521E+03
     -0.290  0.2088E+03  0.3568E+03
     -0.267  0.1977E+03  0.3612E+03
     -0.245  0.1777E+03  0.3653E+03
     -0.222  0.1694E+03  0.3691E+03
     -0.200  0.1948E+03  0.3735E+03
     -0.177  0.2315E+03  0.3787E+03
     -0.154  0.2453E+03  0.3842E+03
     -0.132  0.2443E+03  0.3898E+03
     -0.109  0.2251E+03  0.3949E+03
     -0.087  0.1975E+03  0.3993E+03
     -0.064  0.2004E+03  0.4038E+03
     -0.041  0.2126E+03  0.4086E+03
     -0.019  0.1960E+03  0.4131E+03
      0.004  0.1695E+03  0.4169E+03
      0.026  0.1734E+03  0.4208E+03
      0.049  0.2002E+03  0.4253E+03
      0.071  0.2173E+03  0.4302E+03
      0.094  0.2209E+03  0.4352E+03
      0.117  0.2216E+03  0.4402E+03
      0.139  0.2233E+03  0.4453E+03
      0.162  0.2207E+03  0.4503E+03
      0.184  0.2158E+03  0.4551E+03
      0.207  0.2134E+03  0.4599E+03
      0.230  0.2022E+03  0.4645E+03
      0.252  0.1966E+03  0.4689E+03
      0.275  0.2172E+03  0.4739E+03
      0.297  0.2425E+03  0.4793E+03
      0.320  0.2538E+03  0.4851E+03
      0.342  0.2459E+03  0.4906E+03
      0.365  0.2412E+03  0.4961E+03
      0.388  0.2381E+03  0.5014E+03
      0.410  0.2277E+03  0.5066E+03
      0.433  0.2280E+03  0.5117E+03
      0.455  0.2318E+03  0.5170E+03
      0.478  0.2419E+03  0.5224E+03
      0.500  0.2601E+03  0.5283E+03
      0.523  0.2687E+03  0.5344E+03
      0.546  0.2685E+03  0.5404E+03
      0.568  0.2740E+03  0.5466E+03
      0.591  0.2860E+03  0.5531E+03
      0.613  0.2826E+03  0.5594E+03
      0.636  0.2736E+03  0.5656E+03
      0.659  0.2739E+03  0.5718E+03
      0.681  0.2729E+03  0.5780E+03
      0.704  0.2540E+03  0.5837E+03
      0.726  0.2314E+03  0.5889E+03
      0.749  0.2091E+03  0.5937E+03
      0.771  0.1964E+03  0.5981E+03
      0.794  0.1947E+03  0.6025E+03
      0.817  0.2041E+03  0.6071E+03
      0.839  0.2074E+03  0.6118E+03
      0.862  0.2007E+03  0.6163E+03
      0.884  0.1883E+03  0.6206E+03
      0.907  0.1866E+03  0.6248E+03
      0.930  0.1985E+03  0.6293E+03
      0.952  0.1997E+03  0.6338E+03
      0.975  0.1942E+03  0.6382E+03
      0.997  0.1949E+03  0.6426E+03
      1.020  0.2013E+03  0.6471E+03
      1.042  0.2190E+03  0.6520E+03
      1.065  0.2247E+03  0.6571E+03
      1.088  0.2217E+03  0.6621E+03
      1.110  0.2316E+03  0.6674E+03
      1.133  0.2412E+03  0.6728E+03
      1.155  0.2402E+03  0.6782E+03
      1.178  0.2353E+03  0.6835E+03
      1.200  0.2325E+03  0.6888E+03
      1.223  0.2329E+03  0.6940E+03
      1.246  0.2301E+03  0.6992E+03
      1.268  0.2300E+03  0.7044E+03
      1.291  0.2216E+03  0.7094E+03
      1.313  0.2020E+03  0.7140E+03
      1.336  0.1994E+03  0.7185E+03
      1.359  0.2140E+03  0.7233E+03
      1.381  0.2179E+03  0.7283E+03
      1.404  0.2098E+03  0.7330E+03
      1.426  0.2063E+03  0.7377E+03
      1.449  0.2043E+03  0.7423E+03
      1.471  0.2007E+03  0.7468E+03
      1.494  0.1919E+03  0.7511E+03
      1.517  0.1834E+03  0.7553E+03
      1.539  0.1808E+03  0.7594E+03
      1.562  0.1764E+03  0.7633E+03
      1.584  0.1721E+03  0.7672E+03
      1.607  0.1748E+03  0.7712E+03
      1.630  0.1775E+03  0.7752E+03
      1.652  0.1726E+03  0.7791E+03
      1.675  0.1652E+03  0.7828E+03
      1.697  0.1671E+03  0.7866E+03
      1.720  0.1637E+03  0.7903E+03
      1.742  0.1547E+03  0.7938E+03
      1.765  0.1584E+03  0.7973E+03
      1.788  0.1695E+03  0.8012E+03
      1.810  0.1775E+03  0.8052E+03
      1.833  0.1818E+03  0.8093E+03
      1.855  0.1915E+03  0.8136E+03
      1.878  0.2048E+03  0.8182E+03
      1.901  0.2047E+03  0.8229E+03
      1.923  0.1914E+03  0.8272E+03
      1.946  0.1872E+03  0.8314E+03
      1.968  0.1970E+03  0.8359E+03
      1.991  0.2062E+03  0.8405E+03
      2.013  0.2020E+03  0.8451E+03
      2.036  0.1850E+03  0.8492E+03
      2.059  0.1730E+03  0.8532E+03
      2.081  0.1736E+03  0.8571E+03
      2.104  0.1704E+03  0.8609E+03
      2.126  0.1528E+03  0.8644E+03
      2.149  0.1404E+03  0.8675E+03
      2.171  0.1385E+03  0.8707E+03
      2.194  0.1439E+03  0.8739E+03
      2.217  0.1489E+03  0.8773E+03
      2.239  0.1510E+03  0.8807E+03
      2.262  0.1552E+03  0.8842E+03
      2.284  0.1574E+03  0.8878E+03
      2.307  0.1609E+03  0.8914E+03
      2.330  0.1603E+03  0.8950E+03
      2.352  0.1588E+03  0.8986E+03
      2.375  0.1634E+03  0.9023E+03
      2.397  0.1645E+03  0.9060E+03
      2.420  0.1533E+03  0.9095E+03
      2.442  0.1416E+03  0.9127E+03
      2.465  0.1393E+03  0.9158E+03
      2.488  0.1473E+03  0.9191E+03
      2.510  0.1576E+03  0.9227E+03
      2.533  0.1618E+03  0.9263E+03
      2.555  0.1536E+03  0.9298E+03
      2.578  0.1450E+03  0.9331E+03
      2.601  0.1554E+03  0.9366E+03
      2.623  0.1649E+03  0.9403E+03
      2.646  0.1645E+03  0.9440E+03
      2.668  0.1565E+03  0.9476E+03
      2.691  0.1486E+03  0.9509E+03
      2.713  0.1479E+03  0.9543E+03
      2.736  0.1632E+03  0.9579E+03
      2.759  0.1775E+03  0.9619E+03
      2.781  0.1688E+03  0.9658E+03
      2.804  0.1515E+03  0.9692E+03
      2.826  0.1457E+03  0.9725E+03
      2.849  0.1518E+03  0.9759E+03
      2.871  0.1514E+03  0.9793E+03
      2.894  0.1463E+03  0.9826E+03
      2.917  0.1438E+03  0.9859E+03
      2.939  0.1333E+03  0.9889E+03
      2.962  0.1221E+03  0.9916E+03
      2.984  0.1230E+03  0.9944E+03
      3.007  0.1255E+03  0.9972E+03
      3.030  0.1156E+03  0.9999E+03
      3.052  0.7056E+02  0.1001E+04
      3.075  0.2145E+02  0.1002E+04
      3.097  0.2789E+01  0.1002E+04
      3.120  0.1416E+00  0.1002E+04
      3.142  0.2640E-02  0.1002E+04
      3.165  0.1734E-04  0.1002E+04
      3.188  0.3905E-07  0.1002E+04
      3.210  0.2963E-10  0.1002E+04
      3.233  0.7375E-14  0.1002E+04
      3.255  0.0000E+00  0.1002E+04
      3.278  0.0000E+00  0.1002E+04
      3.301  0.0000E+00  0.1002E+04
      3.323  0.0000E+00  0.1002E+04
      3.346  0.0000E+00  0.1002E+04
