Li                                      
           1
    21.650000    0.000000    0.000000
     0.000000   21.650000    0.000000
    -0.000000   -0.000000   21.650000
   Li
   500
Direct configuration=     1
   0.01428196  0.01183512  0.99521642
   0.02582079  0.08669681  0.08288081
   0.03419830  0.19605035  0.21084201
   0.01455913  0.30800064  0.31245331
   0.00904425  0.41132213  0.39107474
   0.99960804  0.49770780  0.49307948
   0.99805291  0.59912424  0.58836376
   0.00048745  0.72432119  0.65457477
   0.99267501  0.79658740  0.79803417
   0.98807636  0.90723308  0.89828136
   0.12978116  0.97852445  0.08659523
   0.11003105  0.10655695  0.19975135
   0.12207419  0.19886343  0.31105146
   0.10450983  0.28738800  0.40145638
   0.12172484  0.38330396  0.52874912
   0.09884036  0.49455649  0.59298208
   0.10375942  0.58641776  0.68572369
   0.07800007  0.70185091  0.76480994
   0.08985699  0.77170451  0.89032367
   0.09181500  0.88748971  0.00279277
   0.21619361  0.00095710  0.21181839
   0.21297936  0.09998347  0.28583495
   0.21672676  0.18589826  0.40453291
   0.21503074  0.28537811  0.51522441
   0.21613749  0.36766886  0.60015438
   0.20424384  0.47689470  0.68267870
   0.22355211  0.59325706  0.79270761
   0.21257596  0.67400711  0.87123370
   0.20499725  0.78246846  0.97803513
   0.20912575  0.90770636  0.09707235
   0.32035938  0.99439795  0.27543534
   0.28522613  0.11661980  0.38767328
   0.31734028  0.18426978  0.48421590
   0.28394972  0.27181490  0.60958112
   0.30324150  0.39822343  0.70414248
   0.27583388  0.48310469  0.77942240
   0.32067215  0.59134656  0.87307225
   0.30815712  0.69039376  0.99142502
   0.28408925  0.78684269  0.09506491
   0.33006669  0.87230089  0.18609481
   0.39256185  0.03063525  0.38490105
   0.40965354  0.09208928  0.49574687
   0.39673921  0.19251695  0.59914922
   0.38846027  0.30510226  0.68431705
   0.42600068  0.40695247  0.79852384
   0.38711323  0.50812686  0.89030092
   0.40231638  0.61022161  0.99438406
   0.40253699  0.70110514  0.07666048
   0.39647814  0.78007353  0.20148712
   0.40830975  0.87265832  0.31042132
   0.50230169  0.01507668  0.49893661
   0.50824592  0.10894128  0.60090773
   0.50208782  0.22117843  0.68511902
   0.51701256  0.29278650  0.78008028
   0.50953721  0.40802340  0.87496782
   0.52244719  0.49600515  0.00035558
   0.51105250  0.61204579  0.09735740
   0.51829215  0.68582294  0.23094104
   0.51966578  0.78465166  0.30073014
   0.47530402  0.89138599  0.42501844
   0.61347199  0.98483446  0.58707103
   0.59766503  0.06333633  0.70012546
   0.59460987  0.16330631  0.80475706
   0.59163788  0.31563695  0.89867078
   0.59634977  0.38585442  0.98786158
   0.60771338  0.49440852  0.11961940
   0.61710959  0.61591818  0.22381693
   0.61448486  0.71040940  0.31608483
   0.58876772  0.77328488  0.40222093
   0.61448422  0.87430295  0.49461193
   0.72722470  0.98020104  0.69794517
   0.71806005  0.06789225  0.80460091
   0.69123230  0.19294116  0.91727265
   0.66225597  0.26379002  0.99495945
   0.70907436  0.36881228  0.11261905
   0.69657101  0.50335111  0.20437916
   0.72564876  0.61131851  0.33805123
   0.70128276  0.71468005  0.40749008
   0.71763069  0.79547395  0.47448745
   0.71097691  0.87901852  0.59431708
   0.80407144  0.97359207  0.82481130
   0.80004366  0.08397242  0.89996587
   0.82793387  0.19136224  0.00657215
   0.80620954  0.31058879  0.10769633
   0.83310549  0.39592756  0.19270829
   0.79258063  0.49837124  0.30779950
   0.78170524  0.59080565  0.42437439
   0.82306383  0.69693130  0.51145644
   0.81090064  0.82151026  0.61661511
   0.80831761  0.90031996  0.73403966
   0.90952185  0.99409992  0.91224272
   0.92441765  0.08530123  0.00147277
   0.92721575  0.22918982  0.11515618
   0.91943575  0.27449280  0.20181072
   0.87480314  0.37707765  0.31404209
   0.89528729  0.49026632  0.37698906
   0.89247267  0.57586801  0.47807407
   0.89003860  0.69850369  0.59704723
   0.91416199  0.80033500  0.67986942
   0.91881370  0.91788208  0.78454330
   0.10827453  0.09114767  0.99369192
   0.07457664  0.20712587  0.10439147
   0.09636055  0.31559756  0.22557416
   0.11474310  0.41521677  0.33445958
   0.12013238  0.50395081  0.40627459
   0.09909272  0.60161132  0.50774457
   0.10232978  0.72864770  0.59322779
   0.07967354  0.82397097  0.68015444
   0.09880611  0.89113397  0.81355447
   0.10608850  0.00409892  0.88493622
   0.20253838  0.11562554  0.10496387
   0.20257222  0.21747280  0.20435413
   0.20928943  0.31017126  0.30830127
   0.19925670  0.38315478  0.44034284
   0.21268461  0.49378152  0.52126402
   0.18198900  0.60343780  0.58342418
   0.18438289  0.72493636  0.68785192
   0.18636210  0.79866143  0.80315942
   0.22023972  0.87486477  0.88916116
   0.21322441  0.01090391  0.00663228
   0.31157714  0.08206203  0.18893854
   0.30461064  0.20888747  0.29522733
   0.32891583  0.29869782  0.40436543
   0.31645933  0.41916516  0.51097632
   0.29640136  0.48967359  0.58576112
   0.25833553  0.58721698  0.66839405
   0.29840043  0.68720382  0.77774720
   0.32010704  0.75645099  0.88294695
   0.32205193  0.89812933  0.00288961
   0.26743413  0.00123095  0.10208575
   0.41385443  0.11293853  0.28529590
   0.40713139  0.19342329  0.39954881
   0.40279814  0.29370002  0.51249751
   0.39159485  0.37854726  0.59939654
   0.38682627  0.51004134  0.69046243
   0.35867400  0.61506749  0.76300892
   0.39819272  0.71939558  0.91167622
   0.40308134  0.79621117  0.00122646
   0.39741102  0.91563903  0.08058450
   0.39687881  0.00236448  0.20919977
   0.52311143  0.10622560  0.36615106
   0.49802506  0.19440053  0.50086023
   0.49827895  0.28882499  0.60404323
   0.47819406  0.40307258  0.69092527
   0.48123824  0.51574630  0.80004704
   0.46913822  0.59067854  0.86850865
   0.48286121  0.70699757  0.98759700
   0.50509450  0.78347180  0.08829622
   0.48395388  0.86080803  0.20860447
   0.46655815  0.97036559  0.30928157
   0.61378005  0.13312860  0.49568224
   0.59325949  0.19775278  0.61405263
   0.61728459  0.29879859  0.68996324
   0.59353608  0.41130168  0.80032510
   0.58689303  0.47179361  0.88666908
   0.59351781  0.58765060  0.95816181
   0.60189285  0.65508086  0.08171922
   0.59234376  0.79123168  0.18633716
   0.56677634  0.89520312  0.32161119
   0.58072538  0.99899692  0.38499376
   0.72173369  0.07849590  0.62421717
   0.70579761  0.16555097  0.71883708
   0.68571043  0.27657446  0.80752601
   0.71109468  0.38040339  0.91114786
   0.67766464  0.47546797  0.99530661
   0.69233303  0.57538593  0.07624569
   0.70642517  0.69477575  0.22684119
   0.67875185  0.81480528  0.33285351
   0.71586049  0.90993501  0.40253471
   0.69772526  0.00468860  0.50735496
   0.83755923  0.09267521  0.69538271
   0.80031426  0.20618292  0.81876115
   0.80527543  0.28782875  0.90643211
   0.79534430  0.36600949  0.00702561
   0.78302759  0.50000005  0.09868049
   0.81786490  0.58388569  0.18985583
   0.79883696  0.68497695  0.33366386
   0.80766370  0.78618551  0.38029466
   0.80938264  0.89747745  0.48821779
   0.80690152  0.99829332  0.59468887
   0.90301753  0.09195973  0.80171574
   0.91640374  0.19129417  0.89447461
   0.93223371  0.32913358  0.01477090
   0.91755247  0.42203209  0.11632044
   0.90998660  0.50721034  0.23225403
   0.86977587  0.63012732  0.34166052
   0.91682379  0.70778505  0.42204705
   0.89516986  0.82252961  0.50737900
   0.90637384  0.92213660  0.60779426
   0.92110355  0.02071585  0.68716902
   0.99471910  0.08516168  0.88896193
   0.99837259  0.21140281  0.99567492
   0.00566446  0.34100636  0.10896986
   0.97760175  0.40188062  0.21688979
   0.00135920  0.52263476  0.32276241
   0.01632306  0.60409906  0.40073133
   0.00591711  0.71458270  0.50746846
   0.99940534  0.81635583  0.57339743
   0.01289345  0.90697763  0.67986535
   0.99394493  0.98430384  0.79017534
   0.17513778  0.22364024  0.00079873
   0.16680159  0.33536903  0.10898822
   0.19952796  0.42275546  0.25152980
   0.19242613  0.52075127  0.33600654
   0.19520324  0.61464308  0.42529766
   0.20167939  0.71062825  0.51718971
   0.21817172  0.80990748  0.61383773
   0.20603103  0.90230733  0.71898972
   0.20271653  0.01938564  0.80743483
   0.20387812  0.11925157  0.88764480
   0.30041089  0.24268643  0.11399677
   0.29053007  0.32941789  0.20852441
   0.28667099  0.39409964  0.30846234
   0.29019282  0.52305646  0.40302274
   0.30342407  0.61096306  0.51207058
   0.30745844  0.71991329  0.60407253
   0.30638018  0.80366088  0.71769026
   0.30304750  0.92248231  0.78713295
   0.29361416  0.01541062  0.90522620
   0.27092117  0.13522728  0.99418780
   0.37993771  0.21370203  0.19841719
   0.39417272  0.31185022  0.32759009
   0.39625518  0.42215843  0.38670378
   0.41502248  0.50556771  0.48846819
   0.39043684  0.60860930  0.62640456
   0.40163634  0.72263820  0.66824724
   0.40349206  0.81100059  0.78287248
   0.38727492  0.90284640  0.91143923
   0.40061820  0.01648323  0.99617870
   0.39105648  0.10050676  0.10626084
   0.49534355  0.19494022  0.28676108
   0.50297858  0.28936075  0.39216323
   0.49203015  0.40794992  0.48576506
   0.49426637  0.50286112  0.61071410
   0.49522525  0.59131286  0.70063913
   0.49032685  0.71594555  0.78260475
   0.49537749  0.78546166  0.90239726
   0.48565591  0.89018676  0.98259924
   0.50606620  0.97810814  0.09425951
   0.48603038  0.08709534  0.19046143
   0.61061191  0.19874000  0.37828149
   0.60220927  0.26648332  0.51338621
   0.59858248  0.39213690  0.62014570
   0.61412929  0.49239640  0.70033910
   0.58584834  0.59830688  0.80521125
   0.57673548  0.71261372  0.88990603
   0.60060887  0.79423435  0.99547229
   0.56886075  0.87828717  0.08587472
   0.56648362  0.98348591  0.18901844
   0.60462715  0.08746308  0.28165521
   0.71311295  0.18639337  0.50758941
   0.70933245  0.27508414  0.61224069
   0.70918126  0.38234242  0.68885023
   0.70556617  0.49649054  0.79960173
   0.69354139  0.58086901  0.91204698
   0.68771878  0.69327808  0.99056956
   0.70243597  0.76146749  0.09373807
   0.69070670  0.88115732  0.18604712
   0.70566308  0.95833735  0.25109671
   0.72291133  0.09654842  0.38245432
   0.81607119  0.15543118  0.59532241
   0.78702269  0.27176190  0.69943788
   0.81008398  0.36671811  0.79874184
   0.79608788  0.48773310  0.88334714
   0.78112549  0.59849263  0.99331286
   0.78447487  0.68636058  0.10671406
   0.79424481  0.78106857  0.21396209
   0.79525567  0.90392061  0.28788146
   0.80395272  0.00670643  0.38581782
   0.80475915  0.08831719  0.50554107
   0.91360498  0.20215518  0.68752643
   0.91790947  0.30154949  0.76813153
   0.89529638  0.40624463  0.87970266
   0.89100780  0.49843804  0.98832794
   0.90535277  0.57600672  0.09317171
   0.89052667  0.68677380  0.19865784
   0.91594889  0.78212916  0.28012224
   0.91019520  0.90610300  0.39828839
   0.90116415  0.00117529  0.49383393
   0.89673162  0.07459575  0.59400847
   0.98710270  0.21774385  0.78424462
   0.99371896  0.33096038  0.88689190
   0.00059143  0.43485565  0.02638602
   0.98642669  0.48824149  0.11117190
   0.97036535  0.59494423  0.21955227
   0.01670746  0.69826619  0.30599197
   0.98177379  0.80861491  0.41687313
   0.00152229  0.90291740  0.52364144
   0.01489719  0.00030958  0.58262689
   0.00121411  0.10967497  0.69156592
   0.08129380  0.20380584  0.90275978
   0.07183206  0.30550311  0.01708364
   0.10503378  0.41613575  0.14045022
   0.10237307  0.49592317  0.22821829
   0.10381044  0.62474054  0.31184773
   0.10658702  0.72984023  0.40795293
   0.10770966  0.84949565  0.51477811
   0.12909680  0.89547492  0.62210081
   0.09460441  0.01395629  0.69941164
   0.08399920  0.12176544  0.79701400
   0.29244513  0.33055048  0.98987030
   0.30223972  0.40449132  0.11584753
   0.31816040  0.51763238  0.21094790
   0.29382576  0.62034052  0.30888582
   0.28449762  0.72661843  0.41038172
   0.30109968  0.81924281  0.52593113
   0.27885478  0.91723455  0.61103599
   0.31236268  0.03969833  0.70700514
   0.31163760  0.11013685  0.79777740
   0.31261427  0.22539104  0.87859026
   0.42147884  0.33093689  0.07950487
   0.38823547  0.40327389  0.22054048
   0.41348808  0.52726798  0.31112135
   0.39154866  0.62182320  0.42147185
   0.38826495  0.70708070  0.52667656
   0.39833183  0.82496814  0.60886253
   0.41581564  0.89923480  0.69529314
   0.39288891  0.00047993  0.80204692
   0.39075879  0.11723002  0.90353460
   0.39861870  0.20718193  0.99551137
   0.49407946  0.29573745  0.23925222
   0.48923873  0.43088169  0.32016434
   0.49518169  0.52200184  0.39990506
   0.50414844  0.60746696  0.50888492
   0.50373226  0.70109645  0.60391655
   0.51998282  0.78675122  0.67453645
   0.48041247  0.88970823  0.78409319
   0.48834562  0.98766016  0.91640545
   0.49927333  0.09822828  0.98809116
   0.48777535  0.19272624  0.11180839
   0.59945498  0.30717572  0.27840383
   0.60867240  0.40496334  0.39877745
   0.59665237  0.50216326  0.51723269
   0.60805550  0.61041174  0.59798425
   0.60682508  0.69303715  0.68840642
   0.59595415  0.79440030  0.78116018
   0.60610505  0.90536344  0.90264230
   0.59482929  0.00582620  0.01024505
   0.60954126  0.09676289  0.09329241
   0.58077414  0.18941361  0.17403745
   0.68615023  0.29577776  0.37297709
   0.68961273  0.37335292  0.50690261
   0.70358694  0.49333741  0.59293886
   0.71176634  0.58881089  0.68050116
   0.69956266  0.68639020  0.79375069
   0.69292150  0.79479635  0.89048794
   0.69434134  0.88055111  0.03135919
   0.71034773  0.99965922  0.11774899
   0.69095953  0.09449414  0.18047995
   0.69143816  0.20636934  0.26914774
   0.78315852  0.27266955  0.49626162
   0.80013603  0.37009850  0.57449186
   0.83129960  0.46863267  0.69370634
   0.78879307  0.59871163  0.78737657
   0.79431234  0.69715641  0.88113688
   0.78647768  0.77955080  0.98320060
   0.82417226  0.88911962  0.10262697
   0.80379834  0.99778526  0.19367928
   0.78680033  0.08883185  0.28656343
   0.76769943  0.20821789  0.40588711
   0.89606025  0.28498788  0.59433355
   0.90599533  0.38346442  0.68774211
   0.89529367  0.50725416  0.78517053
   0.89116249  0.60211077  0.91071413
   0.89388569  0.68702420  0.99051485
   0.90644552  0.77039167  0.10239556
   0.92246757  0.90374219  0.20683183
   0.91413884  0.01537175  0.29770967
   0.88034981  0.10041729  0.41027415
   0.90654566  0.17824796  0.47213212
   0.01522746  0.31327416  0.68372757
   0.00429705  0.40566016  0.76699939
   0.99494919  0.49989814  0.87956747
   0.99728934  0.58654222  0.98796173
   0.00742379  0.68833653  0.10341392
   0.01014885  0.79582656  0.20492481
   0.99263432  0.91852171  0.30501599
   0.00396554  0.03354245  0.39396692
   0.01880401  0.09482735  0.49840473
   0.97962291  0.18790871  0.59880369
   0.08442228  0.28243811  0.77691235
   0.08561400  0.41077805  0.89551934
   0.12923226  0.52544421  0.99831858
   0.09599350  0.58521233  0.10977182
   0.08925971  0.69446479  0.19648603
   0.10563104  0.80993127  0.30411313
   0.09701753  0.90597953  0.38986264
   0.10400286  0.98612465  0.50833070
   0.11430190  0.10494505  0.60348416
   0.09079884  0.17189079  0.70009689
   0.16993604  0.30060216  0.92281664
   0.17860745  0.42703717  0.98962163
   0.24015198  0.48557552  0.12639458
   0.20829843  0.58138133  0.21157130
   0.20759145  0.69666553  0.29853965
   0.21088926  0.82013264  0.40606491
   0.21100984  0.91423753  0.50277981
   0.19945858  0.01624061  0.62026436
   0.20292865  0.09093049  0.73866749
   0.19047220  0.20673921  0.79831741
   0.38026917  0.42237159  0.97556241
   0.34990942  0.51025440  0.11031041
   0.41174413  0.59930883  0.21132549
   0.37111019  0.70811254  0.31114331
   0.39986893  0.78927687  0.40426129
   0.40676664  0.93222641  0.52200327
   0.41922996  0.00434020  0.63020648
   0.41210944  0.12388362  0.71882314
   0.43895440  0.21191555  0.79059370
   0.38622715  0.30253413  0.88463646
   0.47468101  0.41214090  0.13155797
   0.48688069  0.51790875  0.21961560
   0.48806021  0.61154773  0.32141169
   0.50069520  0.69934078  0.40130345
   0.49308496  0.78457328  0.51817729
   0.52066332  0.90753929  0.60102922
   0.50448466  0.02408230  0.72869921
   0.47634630  0.12826755  0.82199163
   0.49158441  0.21565333  0.91076921
   0.48942544  0.32258939  0.98177036
   0.58198287  0.41635454  0.20592822
   0.59602755  0.51461801  0.31032626
   0.62400445  0.60335439  0.42284080
   0.61769953  0.70229651  0.50586656
   0.62135317  0.77475238  0.58715097
   0.60793288  0.89170924  0.68175722
   0.59591753  0.01546134  0.81294091
   0.59171665  0.10343649  0.90685787
   0.59299639  0.21653627  0.01735138
   0.55135239  0.30562585  0.13015886
   0.72136049  0.41165052  0.28252299
   0.70378763  0.48941568  0.42867629
   0.70546520  0.58597206  0.52585901
   0.71020436  0.69597703  0.59764716
   0.72071992  0.80696168  0.71933083
   0.66823443  0.91710455  0.81342657
   0.70555122  0.99641423  0.92293398
   0.68906571  0.09362625  0.01100901
   0.69440461  0.22007059  0.09511959
   0.66768247  0.29563281  0.18666568
   0.77802788  0.37282733  0.42112008
   0.78988695  0.47731887  0.51930064
   0.80934127  0.57262406  0.61568365
   0.79177045  0.71664158  0.71682198
   0.78598428  0.80408498  0.81309985
   0.78930560  0.90268550  0.90550362
   0.79397704  0.98398693  0.98865141
   0.82369250  0.13034401  0.08199324
   0.77631884  0.20575845  0.18714384
   0.79378229  0.29821015  0.27110782
   0.87905135  0.39291468  0.46636660
   0.93240140  0.49000341  0.58423932
   0.89127555  0.61341939  0.70764231
   0.89370993  0.70800360  0.77538465
   0.88780812  0.81330356  0.89897247
   0.90295329  0.90167595  0.00122345
   0.88250959  0.99999996  0.10542177
   0.91464142  0.10402139  0.18990096
   0.90842272  0.19597749  0.30580256
   0.88822892  0.28852643  0.40177853
   0.98268774  0.36041908  0.58229316
   0.98383599  0.48927308  0.67832952
   0.97700597  0.61180525  0.74522912
   0.97384088  0.67836898  0.87977131
   0.00127814  0.79425315  0.99666424
   0.97949942  0.89765397  0.06497884
   0.03206707  0.99998237  0.15648484
   0.02973039  0.09463358  0.31442283
   0.00429744  0.19202028  0.38354387
   0.00555667  0.30073179  0.49268986
   0.10186728  0.41316067  0.67863445
   0.07854099  0.51226235  0.77942265
   0.08011044  0.60673424  0.86401345
   0.08233422  0.68178999  0.00267920
   0.08333172  0.80309041  0.09506531
   0.09526059  0.89715873  0.17284661
   0.11257902  0.97903237  0.27141896
   0.13017320  0.10398898  0.39910928
   0.10106405  0.19538654  0.50491929
   0.10116805  0.28936956  0.60117276
   0.17011954  0.42571823  0.79159953
   0.20118996  0.53520315  0.90040617
   0.20348488  0.61553617  0.01274149
   0.19205360  0.71100769  0.12155252
   0.19923875  0.79062179  0.22154969
   0.21195937  0.90190430  0.28150233
   0.19430670  0.00473941  0.38258842
   0.19849372  0.10096182  0.55272248
   0.22587584  0.20021551  0.62214130
   0.20015950  0.32398545  0.70374639
   0.27893230  0.40209064  0.89967647
   0.30903702  0.50905493  0.02267375
   0.28302839  0.61496992  0.12044954
   0.29199565  0.70114015  0.18637606
   0.29739167  0.78786463  0.28489574
   0.31376872  0.91395939  0.41144920
   0.29205176  0.01934836  0.49800540
   0.31005290  0.10754970  0.60714819
   0.30728843  0.21931502  0.73665264
   0.29317347  0.31476460  0.81399789
