 500 500   0   0
  0.1852332E+02  0.2100050E-08  0.2100050E-08  0.2100050E-08  0.5000000E-15
  1.000000000000000E-004
  CAR 
 Li                                      
      3.82812518     -3.30842192  301      0.63803998      1.00000000
     -3.308  0.0000E+00  0.0000E+00
     -3.285  0.0000E+00  0.0000E+00
     -3.261  0.0000E+00  0.0000E+00
     -3.237  0.0000E+00  0.0000E+00
     -3.213  0.0000E+00  0.0000E+00
     -3.189  0.0000E+00  0.0000E+00
     -3.166  0.0000E+00  0.0000E+00
     -3.142  0.4048E-11  0.9628E-13
     -3.118  0.1068E-07  0.2540E-09
     -3.094  0.8228E-05  0.1960E-06
     -3.071  0.1871E-02  0.4470E-04
     -3.047  0.1273E+00  0.3073E-02
     -3.023  0.2642E+01  0.6593E-01
     -2.999  0.1711E+02  0.4730E+00
     -2.975  0.3534E+02  0.1314E+01
     -2.952  0.2351E+02  0.1873E+01
     -2.928  0.5486E+01  0.2004E+01
     -2.904  0.8089E+01  0.2196E+01
     -2.880  0.4383E+02  0.3239E+01
     -2.856  0.9297E+02  0.5450E+01
     -2.833  0.7791E+02  0.7304E+01
     -2.809  0.2620E+02  0.7927E+01
     -2.785  0.8961E+01  0.8140E+01
     -2.761  0.3662E+02  0.9011E+01
     -2.737  0.8774E+02  0.1110E+02
     -2.714  0.8428E+02  0.1310E+02
     -2.690  0.3284E+02  0.1388E+02
     -2.666  0.1003E+02  0.1412E+02
     -2.642  0.3945E+02  0.1506E+02
     -2.619  0.1084E+03  0.1764E+02
     -2.595  0.1186E+03  0.2046E+02
     -2.571  0.5439E+02  0.2176E+02
     -2.547  0.1797E+02  0.2218E+02
     -2.523  0.4985E+02  0.2337E+02
     -2.500  0.1322E+03  0.2651E+02
     -2.476  0.1723E+03  0.3061E+02
     -2.452  0.1089E+03  0.3320E+02
     -2.428  0.3198E+02  0.3396E+02
     -2.404  0.1992E+02  0.3444E+02
     -2.381  0.5843E+02  0.3583E+02
     -2.357  0.8987E+02  0.3797E+02
     -2.333  0.6425E+02  0.3949E+02
     -2.309  0.2430E+02  0.4007E+02
     -2.286  0.3943E+02  0.4101E+02
     -2.262  0.1109E+03  0.4365E+02
     -2.238  0.1587E+03  0.4742E+02
     -2.214  0.1285E+03  0.5048E+02
     -2.190  0.6019E+02  0.5191E+02
     -2.167  0.5286E+02  0.5317E+02
     -2.143  0.1305E+03  0.5627E+02
     -2.119  0.2065E+03  0.6119E+02
     -2.095  0.2021E+03  0.6599E+02
     -2.071  0.1225E+03  0.6891E+02
     -2.048  0.4413E+02  0.6996E+02
     -2.024  0.3543E+02  0.7080E+02
     -2.000  0.7965E+02  0.7270E+02
     -1.976  0.8844E+02  0.7480E+02
     -1.952  0.4464E+02  0.7586E+02
     -1.929  0.3057E+02  0.7659E+02
     -1.905  0.8124E+02  0.7852E+02
     -1.881  0.1522E+03  0.8214E+02
     -1.857  0.1739E+03  0.8628E+02
     -1.834  0.1155E+03  0.8903E+02
     -1.810  0.5435E+02  0.9032E+02
     -1.786  0.8478E+02  0.9234E+02
     -1.762  0.1732E+03  0.9646E+02
     -1.738  0.2159E+03  0.1016E+03
     -1.715  0.1707E+03  0.1057E+03
     -1.691  0.8493E+02  0.1077E+03
     -1.667  0.5180E+02  0.1089E+03
     -1.643  0.9480E+02  0.1112E+03
     -1.619  0.1434E+03  0.1146E+03
     -1.596  0.1371E+03  0.1178E+03
     -1.572  0.8282E+02  0.1198E+03
     -1.548  0.7596E+02  0.1216E+03
     -1.524  0.1541E+03  0.1253E+03
     -1.500  0.2199E+03  0.1305E+03
     -1.477  0.1937E+03  0.1351E+03
     -1.453  0.1002E+03  0.1375E+03
     -1.429  0.5742E+02  0.1389E+03
     -1.405  0.1168E+03  0.1416E+03
     -1.382  0.2038E+03  0.1465E+03
     -1.358  0.2178E+03  0.1517E+03
     -1.334  0.1367E+03  0.1549E+03
     -1.310  0.5998E+02  0.1564E+03
     -1.286  0.7361E+02  0.1581E+03
     -1.263  0.1266E+03  0.1611E+03
     -1.239  0.1433E+03  0.1645E+03
     -1.215  0.1052E+03  0.1670E+03
     -1.191  0.6176E+02  0.1685E+03
     -1.167  0.9229E+02  0.1707E+03
     -1.144  0.1446E+03  0.1741E+03
     -1.120  0.1376E+03  0.1774E+03
     -1.096  0.9221E+02  0.1796E+03
     -1.072  0.8851E+02  0.1817E+03
     -1.049  0.1627E+03  0.1856E+03
     -1.025  0.2500E+03  0.1915E+03
     -1.001  0.2895E+03  0.1984E+03
     -0.977  0.2575E+03  0.2045E+03
     -0.953  0.1750E+03  0.2087E+03
     -0.930  0.1264E+03  0.2117E+03
     -0.906  0.1658E+03  0.2156E+03
     -0.882  0.2101E+03  0.2206E+03
     -0.858  0.1789E+03  0.2249E+03
     -0.834  0.1095E+03  0.2275E+03
     -0.811  0.7691E+02  0.2293E+03
     -0.787  0.1051E+03  0.2318E+03
     -0.763  0.1621E+03  0.2357E+03
     -0.739  0.1714E+03  0.2398E+03
     -0.715  0.1357E+03  0.2430E+03
     -0.692  0.1635E+03  0.2469E+03
     -0.668  0.2164E+03  0.2520E+03
     -0.644  0.2272E+03  0.2574E+03
     -0.620  0.1884E+03  0.2619E+03
     -0.597  0.1214E+03  0.2648E+03
     -0.573  0.6481E+02  0.2664E+03
     -0.549  0.6116E+02  0.2678E+03
     -0.525  0.7251E+02  0.2695E+03
     -0.501  0.7317E+02  0.2713E+03
     -0.478  0.9638E+02  0.2736E+03
     -0.454  0.1680E+03  0.2776E+03
     -0.430  0.2345E+03  0.2831E+03
     -0.406  0.2602E+03  0.2893E+03
     -0.382  0.2618E+03  0.2956E+03
     -0.359  0.2417E+03  0.3013E+03
     -0.335  0.2173E+03  0.3065E+03
     -0.311  0.2086E+03  0.3114E+03
     -0.287  0.2370E+03  0.3171E+03
     -0.263  0.2667E+03  0.3234E+03
     -0.240  0.2417E+03  0.3292E+03
     -0.216  0.1742E+03  0.3333E+03
     -0.192  0.1299E+03  0.3364E+03
     -0.168  0.1219E+03  0.3393E+03
     -0.145  0.1321E+03  0.3424E+03
     -0.121  0.1445E+03  0.3459E+03
     -0.097  0.1706E+03  0.3499E+03
     -0.073  0.1876E+03  0.3544E+03
     -0.049  0.1806E+03  0.3587E+03
     -0.026  0.1693E+03  0.3627E+03
     -0.002  0.1701E+03  0.3668E+03
      0.022  0.1896E+03  0.3713E+03
      0.046  0.2134E+03  0.3764E+03
      0.070  0.2347E+03  0.3819E+03
      0.093  0.2453E+03  0.3878E+03
      0.117  0.2340E+03  0.3933E+03
      0.141  0.2102E+03  0.3984E+03
      0.165  0.1931E+03  0.4029E+03
      0.188  0.1919E+03  0.4075E+03
      0.212  0.1831E+03  0.4119E+03
      0.236  0.1591E+03  0.4157E+03
      0.260  0.1485E+03  0.4192E+03
      0.284  0.1723E+03  0.4233E+03
      0.307  0.2010E+03  0.4281E+03
      0.331  0.2153E+03  0.4332E+03
      0.355  0.2330E+03  0.4387E+03
      0.379  0.2356E+03  0.4443E+03
      0.403  0.2142E+03  0.4494E+03
      0.426  0.1965E+03  0.4541E+03
      0.450  0.1910E+03  0.4586E+03
      0.474  0.2002E+03  0.4634E+03
      0.498  0.2025E+03  0.4682E+03
      0.522  0.2045E+03  0.4731E+03
      0.545  0.2135E+03  0.4782E+03
      0.569  0.2236E+03  0.4835E+03
      0.593  0.2343E+03  0.4891E+03
      0.617  0.2408E+03  0.4948E+03
      0.640  0.2439E+03  0.5006E+03
      0.664  0.2401E+03  0.5063E+03
      0.688  0.2259E+03  0.5117E+03
      0.712  0.2175E+03  0.5169E+03
      0.736  0.2228E+03  0.5222E+03
      0.759  0.2360E+03  0.5278E+03
      0.783  0.2452E+03  0.5336E+03
      0.807  0.2590E+03  0.5398E+03
      0.831  0.2808E+03  0.5464E+03
      0.855  0.2916E+03  0.5534E+03
      0.878  0.2854E+03  0.5602E+03
      0.902  0.2743E+03  0.5667E+03
      0.926  0.2668E+03  0.5730E+03
      0.950  0.2597E+03  0.5792E+03
      0.974  0.2431E+03  0.5850E+03
      0.997  0.2234E+03  0.5903E+03
      1.021  0.2209E+03  0.5956E+03
      1.045  0.2156E+03  0.6007E+03
      1.069  0.2032E+03  0.6055E+03
      1.092  0.1898E+03  0.6100E+03
      1.116  0.1716E+03  0.6141E+03
      1.140  0.1619E+03  0.6180E+03
      1.164  0.1654E+03  0.6219E+03
      1.188  0.1753E+03  0.6261E+03
      1.211  0.1784E+03  0.6303E+03
      1.235  0.1767E+03  0.6345E+03
      1.259  0.1790E+03  0.6388E+03
      1.283  0.1893E+03  0.6433E+03
      1.307  0.2136E+03  0.6484E+03
      1.330  0.2269E+03  0.6538E+03
      1.354  0.2261E+03  0.6591E+03
      1.378  0.2314E+03  0.6647E+03
      1.402  0.2382E+03  0.6703E+03
      1.425  0.2395E+03  0.6760E+03
      1.449  0.2373E+03  0.6817E+03
      1.473  0.2242E+03  0.6870E+03
      1.497  0.2105E+03  0.6920E+03
      1.521  0.2137E+03  0.6971E+03
      1.544  0.2167E+03  0.7022E+03
      1.568  0.2131E+03  0.7073E+03
      1.592  0.2028E+03  0.7121E+03
      1.616  0.1925E+03  0.7167E+03
      1.640  0.1907E+03  0.7213E+03
      1.663  0.1917E+03  0.7258E+03
      1.687  0.2023E+03  0.7306E+03
      1.711  0.2099E+03  0.7356E+03
      1.735  0.1984E+03  0.7403E+03
      1.759  0.1856E+03  0.7448E+03
      1.782  0.1799E+03  0.7490E+03
      1.806  0.1770E+03  0.7532E+03
      1.830  0.1695E+03  0.7573E+03
      1.854  0.1737E+03  0.7614E+03
      1.877  0.1731E+03  0.7655E+03
      1.901  0.1606E+03  0.7693E+03
      1.925  0.1618E+03  0.7732E+03
      1.949  0.1658E+03  0.7771E+03
      1.973  0.1563E+03  0.7809E+03
      1.996  0.1477E+03  0.7844E+03
      2.020  0.1490E+03  0.7879E+03
      2.044  0.1512E+03  0.7915E+03
      2.068  0.1674E+03  0.7955E+03
      2.092  0.1808E+03  0.7998E+03
      2.115  0.1856E+03  0.8042E+03
      2.139  0.1790E+03  0.8085E+03
      2.163  0.1777E+03  0.8127E+03
      2.187  0.1793E+03  0.8170E+03
      2.211  0.1765E+03  0.8212E+03
      2.234  0.1903E+03  0.8257E+03
      2.258  0.1986E+03  0.8304E+03
      2.282  0.1920E+03  0.8350E+03
      2.306  0.1896E+03  0.8395E+03
      2.329  0.1876E+03  0.8439E+03
      2.353  0.1735E+03  0.8481E+03
      2.377  0.1618E+03  0.8519E+03
      2.401  0.1540E+03  0.8556E+03
      2.425  0.1418E+03  0.8590E+03
      2.448  0.1333E+03  0.8621E+03
      2.472  0.1356E+03  0.8654E+03
      2.496  0.1380E+03  0.8686E+03
      2.520  0.1410E+03  0.8720E+03
      2.544  0.1365E+03  0.8752E+03
      2.567  0.1338E+03  0.8784E+03
      2.591  0.1379E+03  0.8817E+03
      2.615  0.1393E+03  0.8850E+03
      2.639  0.1499E+03  0.8886E+03
      2.662  0.1529E+03  0.8922E+03
      2.686  0.1403E+03  0.8956E+03
      2.710  0.1317E+03  0.8987E+03
      2.734  0.1351E+03  0.9019E+03
      2.758  0.1374E+03  0.9052E+03
      2.781  0.1334E+03  0.9083E+03
      2.805  0.1287E+03  0.9114E+03
      2.829  0.1294E+03  0.9145E+03
      2.853  0.1444E+03  0.9179E+03
      2.877  0.1577E+03  0.9217E+03
      2.900  0.1499E+03  0.9252E+03
      2.924  0.1505E+03  0.9288E+03
      2.948  0.1464E+03  0.9323E+03
      2.972  0.1396E+03  0.9356E+03
      2.996  0.1396E+03  0.9389E+03
      3.019  0.1342E+03  0.9421E+03
      3.043  0.1370E+03  0.9454E+03
      3.067  0.1465E+03  0.9489E+03
      3.091  0.1470E+03  0.9524E+03
      3.114  0.1493E+03  0.9559E+03
      3.138  0.1442E+03  0.9594E+03
      3.162  0.1329E+03  0.9625E+03
      3.186  0.1306E+03  0.9656E+03
      3.210  0.1351E+03  0.9688E+03
      3.233  0.1394E+03  0.9722E+03
      3.257  0.1372E+03  0.9754E+03
      3.281  0.1309E+03  0.9785E+03
      3.305  0.1276E+03  0.9816E+03
      3.329  0.1231E+03  0.9845E+03
      3.352  0.1063E+03  0.9870E+03
      3.376  0.8019E+02  0.9889E+03
      3.400  0.7676E+02  0.9908E+03
      3.424  0.8726E+02  0.9928E+03
      3.448  0.1043E+03  0.9953E+03
      3.471  0.1218E+03  0.9982E+03
      3.495  0.9522E+02  0.1000E+04
      3.519  0.4797E+02  0.1002E+04
      3.543  0.1410E+02  0.1002E+04
      3.566  0.1746E+01  0.1002E+04
      3.590  0.7407E-01  0.1002E+04
      3.614  0.9906E-03  0.1002E+04
      3.638  0.4025E-05  0.1002E+04
      3.662  0.4873E-08  0.1002E+04
      3.685  0.1731E-11  0.1002E+04
      3.709  0.0000E+00  0.1002E+04
      3.733  0.0000E+00  0.1002E+04
      3.757  0.0000E+00  0.1002E+04
      3.781  0.0000E+00  0.1002E+04
      3.804  0.0000E+00  0.1002E+04
      3.828  0.0000E+00  0.1002E+04
