       N       E                     dE             d eps       ncg     rms          rms(c)
DAV:   1    -0.224166190645E+03   -0.22417E+03   -0.12462E+05  4008   0.665E+02
DAV:   2    -0.857936406439E+03   -0.63377E+03   -0.57962E+03  4628   0.702E+01
DAV:   3    -0.902764069262E+03   -0.44828E+02   -0.40915E+02  5192   0.147E+01
DAV:   4    -0.904257808511E+03   -0.14937E+01   -0.14713E+01  4712   0.293E+00
DAV:   5    -0.904293662302E+03   -0.35854E-01   -0.35789E-01  4848   0.474E-01    0.108E+01
DAV:   6    -0.899614328963E+03    0.46793E+01   -0.14480E+01  4712   0.543E+00    0.892E+00
DAV:   7    -0.891173429269E+03    0.84409E+01   -0.11907E+01  4960   0.503E+00    0.573E+00
DAV:   8    -0.887516864320E+03    0.36566E+01   -0.62325E+00  4744   0.277E+00    0.303E+00
DAV:   9    -0.886920981187E+03    0.59588E+00   -0.34106E+00  4576   0.157E+00    0.172E+00
DAV:  10    -0.886938052003E+03   -0.17071E-01   -0.98096E-01  4704   0.104E+00    0.151E+00
DAV:  11    -0.886715649027E+03    0.22240E+00   -0.39313E-01  4592   0.618E-01    0.679E-01
DAV:  12    -0.886722573369E+03   -0.69243E-02   -0.95284E-02  4760   0.309E-01    0.505E-01
DAV:  13    -0.886702255611E+03    0.20318E-01   -0.53951E-02  4776   0.253E-01    0.282E-01
DAV:  14    -0.886698254631E+03    0.40010E-02   -0.13328E-02  4640   0.122E-01    0.151E-01
DAV:  15    -0.886697983417E+03    0.27121E-03   -0.44449E-03  4680   0.754E-02    0.104E-01
DAV:  16    -0.886697115357E+03    0.86806E-03   -0.20977E-03  4720   0.536E-02    0.615E-02
DAV:  17    -0.886696828122E+03    0.28723E-03   -0.74820E-04  4464   0.257E-02    0.235E-02
DAV:  18    -0.886696861487E+03   -0.33365E-04   -0.19312E-04  4792   0.159E-02    0.236E-02
DAV:  19    -0.886696788859E+03    0.72628E-04   -0.10732E-04  4744   0.117E-02    0.955E-03
DAV:  20    -0.886696778147E+03    0.10711E-04   -0.27563E-05  3384   0.520E-03    0.542E-03
DAV:  21    -0.886696772224E+03    0.59239E-05   -0.99656E-06  2208   0.313E-03
   1 F= -.88669677E+03 E0= -.88664178E+03  d E =-.109979E+00
