Li                                      
           1
    21.000500    0.000000    0.000000
     0.000000   21.000500    0.000000
     0.000000    0.000000   21.000500
   Li
   500
Direct configuration=     1
   0.01889719  0.01660818  0.00433972
   0.99384998  0.11608071  0.10018447
   0.99808165  0.23937977  0.20244913
   0.00509277  0.31975877  0.27490052
   0.01581596  0.37222020  0.40398690
   0.02571169  0.49945405  0.50256853
   0.99745097  0.59941475  0.61582050
   0.99798576  0.68553498  0.71329991
   0.98735632  0.80327083  0.77602383
   0.01054569  0.89720704  0.88498518
   0.12675260  0.00802466  0.11073464
   0.07781076  0.12567099  0.20935927
   0.08812007  0.20665316  0.30077995
   0.09339655  0.29249664  0.41732074
   0.08904908  0.40480973  0.49749166
   0.09805371  0.50382646  0.59376050
   0.07787302  0.61113922  0.71819410
   0.08869032  0.69822258  0.81778200
   0.08649465  0.77999257  0.87629486
   0.07841655  0.88813265  0.98269574
   0.17896399  0.00958566  0.20471050
   0.19679221  0.11254247  0.30831555
   0.20921506  0.22009438  0.39574943
   0.18749648  0.30502689  0.50529659
   0.19567420  0.39176016  0.61623843
   0.18044347  0.51393228  0.69410335
   0.20900192  0.60376307  0.78854998
   0.19377309  0.69107819  0.90442297
   0.19868225  0.79171461  0.98313085
   0.15278760  0.86543034  0.10874893
   0.28988886  0.99346284  0.30724086
   0.29915684  0.08593967  0.40362911
   0.29066498  0.22750851  0.50896841
   0.32965528  0.31170257  0.61659155
   0.32682692  0.38067169  0.70788583
   0.29993968  0.49598594  0.77149433
   0.31082369  0.59212739  0.87847054
   0.29034234  0.70139603  0.00018806
   0.29395946  0.78545454  0.11793146
   0.26209530  0.88630896  0.18593144
   0.38289495  0.99359187  0.40573357
   0.39267933  0.10366296  0.51143536
   0.42402897  0.21680700  0.59146746
   0.40291693  0.30252255  0.71379080
   0.42814155  0.40141348  0.78193338
   0.41052448  0.48646158  0.88472338
   0.39409581  0.59966527  0.99474190
   0.41064905  0.67681509  0.10167189
   0.40582465  0.79883940  0.19978243
   0.38526303  0.89467342  0.30016421
   0.51364696  0.02769674  0.48123563
   0.50948787  0.09335681  0.58711124
   0.49894460  0.19100084  0.68265409
   0.51270459  0.28156334  0.80917755
   0.48714515  0.39574626  0.93532636
   0.50944715  0.50900216  0.01943760
   0.49867204  0.59855015  0.09934983
   0.49056400  0.71923330  0.22162938
   0.50479409  0.79214971  0.30764178
   0.49994449  0.88539671  0.38517714
   0.59306589  0.99234275  0.57087575
   0.61437996  0.10486885  0.70676746
   0.60060965  0.17443632  0.82823430
   0.59973090  0.28924444  0.92734160
   0.60631779  0.39520358  0.03535195
   0.60427387  0.51319474  0.10422498
   0.61979992  0.61955928  0.19487614
   0.60426200  0.68777318  0.30989603
   0.60566999  0.80027554  0.36116192
   0.57260391  0.91368580  0.47005341
   0.66518612  0.00681598  0.68718392
   0.70003339  0.11131516  0.81738708
   0.72360703  0.20266675  0.94597386
   0.70437714  0.29791197  0.04061439
   0.72435609  0.41447645  0.12955080
   0.70917769  0.52545569  0.21599595
   0.72143609  0.60293476  0.30329569
   0.72616090  0.69635580  0.39164112
   0.68399990  0.81051968  0.49412644
   0.68961263  0.87997815  0.57670563
   0.81016957  0.99498840  0.77753834
   0.81319772  0.10039143  0.88298160
   0.80646964  0.20490100  0.00367488
   0.82841403  0.28374117  0.10253100
   0.79193281  0.44190268  0.21980851
   0.80903949  0.49680059  0.31810447
   0.81198706  0.59447726  0.39526403
   0.80935386  0.67689895  0.50487561
   0.80349367  0.79780296  0.57899128
   0.79112255  0.90841613  0.68471910
   0.91488115  0.00854626  0.91739704
   0.89745331  0.11500084  0.00838647
   0.89898162  0.21050044  0.10797033
   0.87721165  0.31399075  0.22175547
   0.90250045  0.40525226  0.29905545
   0.90463157  0.49674287  0.41464238
   0.90143789  0.56837533  0.51063736
   0.91453513  0.67461247  0.62326979
   0.88947926  0.78834979  0.68490160
   0.90388132  0.93683705  0.77351555
   0.11257750  0.10164263  0.98851093
   0.07248381  0.22239146  0.09844001
   0.08693926  0.33433464  0.20453248
   0.12666760  0.41894659  0.30333941
   0.10249728  0.49641334  0.38388307
   0.11379146  0.58540370  0.49873658
   0.10902891  0.69707246  0.61864631
   0.10435017  0.78669919  0.70187420
   0.08851319  0.92573161  0.77445336
   0.07794660  0.00209024  0.91179010
   0.19844469  0.13628983  0.11345664
   0.18348503  0.20826421  0.19972573
   0.19932389  0.32296396  0.30999216
   0.19850926  0.38663611  0.42092640
   0.20900677  0.51351625  0.50335148
   0.20389668  0.60550317  0.61299715
   0.20106621  0.66520884  0.69383905
   0.18982805  0.79654825  0.79255620
   0.18232162  0.90989486  0.88104867
   0.17522411  0.98813145  0.00737513
   0.29217016  0.11608535  0.20124437
   0.27574203  0.21053851  0.31058986
   0.31449724  0.31427714  0.40450119
   0.31951902  0.37309047  0.52490604
   0.31171236  0.49996074  0.59537062
   0.33617591  0.57742688  0.71357252
   0.29743105  0.69472545  0.81410099
   0.28690128  0.78253936  0.88245465
   0.27594247  0.88936360  0.99291020
   0.25741635  0.99283922  0.12013935
   0.37443570  0.06980014  0.28809382
   0.38483770  0.19407449  0.39448263
   0.40895994  0.27803494  0.46180883
   0.42994219  0.40949113  0.59148046
   0.43258096  0.47655598  0.69662707
   0.41825887  0.60988539  0.80165134
   0.39593424  0.71529743  0.91072727
   0.36787663  0.82722763  0.02256273
   0.37526851  0.90669536  0.11864416
   0.38638991  0.99937932  0.20040244
   0.47782732  0.09026555  0.37656767
   0.50064001  0.18448266  0.47798467
   0.49508497  0.31655520  0.59142134
   0.50863708  0.37788318  0.69803574
   0.50495176  0.48758400  0.79202805
   0.48946592  0.58631251  0.91186745
   0.48930847  0.69950217  0.97060035
   0.48616193  0.78708446  0.08862574
   0.50079377  0.87634513  0.18023279
   0.49472610  0.97833243  0.29897935
   0.60755217  0.08465097  0.49361712
   0.56184430  0.20213625  0.58184679
   0.58876137  0.27876554  0.70350323
   0.60121334  0.41113922  0.80909722
   0.59597491  0.48111230  0.93131502
   0.58914349  0.60909164  0.00456427
   0.58487805  0.69425252  0.10590066
   0.60904433  0.77637688  0.19736251
   0.60233613  0.90271370  0.26814278
   0.60691286  0.97641270  0.39328846
   0.68968043  0.09118377  0.60053991
   0.69480486  0.18700198  0.68710615
   0.65729590  0.26793470  0.78141864
   0.70782189  0.40510736  0.88967054
   0.68877519  0.48817256  0.01326590
   0.70284935  0.58529649  0.11198283
   0.72572951  0.69772840  0.19999937
   0.72110784  0.79890656  0.29651407
   0.69150556  0.89540511  0.38756150
   0.71103742  0.99157877  0.48376499
   0.78360957  0.09244156  0.70684019
   0.80276145  0.19286665  0.76647592
   0.76975112  0.30184307  0.88573207
   0.79206627  0.40495735  0.02341896
   0.79776115  0.51974494  0.10198774
   0.81787224  0.60359816  0.21521183
   0.81996292  0.72276265  0.29566037
   0.83784102  0.79691974  0.42508588
   0.81700237  0.90549851  0.48881887
   0.78019713  0.99571763  0.58772773
   0.90008362  0.07592009  0.80439221
   0.88252028  0.21560626  0.88432164
   0.91094004  0.32357716  0.98826641
   0.90085431  0.42819154  0.10496598
   0.90651711  0.51535296  0.19849307
   0.88671477  0.58370094  0.31685674
   0.92125854  0.70956231  0.41786038
   0.92516480  0.78691102  0.51830414
   0.89477608  0.91573135  0.59546950
   0.88596084  0.00329539  0.65702408
   0.98905677  0.11121428  0.89267791
   0.98466669  0.21092383  0.00959439
   0.97323375  0.31269961  0.11661925
   0.00478178  0.42310302  0.17563193
   0.99467422  0.47834626  0.32875800
   0.01060545  0.60773279  0.39980454
   0.03285606  0.70096179  0.49980011
   0.99941542  0.79323471  0.61647166
   0.00506875  0.90249845  0.69620767
   0.00020680  0.02081953  0.79450302
   0.18964204  0.19750329  0.00457347
   0.19761714  0.30178083  0.08284719
   0.19504941  0.39441422  0.18036651
   0.20670561  0.52170915  0.28809666
   0.20313928  0.61043892  0.37491707
   0.17990163  0.69909184  0.51420017
   0.20124302  0.81076325  0.63836070
   0.22323265  0.90417699  0.70735384
   0.19311019  0.03055187  0.80321394
   0.19420858  0.08739447  0.90871397
   0.32038590  0.22251603  0.09671960
   0.29153442  0.28855835  0.18467224
   0.29790714  0.41225209  0.28344913
   0.27187952  0.46797738  0.41624989
   0.29479233  0.59570069  0.47048658
   0.29532283  0.70950074  0.59152794
   0.30107199  0.78884177  0.71403552
   0.30716858  0.89299660  0.82929376
   0.29080842  0.01225459  0.91260920
   0.28968824  0.10266545  0.02316231
   0.38853304  0.18416980  0.23170024
   0.39626407  0.30501367  0.28710326
   0.41663270  0.40686100  0.39396279
   0.40501554  0.50202180  0.49034544
   0.41190224  0.59757543  0.59627353
   0.42369202  0.71253598  0.69041155
   0.40036860  0.80222617  0.81087220
   0.40069223  0.88913567  0.91487877
   0.36613218  0.98810091  0.03787212
   0.38180101  0.11325208  0.11704665
   0.50051175  0.19858297  0.29957871
   0.50939978  0.30895754  0.36931356
   0.49736205  0.40414480  0.45792042
   0.50533250  0.52422138  0.58695020
   0.50227236  0.64012270  0.69579715
   0.50507766  0.70678223  0.82909928
   0.50818771  0.82459542  0.91436738
   0.48399204  0.93869331  0.99724586
   0.49926846  0.00491791  0.12897338
   0.49131248  0.11993891  0.23744369
   0.59862372  0.15937210  0.38459440
   0.58580823  0.27524542  0.49070911
   0.58510533  0.40282718  0.57931889
   0.58627748  0.50056691  0.67804037
   0.58790357  0.57712868  0.80545178
   0.62793326  0.68964475  0.90129896
   0.60758358  0.80032932  0.01230866
   0.59208673  0.87819235  0.10697517
   0.59972334  0.00630197  0.20245692
   0.60069799  0.07709374  0.31340576
   0.70120499  0.22208515  0.52950188
   0.66638181  0.31280349  0.58651396
   0.66208080  0.41305063  0.68178831
   0.68953212  0.49863249  0.81179431
   0.67288452  0.58280724  0.90357623
   0.69280217  0.68868459  0.01102511
   0.72276907  0.81049396  0.09371446
   0.72541622  0.88530772  0.18932529
   0.71097428  0.99351599  0.30499792
   0.70965830  0.09832408  0.39875726
   0.79060713  0.23182642  0.62313424
   0.76184894  0.33952281  0.69600976
   0.77194417  0.42649879  0.79778482
   0.78384905  0.50934744  0.92147516
   0.77729193  0.59938943  0.98703434
   0.81072759  0.69800157  0.08410003
   0.82577542  0.77836536  0.18129381
   0.82193901  0.89600373  0.30034562
   0.82246278  0.00133892  0.40913282
   0.79174190  0.10252025  0.50618633
   0.89879343  0.22479251  0.70101215
   0.86873474  0.32585780  0.77797416
   0.86935867  0.39271761  0.90612111
   0.87413217  0.49698173  0.99934452
   0.89853889  0.59185637  0.08092257
   0.91075816  0.67231232  0.20413812
   0.89740969  0.80405179  0.30159259
   0.93426464  0.89035050  0.42230070
   0.90302485  0.00039295  0.50277696
   0.88797695  0.12059084  0.60052187
   0.99560535  0.22672828  0.78956443
   0.99115187  0.29639783  0.89904705
   0.00127530  0.42020767  0.99791149
   0.02227636  0.51318619  0.07491861
   0.01838241  0.58148688  0.19622614
   0.98750534  0.69302580  0.30816600
   0.00385749  0.78800677  0.43460409
   0.01919547  0.89130601  0.52518903
   0.00655509  0.01200160  0.59134391
   0.00638299  0.10472827  0.70607230
   0.10881029  0.21141803  0.90562047
   0.09194898  0.31161835  0.99468344
   0.12532638  0.41513045  0.06382119
   0.12391046  0.49668531  0.19906301
   0.09442183  0.59039830  0.28458454
   0.11617740  0.70509950  0.38499958
   0.11911071  0.80728312  0.52180429
   0.09809683  0.90524942  0.62429345
   0.11898493  0.02419201  0.69941957
   0.08425417  0.12359870  0.80063554
   0.31900323  0.30036706  0.00044325
   0.29415199  0.41091807  0.10033126
   0.30256174  0.50863358  0.19393078
   0.30545990  0.57483162  0.30476428
   0.29245282  0.72249332  0.40282944
   0.28734655  0.80058793  0.52079898
   0.30029089  0.90511336  0.59281770
   0.32553721  0.00208461  0.74060090
   0.31413262  0.12796839  0.79667142
   0.29272206  0.18404904  0.91310073
   0.38801411  0.30271219  0.12510730
   0.40515592  0.40128161  0.19253304
   0.41900565  0.49290796  0.30725131
   0.38113301  0.59809651  0.40168112
   0.41671317  0.68843919  0.50038839
   0.40766367  0.80801555  0.58760973
   0.39698739  0.90136686  0.71260792
   0.42238269  0.01505698  0.83806103
   0.40624455  0.10930260  0.93065305
   0.39638624  0.19572730  0.00447124
   0.52254111  0.28904605  0.19878869
   0.50496578  0.39175734  0.29154796
   0.51102377  0.50430135  0.37906862
   0.51534732  0.58587907  0.48420090
   0.53668403  0.71914976  0.56993876
   0.50660811  0.79250499  0.71989384
   0.50694301  0.90671102  0.81658931
   0.49296833  0.00711670  0.92573749
   0.48876426  0.09903216  0.04908127
   0.48218343  0.19513631  0.13779930
   0.60737107  0.27285395  0.29878992
   0.60036463  0.38918051  0.36949946
   0.58986637  0.48952364  0.46629742
   0.61460737  0.60207678  0.57581201
   0.60778266  0.69583494  0.69473552
   0.60059017  0.78860598  0.78874924
   0.58057407  0.89318351  0.89973165
   0.59636267  0.01387645  0.02039656
   0.60931612  0.10786561  0.11119126
   0.59927267  0.18516511  0.20808369
   0.70478582  0.27676682  0.37794341
   0.69124899  0.39251935  0.48599914
   0.68453474  0.50934477  0.56686316
   0.68988487  0.59186044  0.69054163
   0.69371264  0.70614636  0.78632856
   0.70192283  0.80025518  0.90879861
   0.70733640  0.90691854  0.98398279
   0.70944839  0.98949073  0.10053302
   0.71524615  0.07121788  0.21472345
   0.70231907  0.18657796  0.26768621
   0.79223143  0.27486329  0.47272898
   0.79188091  0.39741227  0.57142656
   0.77753160  0.47886892  0.65975934
   0.76129859  0.58010260  0.80494730
   0.78039729  0.70444771  0.89268814
   0.81209527  0.78743048  0.96740632
   0.81693716  0.88709551  0.07636919
   0.81476562  0.97041747  0.17455309
   0.82542831  0.07878798  0.28595758
   0.81764695  0.18001914  0.37106413
   0.87789596  0.32033806  0.61778806
   0.90451234  0.40563718  0.67241664
   0.85735097  0.50261272  0.78035192
   0.86610284  0.59863477  0.89108645
   0.90787931  0.69410900  0.96747479
   0.90741215  0.78456813  0.08556750
   0.92879925  0.87912693  0.18172797
   0.91339538  0.97435855  0.31822910
   0.91413395  0.07130755  0.40966987
   0.89156832  0.20516806  0.52168996
   0.01064310  0.30613919  0.69539821
   0.98159265  0.39650565  0.81116123
   0.98140469  0.50561689  0.89794644
   0.98920221  0.61434989  0.99822996
   0.01631727  0.69092489  0.11523975
   0.98776796  0.78343788  0.19150053
   0.98923639  0.89126619  0.28811900
   0.03746776  0.00446116  0.41676525
   0.02643833  0.10531849  0.52111220
   0.98469363  0.20300252  0.62489459
   0.10298890  0.29728935  0.79021643
   0.08808469  0.39863237  0.89423736
   0.11381861  0.52107575  0.99154650
   0.09048857  0.60977316  0.07333656
   0.10108229  0.70045584  0.21706681
   0.07205105  0.80868417  0.29783310
   0.09992916  0.90533987  0.41004300
   0.09677547  0.01590342  0.52197497
   0.09800183  0.11580921  0.62372487
   0.09478541  0.20206923  0.71642118
   0.18401827  0.30179857  0.91206157
   0.21893392  0.42144880  0.98582208
   0.20063877  0.52497397  0.10583269
   0.19546026  0.61568911  0.18840931
   0.22654330  0.68824746  0.28990705
   0.20102166  0.81219993  0.40737059
   0.19865007  0.91624981  0.52197848
   0.20490142  0.02746230  0.63310536
   0.20432715  0.12040982  0.71092881
   0.20665795  0.21583506  0.82098476
   0.40925246  0.40564747  0.00718546
   0.39442302  0.49714335  0.10398756
   0.39960782  0.58883953  0.21421334
   0.38441144  0.70047704  0.31518204
   0.38776769  0.79866879  0.41734013
   0.39923871  0.90104170  0.49885375
   0.41226746  0.98942556  0.59813419
   0.41608929  0.10113268  0.69475533
   0.41508727  0.21379232  0.82878038
   0.39414245  0.29053585  0.90437093
   0.49318914  0.39820985  0.09855571
   0.51928065  0.50342236  0.20303205
   0.50868868  0.60364730  0.31889720
   0.49593590  0.72215831  0.40006127
   0.49581612  0.81349462  0.48927455
   0.51510056  0.90338726  0.61282934
   0.50788084  0.00328125  0.70868694
   0.51281547  0.11361495  0.80562219
   0.49957087  0.19243054  0.94612122
   0.46156096  0.30505291  0.03838781
   0.60658208  0.38736492  0.21136706
   0.58217080  0.49925782  0.28675993
   0.60739566  0.60242512  0.39389547
   0.60656475  0.69301620  0.45931888
   0.57821418  0.80183447  0.58878567
   0.57834880  0.92050531  0.72402967
   0.58983821  0.02591030  0.80700325
   0.60555112  0.10096052  0.94195639
   0.60563661  0.20507190  0.02402015
   0.60684803  0.29727237  0.11921797
   0.69431131  0.42137634  0.30054291
   0.70784648  0.50647572  0.40722491
   0.69781132  0.59974328  0.48787799
   0.68194165  0.71344158  0.61262574
   0.70211113  0.82388375  0.68705646
   0.69629874  0.89988452  0.82174091
   0.69525117  0.02245818  0.89903863
   0.73137524  0.09065602  0.01655726
   0.70635344  0.19457418  0.11151362
   0.71643569  0.30264573  0.18939625
   0.78457249  0.38288755  0.39199843
   0.78788242  0.51310292  0.47569458
   0.77177857  0.59246243  0.58513124
   0.79334159  0.69839917  0.68040403
   0.79405168  0.82401498  0.78901164
   0.82403030  0.90066593  0.86638577
   0.81806591  0.00497609  0.00192744
   0.84559761  0.07615861  0.10210705
   0.81304437  0.18543407  0.18617922
   0.80226849  0.29413743  0.28416835
   0.89238243  0.39019251  0.48431851
   0.91378902  0.49553484  0.59090179
   0.88065603  0.59569585  0.70235923
   0.87441864  0.67674777  0.77637997
   0.89472019  0.80776069  0.84803635
   0.90234569  0.89272636  0.97644777
   0.91690609  0.98613450  0.07447152
   0.93014658  0.08858153  0.20585108
   0.91059237  0.18983997  0.29205361
   0.90072685  0.26738978  0.37898249
   0.99939545  0.38860472  0.57439263
   0.00885658  0.47518733  0.71017016
   0.98529783  0.57696069  0.78869684
   0.97659031  0.69335062  0.87177725
   0.00185090  0.77608920  0.95303429
   0.04586110  0.89486857  0.08069135
   0.00529413  0.99981533  0.19364534
   0.99801828  0.07622186  0.30411713
   0.99516432  0.19517878  0.39068155
   0.98486694  0.28259256  0.52321441
   0.09534792  0.40195861  0.71986342
   0.10454507  0.49777586  0.82371141
   0.10705122  0.60040867  0.90057725
   0.09999683  0.69903242  0.98806228
   0.11445373  0.77670872  0.09106206
   0.07300073  0.89784551  0.20129161
   0.09852005  0.99468812  0.30410873
   0.11942955  0.10098809  0.38195276
   0.10474051  0.19217423  0.50848048
   0.10206964  0.28155675  0.61874691
   0.20417948  0.41672922  0.79520076
   0.21426676  0.49664393  0.88230092
   0.22034901  0.60047827  0.98443638
   0.18859718  0.66577334  0.08945800
   0.17786638  0.77910844  0.21047251
   0.18495736  0.88113332  0.27714978
   0.18894306  0.99887368  0.40819076
   0.19193684  0.10213770  0.51323216
   0.19993577  0.21462998  0.60621339
   0.21234508  0.30089937  0.69255151
   0.31397860  0.40297524  0.87472568
   0.31956512  0.51148780  0.99973934
   0.30613678  0.58042681  0.10533560
   0.31118983  0.70055469  0.18694254
   0.29328806  0.79926243  0.28458120
   0.28069253  0.90584735  0.42266334
   0.29232709  0.00077358  0.51300378
   0.30439727  0.10043421  0.59383950
   0.31891743  0.22161191  0.71133364
   0.32154816  0.31476849  0.80698621
