 500 500   0   0
  0.2153794E+02  0.2208300E-08  0.2208300E-08  0.2208300E-08  0.5000000E-15
  1.000000000000000E-004
  CAR 
 Li                                      
      3.06407641     -3.50191896  301      0.23097955      1.00000000
     -3.502  0.0000E+00  0.0000E+00
     -3.480  0.0000E+00  0.0000E+00
     -3.458  0.0000E+00  0.0000E+00
     -3.436  0.0000E+00  0.0000E+00
     -3.414  0.0000E+00  0.0000E+00
     -3.392  0.0000E+00  0.0000E+00
     -3.371  0.7863E-13  0.1721E-14
     -3.349  0.1936E-09  0.4239E-11
     -3.327  0.1687E-06  0.3696E-08
     -3.305  0.5199E-04  0.1142E-05
     -3.283  0.5713E-02  0.1262E-03
     -3.261  0.2262E+00  0.5078E-02
     -3.239  0.3271E+01  0.7667E-01
     -3.217  0.1752E+02  0.4602E+00
     -3.196  0.3520E+02  0.1231E+01
     -3.174  0.2671E+02  0.1815E+01
     -3.152  0.8117E+01  0.1993E+01
     -3.130  0.6868E+01  0.2143E+01
     -3.108  0.3130E+02  0.2828E+01
     -3.086  0.7528E+02  0.4476E+01
     -3.064  0.9069E+02  0.6461E+01
     -3.042  0.5399E+02  0.7642E+01
     -3.020  0.1639E+02  0.8001E+01
     -2.999  0.1597E+02  0.8350E+01
     -2.977  0.5146E+02  0.9477E+01
     -2.955  0.8830E+02  0.1141E+02
     -2.933  0.7752E+02  0.1311E+02
     -2.911  0.3686E+02  0.1391E+02
     -2.889  0.2687E+02  0.1450E+02
     -2.867  0.6362E+02  0.1589E+02
     -2.845  0.1092E+03  0.1828E+02
     -2.823  0.1053E+03  0.2059E+02
     -2.802  0.5349E+02  0.2176E+02
     -2.780  0.2780E+02  0.2237E+02
     -2.758  0.6417E+02  0.2377E+02
     -2.736  0.1312E+03  0.2664E+02
     -2.714  0.1619E+03  0.3019E+02
     -2.692  0.1173E+03  0.3276E+02
     -2.670  0.4738E+02  0.3379E+02
     -2.648  0.1816E+02  0.3419E+02
     -2.626  0.4376E+02  0.3515E+02
     -2.605  0.9191E+02  0.3716E+02
     -2.583  0.8862E+02  0.3910E+02
     -2.561  0.4849E+02  0.4016E+02
     -2.539  0.5735E+02  0.4142E+02
     -2.517  0.1081E+03  0.4378E+02
     -2.495  0.1409E+03  0.4686E+02
     -2.473  0.1310E+03  0.4973E+02
     -2.451  0.8322E+02  0.5155E+02
     -2.429  0.6143E+02  0.5290E+02
     -2.408  0.1102E+03  0.5531E+02
     -2.386  0.1720E+03  0.5907E+02
     -2.364  0.1930E+03  0.6330E+02
     -2.342  0.1663E+03  0.6694E+02
     -2.320  0.1010E+03  0.6915E+02
     -2.298  0.4504E+02  0.7014E+02
     -2.276  0.5006E+02  0.7123E+02
     -2.254  0.8513E+02  0.7309E+02
     -2.232  0.8373E+02  0.7493E+02
     -2.211  0.5327E+02  0.7609E+02
     -2.189  0.6369E+02  0.7749E+02
     -2.167  0.1167E+03  0.8004E+02
     -2.145  0.1562E+03  0.8346E+02
     -2.123  0.1547E+03  0.8685E+02
     -2.101  0.1072E+03  0.8919E+02
     -2.079  0.7636E+02  0.9086E+02
     -2.057  0.1214E+03  0.9352E+02
     -2.036  0.1848E+03  0.9756E+02
     -2.014  0.1988E+03  0.1019E+03
     -1.992  0.1576E+03  0.1054E+03
     -1.970  0.9440E+02  0.1074E+03
     -1.948  0.7212E+02  0.1090E+03
     -1.926  0.1137E+03  0.1115E+03
     -1.904  0.1559E+03  0.1149E+03
     -1.882  0.1391E+03  0.1180E+03
     -1.860  0.8647E+02  0.1198E+03
     -1.839  0.8155E+02  0.1216E+03
     -1.817  0.1417E+03  0.1247E+03
     -1.795  0.1948E+03  0.1290E+03
     -1.773  0.1936E+03  0.1332E+03
     -1.751  0.1452E+03  0.1364E+03
     -1.729  0.1001E+03  0.1386E+03
     -1.707  0.1164E+03  0.1412E+03
     -1.685  0.1710E+03  0.1449E+03
     -1.663  0.1999E+03  0.1493E+03
     -1.642  0.1745E+03  0.1531E+03
     -1.620  0.1071E+03  0.1554E+03
     -1.598  0.7193E+02  0.1570E+03
     -1.576  0.1055E+03  0.1593E+03
     -1.554  0.1418E+03  0.1624E+03
     -1.532  0.1364E+03  0.1654E+03
     -1.510  0.1008E+03  0.1676E+03
     -1.488  0.9687E+02  0.1697E+03
     -1.466  0.1381E+03  0.1728E+03
     -1.445  0.1530E+03  0.1761E+03
     -1.423  0.1225E+03  0.1788E+03
     -1.401  0.1005E+03  0.1810E+03
     -1.379  0.1447E+03  0.1842E+03
     -1.357  0.2116E+03  0.1888E+03
     -1.335  0.2532E+03  0.1943E+03
     -1.313  0.2618E+03  0.2001E+03
     -1.291  0.2302E+03  0.2051E+03
     -1.269  0.1731E+03  0.2089E+03
     -1.248  0.1467E+03  0.2121E+03
     -1.226  0.1703E+03  0.2158E+03
     -1.204  0.1903E+03  0.2200E+03
     -1.182  0.1783E+03  0.2239E+03
     -1.160  0.1340E+03  0.2268E+03
     -1.138  0.1001E+03  0.2290E+03
     -1.116  0.1262E+03  0.2318E+03
     -1.094  0.1729E+03  0.2356E+03
     -1.073  0.1696E+03  0.2393E+03
     -1.051  0.1420E+03  0.2424E+03
     -1.029  0.1599E+03  0.2459E+03
     -1.007  0.2002E+03  0.2503E+03
     -0.985  0.2118E+03  0.2549E+03
     -0.963  0.2070E+03  0.2594E+03
     -0.941  0.1766E+03  0.2633E+03
     -0.919  0.1153E+03  0.2658E+03
     -0.897  0.8885E+02  0.2678E+03
     -0.876  0.9489E+02  0.2698E+03
     -0.854  0.8417E+02  0.2717E+03
     -0.832  0.9881E+02  0.2738E+03
     -0.810  0.1654E+03  0.2775E+03
     -0.788  0.2259E+03  0.2824E+03
     -0.766  0.2576E+03  0.2880E+03
     -0.744  0.2673E+03  0.2939E+03
     -0.722  0.2474E+03  0.2993E+03
     -0.700  0.2173E+03  0.3041E+03
     -0.679  0.2009E+03  0.3085E+03
     -0.657  0.2145E+03  0.3132E+03
     -0.635  0.2500E+03  0.3186E+03
     -0.613  0.2678E+03  0.3245E+03
     -0.591  0.2381E+03  0.3297E+03
     -0.569  0.1775E+03  0.3336E+03
     -0.547  0.1363E+03  0.3366E+03
     -0.525  0.1328E+03  0.3395E+03
     -0.503  0.1430E+03  0.3426E+03
     -0.482  0.1511E+03  0.3459E+03
     -0.460  0.1788E+03  0.3498E+03
     -0.438  0.2205E+03  0.3547E+03
     -0.416  0.2331E+03  0.3598E+03
     -0.394  0.2030E+03  0.3642E+03
     -0.372  0.1677E+03  0.3679E+03
     -0.350  0.1701E+03  0.3716E+03
     -0.328  0.2069E+03  0.3761E+03
     -0.306  0.2343E+03  0.3813E+03
     -0.285  0.2397E+03  0.3865E+03
     -0.263  0.2368E+03  0.3917E+03
     -0.241  0.2271E+03  0.3967E+03
     -0.219  0.2131E+03  0.4013E+03
     -0.197  0.2062E+03  0.4058E+03
     -0.175  0.1980E+03  0.4102E+03
     -0.153  0.1800E+03  0.4141E+03
     -0.131  0.1721E+03  0.4179E+03
     -0.109  0.1956E+03  0.4221E+03
     -0.088  0.2293E+03  0.4272E+03
     -0.066  0.2421E+03  0.4325E+03
     -0.044  0.2384E+03  0.4377E+03
     -0.022  0.2299E+03  0.4427E+03
     -0.000  0.2237E+03  0.4476E+03
      0.022  0.2264E+03  0.4526E+03
      0.044  0.2281E+03  0.4576E+03
      0.066  0.2078E+03  0.4621E+03
      0.087  0.1855E+03  0.4662E+03
      0.109  0.1918E+03  0.4704E+03
      0.131  0.2178E+03  0.4751E+03
      0.153  0.2456E+03  0.4805E+03
      0.175  0.2594E+03  0.4862E+03
      0.197  0.2514E+03  0.4917E+03
      0.219  0.2432E+03  0.4970E+03
      0.241  0.2461E+03  0.5024E+03
      0.263  0.2438E+03  0.5077E+03
      0.284  0.2291E+03  0.5128E+03
      0.306  0.2249E+03  0.5177E+03
      0.328  0.2572E+03  0.5233E+03
      0.350  0.2898E+03  0.5296E+03
      0.372  0.2948E+03  0.5361E+03
      0.394  0.2927E+03  0.5425E+03
      0.416  0.2918E+03  0.5489E+03
      0.438  0.2894E+03  0.5552E+03
      0.460  0.2781E+03  0.5613E+03
      0.481  0.2608E+03  0.5670E+03
      0.503  0.2565E+03  0.5726E+03
      0.525  0.2554E+03  0.5782E+03
      0.547  0.2440E+03  0.5836E+03
      0.569  0.2353E+03  0.5887E+03
      0.591  0.2312E+03  0.5938E+03
      0.613  0.2202E+03  0.5986E+03
      0.635  0.2157E+03  0.6033E+03
      0.657  0.2186E+03  0.6081E+03
      0.678  0.2159E+03  0.6128E+03
      0.700  0.2098E+03  0.6174E+03
      0.722  0.2031E+03  0.6219E+03
      0.744  0.1966E+03  0.6262E+03
      0.766  0.2014E+03  0.6306E+03
      0.788  0.1990E+03  0.6349E+03
      0.810  0.1933E+03  0.6392E+03
      0.832  0.2042E+03  0.6436E+03
      0.854  0.2158E+03  0.6484E+03
      0.875  0.2160E+03  0.6531E+03
      0.897  0.2222E+03  0.6579E+03
      0.919  0.2354E+03  0.6631E+03
      0.941  0.2391E+03  0.6683E+03
      0.963  0.2441E+03  0.6737E+03
      0.985  0.2499E+03  0.6791E+03
      1.007  0.2486E+03  0.6846E+03
      1.029  0.2445E+03  0.6899E+03
      1.051  0.2349E+03  0.6951E+03
      1.072  0.2214E+03  0.6999E+03
      1.094  0.2215E+03  0.7048E+03
      1.116  0.2239E+03  0.7097E+03
      1.138  0.2188E+03  0.7145E+03
      1.160  0.2175E+03  0.7192E+03
      1.182  0.2139E+03  0.7239E+03
      1.204  0.2120E+03  0.7285E+03
      1.226  0.2116E+03  0.7332E+03
      1.247  0.2128E+03  0.7378E+03
      1.269  0.2147E+03  0.7425E+03
      1.291  0.2043E+03  0.7470E+03
      1.313  0.1950E+03  0.7513E+03
      1.335  0.1981E+03  0.7556E+03
      1.357  0.2006E+03  0.7600E+03
      1.379  0.1904E+03  0.7642E+03
      1.401  0.1807E+03  0.7681E+03
      1.423  0.1791E+03  0.7720E+03
      1.444  0.1796E+03  0.7760E+03
      1.466  0.1744E+03  0.7798E+03
      1.488  0.1630E+03  0.7833E+03
      1.510  0.1581E+03  0.7868E+03
      1.532  0.1641E+03  0.7904E+03
      1.554  0.1737E+03  0.7942E+03
      1.576  0.1791E+03  0.7981E+03
      1.598  0.1873E+03  0.8022E+03
      1.620  0.1922E+03  0.8064E+03
      1.641  0.1991E+03  0.8108E+03
      1.663  0.2148E+03  0.8155E+03
      1.685  0.2223E+03  0.8203E+03
      1.707  0.2193E+03  0.8251E+03
      1.729  0.2151E+03  0.8299E+03
      1.751  0.2095E+03  0.8344E+03
      1.773  0.2048E+03  0.8389E+03
      1.795  0.1954E+03  0.8432E+03
      1.817  0.1860E+03  0.8473E+03
      1.838  0.1841E+03  0.8513E+03
      1.860  0.1849E+03  0.8553E+03
      1.882  0.1846E+03  0.8594E+03
      1.904  0.1843E+03  0.8634E+03
      1.926  0.1829E+03  0.8674E+03
      1.948  0.1673E+03  0.8711E+03
      1.970  0.1437E+03  0.8742E+03
      1.992  0.1370E+03  0.8772E+03
      2.014  0.1452E+03  0.8804E+03
      2.035  0.1552E+03  0.8838E+03
      2.057  0.1643E+03  0.8874E+03
      2.079  0.1752E+03  0.8912E+03
      2.101  0.1785E+03  0.8951E+03
      2.123  0.1738E+03  0.8989E+03
      2.145  0.1659E+03  0.9026E+03
      2.167  0.1578E+03  0.9060E+03
      2.189  0.1566E+03  0.9095E+03
      2.210  0.1518E+03  0.9128E+03
      2.232  0.1476E+03  0.9160E+03
      2.254  0.1553E+03  0.9194E+03
      2.276  0.1661E+03  0.9230E+03
      2.298  0.1649E+03  0.9267E+03
      2.320  0.1584E+03  0.9301E+03
      2.342  0.1556E+03  0.9335E+03
      2.364  0.1588E+03  0.9370E+03
      2.386  0.1642E+03  0.9406E+03
      2.407  0.1601E+03  0.9441E+03
      2.429  0.1491E+03  0.9474E+03
      2.451  0.1404E+03  0.9504E+03
      2.473  0.1431E+03  0.9536E+03
      2.495  0.1584E+03  0.9570E+03
      2.517  0.1717E+03  0.9608E+03
      2.539  0.1720E+03  0.9646E+03
      2.561  0.1724E+03  0.9683E+03
      2.583  0.1731E+03  0.9721E+03
      2.604  0.1798E+03  0.9761E+03
      2.626  0.1886E+03  0.9802E+03
      2.648  0.1794E+03  0.9841E+03
      2.670  0.1732E+03  0.9879E+03
      2.692  0.1785E+03  0.9918E+03
      2.714  0.1704E+03  0.9955E+03
      2.736  0.1341E+03  0.9985E+03
      2.758  0.9146E+02  0.1000E+04
      2.780  0.5101E+02  0.1002E+04
      2.801  0.1636E+02  0.1002E+04
      2.823  0.2328E+01  0.1002E+04
      2.845  0.1322E+00  0.1002E+04
      2.867  0.2868E-02  0.1002E+04
      2.889  0.2315E-04  0.1002E+04
      2.911  0.6834E-07  0.1002E+04
      2.933  0.7287E-10  0.1002E+04
      2.955  0.2536E-13  0.1002E+04
      2.977  0.0000E+00  0.1002E+04
      2.998  0.0000E+00  0.1002E+04
      3.020  0.0000E+00  0.1002E+04
      3.042  0.0000E+00  0.1002E+04
      3.064  0.0000E+00  0.1002E+04
