Li                                      
           1
    22.083000   -0.000000    0.000000
    -0.000000   22.083000    0.000000
     0.000000    0.000000   22.083000
   Li
   500
Direct configuration=     1
   0.99181392  0.00011994  0.01218316
   0.00193444  0.11788781  0.09056327
   0.97093110  0.20586070  0.20485987
   0.97289812  0.28443434  0.30297865
   0.99066995  0.41593125  0.40745490
   0.00179642  0.51321915  0.48286767
   0.98067951  0.60158299  0.58394392
   0.00036519  0.72038094  0.68579580
   0.01054741  0.79070758  0.83871089
   0.99141341  0.89524489  0.88578675
   0.12814365  0.99956597  0.08828816
   0.10598500  0.13272616  0.20568381
   0.08245372  0.19639660  0.30310867
   0.08260144  0.30551571  0.40620457
   0.08578397  0.44667951  0.52771729
   0.10556010  0.52123782  0.59423139
   0.09291444  0.61294967  0.67941274
   0.09721041  0.69167304  0.80973359
   0.08196345  0.81022430  0.89185263
   0.08855809  0.89299734  0.99951166
   0.23416622  0.01578273  0.20975992
   0.20146417  0.13131853  0.29940129
   0.18498439  0.20960175  0.41225409
   0.17231351  0.34272721  0.50702716
   0.21755533  0.41030169  0.62228853
   0.21800897  0.49400613  0.68136803
   0.17272460  0.58699951  0.77985469
   0.19441316  0.68897897  0.88989751
   0.18113561  0.83855148  0.99591669
   0.22588295  0.91269372  0.10267507
   0.30246015  0.99512156  0.30297525
   0.29550183  0.12302277  0.42402979
   0.25586061  0.21505314  0.52178338
   0.30010458  0.32014816  0.60737476
   0.29978655  0.41709723  0.69805528
   0.29338722  0.52199561  0.78959153
   0.27675601  0.60401267  0.91721506
   0.29348260  0.72174996  0.00244607
   0.30760719  0.79059831  0.10134724
   0.31253038  0.90859772  0.21848703
   0.42914593  0.00828074  0.39428888
   0.40154487  0.11439975  0.50536698
   0.40272858  0.18466999  0.60388074
   0.39903607  0.31119643  0.70230437
   0.41626688  0.40285958  0.80771466
   0.39887280  0.51519045  0.88860339
   0.38581368  0.62561564  0.98365089
   0.41015080  0.68512763  0.11713453
   0.40730048  0.79300102  0.21913275
   0.41761147  0.89620994  0.32085296
   0.51558639  0.01433000  0.48825180
   0.49666603  0.08749467  0.59898781
   0.47230184  0.20323285  0.68444036
   0.49017422  0.29608946  0.76918948
   0.50707038  0.41494290  0.91217124
   0.50296024  0.49925885  0.99948064
   0.48543288  0.60252277  0.09180459
   0.49317541  0.68862576  0.21121244
   0.50489698  0.78889740  0.28102151
   0.52016342  0.87248498  0.41462136
   0.62836659  0.01274950  0.58741671
   0.60568992  0.09995878  0.69858385
   0.61915456  0.21326797  0.77221953
   0.61087095  0.29265312  0.87397833
   0.61782241  0.41692361  0.99179680
   0.60160575  0.49318740  0.11152033
   0.58246188  0.59992784  0.19711660
   0.57633652  0.69327851  0.30632256
   0.60550750  0.79571273  0.40777079
   0.61907075  0.90638633  0.52060854
   0.70462518  0.98749485  0.70407330
   0.69351410  0.11565208  0.78873748
   0.68560795  0.19662374  0.90763187
   0.69084887  0.30279158  0.97505028
   0.70257131  0.39969132  0.09671932
   0.67193516  0.50944395  0.21948194
   0.70043539  0.62755637  0.28115087
   0.69357543  0.69411607  0.41506604
   0.69186275  0.79599183  0.52335501
   0.72081972  0.91436231  0.60992760
   0.80082621  0.98335765  0.78639482
   0.78568380  0.07883534  0.86301760
   0.82137182  0.18808345  0.97866514
   0.76641467  0.29631080  0.12140384
   0.78412763  0.39985216  0.21589880
   0.79097954  0.50024613  0.30340242
   0.78087519  0.59378198  0.36729415
   0.77002518  0.69102041  0.50364772
   0.79437380  0.77390653  0.59808607
   0.78950810  0.88041710  0.68807062
   0.89451918  0.03108014  0.89090617
   0.91108934  0.11352769  0.98598590
   0.87565467  0.20384801  0.10161579
   0.88563458  0.29653469  0.22288487
   0.91413572  0.41212151  0.27532284
   0.89496826  0.48222486  0.38425934
   0.88924387  0.61661537  0.49714638
   0.89628498  0.69529705  0.58726457
   0.89260916  0.80325653  0.73156255
   0.88321605  0.88258183  0.78882013
   0.11420709  0.12397297  0.01356881
   0.12350359  0.22647957  0.11920369
   0.08661500  0.32456488  0.22530587
   0.06789046  0.41355546  0.30091213
   0.11322881  0.50572061  0.40397368
   0.09673277  0.61348887  0.50716705
   0.11006108  0.70783520  0.58887229
   0.08538763  0.79484336  0.71436734
   0.09449161  0.91326906  0.80125109
   0.08269006  0.99308854  0.89456022
   0.21332552  0.10823369  0.08956804
   0.19680099  0.23087807  0.19239797
   0.17234788  0.28993236  0.30416015
   0.22106428  0.39250959  0.40569228
   0.21221278  0.49969270  0.51234901
   0.22923523  0.57813921  0.58778115
   0.17870748  0.71239642  0.70141308
   0.19429964  0.81109702  0.80804523
   0.18877989  0.88134685  0.90146946
   0.21481058  0.99226860  0.99303483
   0.29970887  0.10972546  0.21012445
   0.28734805  0.20408554  0.30218161
   0.28409788  0.30759676  0.41247771
   0.33119899  0.40846654  0.49048881
   0.33577185  0.51965291  0.57416225
   0.29036755  0.61880383  0.67542424
   0.28471258  0.72053999  0.79899540
   0.30212901  0.80605463  0.91419287
   0.32556775  0.91360009  0.98406310
   0.34034567  0.00073057  0.10757384
   0.38820007  0.07986616  0.31149099
   0.38621263  0.21752795  0.41114405
   0.40051881  0.29406323  0.49992667
   0.38722649  0.39056455  0.62125649
   0.38926334  0.52202029  0.70898008
   0.40812181  0.62275270  0.80565821
   0.38249712  0.71697618  0.89068633
   0.38211544  0.79853354  0.00891902
   0.40809473  0.90532415  0.11747886
   0.42874607  0.00239459  0.19839531
   0.49194202  0.11592973  0.41608026
   0.50406382  0.19455324  0.49183701
   0.49644210  0.30443349  0.60470136
   0.50395720  0.40953629  0.69766898
   0.48847626  0.48732339  0.80510750
   0.48792084  0.59366566  0.88858222
   0.50854985  0.68490445  0.00638085
   0.49849617  0.80421131  0.10810946
   0.51894291  0.88158905  0.23474771
   0.53832494  0.99712940  0.30417064
   0.59338569  0.09035086  0.51238245
   0.58285615  0.19194830  0.60935771
   0.59493902  0.31905696  0.70089249
   0.58256977  0.41952011  0.80921428
   0.60801689  0.50114291  0.88992519
   0.60459484  0.59352538  0.00661166
   0.60837333  0.71361586  0.10306908
   0.58867038  0.79220066  0.21783736
   0.61036961  0.92281127  0.31260301
   0.60694261  0.00219201  0.40265179
   0.70925274  0.09377421  0.59531933
   0.71008822  0.21869372  0.67650766
   0.70786313  0.32038581  0.79896818
   0.70016167  0.42564755  0.89680949
   0.70892063  0.50401806  0.01360907
   0.69019584  0.58660690  0.11296318
   0.68356726  0.67722575  0.19730781
   0.69522705  0.77157602  0.30774182
   0.71035996  0.89100018  0.41632991
   0.72374410  0.99460423  0.49512016
   0.78411599  0.09750864  0.70025898
   0.77529369  0.21831538  0.80019332
   0.77279289  0.32052109  0.89398851
   0.78109311  0.40527558  0.01839649
   0.77295635  0.50886980  0.12126772
   0.80655264  0.62059592  0.20961350
   0.81712311  0.71318432  0.27243661
   0.80409229  0.76435921  0.40277918
   0.80848069  0.88162123  0.50802868
   0.80171392  0.00503916  0.60202765
   0.89504144  0.12979945  0.81642440
   0.90509630  0.20047957  0.91497575
   0.88070368  0.31137021  0.00984868
   0.86169675  0.40861386  0.10979690
   0.91310741  0.48174104  0.20139090
   0.88370415  0.59756005  0.29095481
   0.87347405  0.67297055  0.40023083
   0.89736759  0.75969871  0.49747306
   0.89876443  0.87579402  0.60016776
   0.89514494  0.99786789  0.70979685
   0.01210487  0.13178353  0.90563289
   0.00443042  0.21443925  0.00825817
   0.00044931  0.31436915  0.11805483
   0.97949918  0.40635228  0.19799457
   0.98101260  0.51978378  0.32139752
   0.99858986  0.59876566  0.40367299
   0.00693538  0.67654100  0.50342217
   0.00402075  0.79565644  0.60348086
   0.00778988  0.88951313  0.72454582
   0.00377313  0.99288616  0.80448715
   0.19397750  0.21958640  0.99560613
   0.24378900  0.29707988  0.12119531
   0.20263785  0.41126897  0.21532889
   0.20412123  0.49302107  0.29344441
   0.20810147  0.59278362  0.41372203
   0.22461793  0.70935677  0.49633434
   0.19981789  0.81282515  0.60602573
   0.19401720  0.88758647  0.70613505
   0.15915046  0.98713185  0.78440292
   0.20928604  0.11154071  0.90426144
   0.29025900  0.22613352  0.11730569
   0.28033609  0.31184712  0.23252056
   0.30168800  0.40811100  0.32725836
   0.29057607  0.49538153  0.40750520
   0.29809331  0.58455902  0.48915191
   0.31218676  0.69215188  0.58079445
   0.29311738  0.80157685  0.69501064
   0.32292821  0.88707387  0.80081597
   0.30465409  0.99230443  0.88942563
   0.31507142  0.09342341  0.99504639
   0.42843856  0.21263279  0.20920054
   0.39875476  0.31094571  0.30089842
   0.42106719  0.38282726  0.39879896
   0.42084494  0.52301614  0.48898107
   0.39206888  0.62975169  0.63051960
   0.39074662  0.72251563  0.71501111
   0.39535371  0.80555132  0.78679458
   0.42847120  0.89454951  0.89035382
   0.41955877  0.99639548  0.99403180
   0.41861667  0.12019251  0.09358766
   0.49927734  0.18860052  0.29872986
   0.50005839  0.31993620  0.40169831
   0.46537939  0.41185993  0.51011194
   0.47001858  0.49079445  0.60618463
   0.50334751  0.61795073  0.70798971
   0.51512384  0.69472852  0.80085197
   0.47211733  0.76727938  0.87148089
   0.48679465  0.86395847  0.99396448
   0.50582761  0.00094640  0.08147313
   0.51397749  0.11114602  0.19594350
   0.58231851  0.20165404  0.38844540
   0.57472699  0.30049222  0.49777914
   0.56747025  0.38383910  0.56939259
   0.58949425  0.49738404  0.70036451
   0.60583199  0.58098487  0.78381161
   0.58356137  0.68107685  0.89717384
   0.62453434  0.80242563  0.98903609
   0.61374017  0.88837121  0.08022161
   0.60758260  0.98960473  0.16894114
   0.60011117  0.10087192  0.31638806
   0.69138703  0.19798528  0.49649754
   0.69634189  0.30442043  0.59195292
   0.70488340  0.39277439  0.67845127
   0.67889164  0.49272214  0.76913483
   0.67743038  0.60846006  0.89364747
   0.69927274  0.71478714  0.00555075
   0.71597433  0.82112975  0.10477534
   0.69724835  0.90397901  0.22147135
   0.67307051  0.00877018  0.30594091
   0.69237480  0.09757980  0.42144406
   0.84532785  0.19855338  0.59865522
   0.80075666  0.31184445  0.68481039
   0.79306382  0.42111279  0.79744897
   0.77924413  0.52253712  0.86670164
   0.79144354  0.59057358  0.00160550
   0.78900043  0.69467415  0.11239315
   0.81466800  0.79972568  0.19978207
   0.82430683  0.88474412  0.32402175
   0.81068463  0.99057235  0.39174811
   0.78715307  0.10722262  0.50102414
   0.87666528  0.18894399  0.68572845
   0.86537559  0.30305146  0.78742018
   0.88775437  0.40206935  0.88872178
   0.87387913  0.49432243  0.00047136
   0.91739028  0.60030573  0.11160443
   0.92161590  0.71361689  0.17991588
   0.93022521  0.79335761  0.29279791
   0.90737820  0.87673851  0.39409820
   0.88984925  0.97290713  0.47550923
   0.90935041  0.06836319  0.59144871
   0.98116996  0.23117993  0.77636781
   0.00663863  0.31660055  0.90912075
   0.98318588  0.39442571  0.02685409
   0.99655312  0.49433402  0.10169891
   0.00473884  0.63032876  0.20018489
   0.00510244  0.69470315  0.29360191
   0.00284902  0.74082842  0.41469875
   0.00329674  0.87684511  0.45606069
   0.02172618  0.96586260  0.60486639
   0.00272252  0.09647785  0.69123219
   0.06145126  0.21704558  0.89459814
   0.10437319  0.32480063  0.02156226
   0.10319991  0.38162832  0.10467106
   0.07678152  0.50376161  0.19241445
   0.10091419  0.58995089  0.28940886
   0.12703717  0.67876862  0.39692426
   0.10097118  0.80243236  0.48263615
   0.10442535  0.88861788  0.58757227
   0.09490247  0.00350085  0.68972271
   0.10515945  0.09599535  0.81827326
   0.34340421  0.30355148  0.98077799
   0.32086753  0.42570483  0.10438597
   0.30663903  0.50931560  0.19041388
   0.27864977  0.59153608  0.28032701
   0.32544381  0.72692258  0.40542497
   0.33474577  0.81669717  0.50135777
   0.31242237  0.91372677  0.60051039
   0.31090764  0.98219155  0.70906959
   0.30267298  0.06697001  0.79947761
   0.27592929  0.20874376  0.88889244
   0.40343789  0.27262018  0.11049597
   0.40290371  0.39527047  0.20323279
   0.38672926  0.49842462  0.31888503
   0.37725534  0.60467200  0.40286831
   0.40118680  0.68069193  0.51585174
   0.42456278  0.82353745  0.60614665
   0.40777517  0.89709239  0.69145156
   0.42705564  0.98889865  0.79570720
   0.41237714  0.10380320  0.89970147
   0.40306891  0.20945404  0.00111985
   0.51129382  0.30681154  0.17661613
   0.50921994  0.41784315  0.30698314
   0.48404974  0.50684800  0.41284674
   0.51321616  0.60448649  0.51580459
   0.49734454  0.69666905  0.58542518
   0.52154400  0.78463281  0.67688731
   0.52984441  0.88702490  0.75602858
   0.50595774  0.00396849  0.89389886
   0.50011894  0.10603092  0.99619572
   0.50210131  0.22349346  0.11081011
   0.59575877  0.31004020  0.29325666
   0.58035287  0.41006089  0.39846024
   0.55607124  0.49378425  0.49384679
   0.57401416  0.59593613  0.59749016
   0.60445976  0.69674694  0.69351180
   0.61512994  0.79487960  0.82158502
   0.60430663  0.88718302  0.89074538
   0.58469744  0.98117295  0.98125371
   0.59327323  0.09366716  0.09218237
   0.58229159  0.18684200  0.22362872
   0.68347950  0.28693762  0.39910542
   0.70321081  0.40459654  0.48961333
   0.67775366  0.45590245  0.59322074
   0.67461843  0.60854175  0.70302344
   0.68262299  0.71256791  0.80530071
   0.70672494  0.79621699  0.90166462
   0.71088735  0.90837341  0.98208974
   0.67094513  0.00400873  0.09186966
   0.68243521  0.09235914  0.22317141
   0.70245694  0.17935101  0.34855839
   0.79973481  0.28934192  0.50053381
   0.81083925  0.42579309  0.59295965
   0.81014872  0.52030617  0.67280415
   0.78481093  0.56387154  0.79464812
   0.80502768  0.67575358  0.87603134
   0.81509734  0.81609871  0.98844601
   0.79165841  0.89545872  0.11127236
   0.80388550  0.98704201  0.19883792
   0.78304378  0.08780329  0.27811115
   0.79657328  0.18301218  0.39454528
   0.90983937  0.31945884  0.58585411
   0.88722171  0.40968203  0.66265953
   0.91146469  0.49604065  0.78164770
   0.88834296  0.59561973  0.90152260
   0.89129398  0.68346554  0.99543996
   0.92116825  0.78415929  0.07657378
   0.92851780  0.90855785  0.21499334
   0.90796974  0.97932627  0.27391788
   0.89195072  0.09498622  0.40180984
   0.94760420  0.19600013  0.50566886
   0.99115505  0.31380739  0.68122517
   0.00966803  0.38486662  0.77240032
   0.99249115  0.48298901  0.91369095
   0.99298353  0.59840767  0.99355422
   0.99339950  0.71094207  0.05191443
   0.00913695  0.79081695  0.18590089
   0.03913731  0.89947060  0.29180084
   0.98355350  0.98007601  0.35928040
   0.00861169  0.06108849  0.49431604
   0.99990713  0.18446000  0.62243583
   0.08653460  0.28718698  0.80410731
   0.09070399  0.40228064  0.91229054
   0.10672614  0.48120477  0.01022898
   0.08463845  0.61037891  0.08189984
   0.08275737  0.69833128  0.19550849
   0.10778932  0.79227283  0.28786862
   0.10903020  0.89055115  0.39449779
   0.13421893  0.94328082  0.47292577
   0.10380537  0.09296948  0.57989914
   0.10208190  0.17505133  0.67770016
   0.19516040  0.31560460  0.92265544
   0.23872113  0.40782438  0.02930803
   0.18429983  0.49700855  0.10410596
   0.16898596  0.59458211  0.17272263
   0.19035486  0.68058284  0.31568328
   0.21059429  0.77900787  0.39682446
   0.22438802  0.87215179  0.49308996
   0.20501823  0.00163615  0.60168015
   0.22114550  0.10781328  0.69461773
   0.19193839  0.19891222  0.80932503
   0.43864222  0.40407193  0.00693300
   0.41637495  0.51070205  0.08936794
   0.37379231  0.57159760  0.20708694
   0.40044652  0.68767060  0.30175098
   0.42447083  0.79686880  0.39742024
   0.40830787  0.92841848  0.49996712
   0.41619298  0.00470063  0.58979488
   0.40795218  0.11304984  0.71206246
   0.38408547  0.19632735  0.82324329
   0.42057537  0.29883253  0.90181968
   0.51246872  0.38921745  0.09592734
   0.49994159  0.48798063  0.21174440
   0.48462370  0.59516637  0.30229328
   0.49620271  0.69768596  0.40804286
   0.49776656  0.76723732  0.52222468
   0.52382626  0.92151239  0.61314371
   0.52018906  0.02072470  0.70698616
   0.50550166  0.10503519  0.80154335
   0.50569700  0.20891422  0.89407883
   0.50695991  0.29479510  0.00609713
   0.61062509  0.40741676  0.21936623
   0.60097900  0.51426944  0.29558592
   0.58534401  0.59640818  0.40070461
   0.61435916  0.68476976  0.51386453
   0.60586239  0.79358711  0.59947524
   0.62326227  0.88567080  0.68941916
   0.59363196  0.01056655  0.77722647
   0.58558974  0.10422045  0.89088424
   0.60274824  0.19594240  0.00204381
   0.60982633  0.31594694  0.10034858
   0.70500265  0.39163319  0.32690881
   0.67246365  0.50689095  0.41073063
   0.67623520  0.59222629  0.51627999
   0.68212173  0.71691697  0.61027678
   0.70890098  0.79736478  0.71070728
   0.70121900  0.91609904  0.80816467
   0.69593999  0.98416132  0.86473272
   0.70084536  0.07670274  0.96826401
   0.70379046  0.18262526  0.08580130
   0.71918776  0.29898988  0.21649289
   0.80170968  0.40045481  0.40649553
   0.79674448  0.52116716  0.49253982
   0.79076457  0.61315910  0.61242034
   0.79478482  0.68899171  0.70656790
   0.78436612  0.78689484  0.80295873
   0.80541832  0.89923996  0.88404147
   0.78342236  0.97564391  0.97821948
   0.78780810  0.07817405  0.11462082
   0.79926261  0.16904277  0.21215910
   0.79048453  0.28582771  0.32574736
   0.90200368  0.40630845  0.49388047
   0.89396548  0.53803221  0.59434692
   0.89519038  0.62053451  0.72189673
   0.90806505  0.69171886  0.80218936
   0.89784108  0.76445578  0.87309651
   0.90387271  0.89639620  0.96871578
   0.88893460  0.99851108  0.09987761
   0.87045209  0.10850778  0.21525236
   0.90613909  0.20216544  0.30966101
   0.90981898  0.31858775  0.41591432
   0.98911685  0.41821714  0.60420916
   0.99679844  0.50781646  0.68856848
   0.00671917  0.60171586  0.79220637
   0.98928906  0.68120027  0.90751751
   0.98476211  0.81974232  0.97562256
   0.00555951  0.89200214  0.10515019
   0.00675189  0.02933382  0.20585496
   0.98064420  0.10563854  0.30922732
   0.01339524  0.17624298  0.41431584
   0.00846360  0.31389227  0.50835254
   0.11463752  0.41413801  0.70599666
   0.08486912  0.49423422  0.80661888
   0.11304602  0.56984324  0.92746219
   0.07967742  0.71390634  0.00408748
   0.12653651  0.80192507  0.08785895
   0.11320810  0.88551085  0.18942296
   0.09614518  0.02025593  0.29592577
   0.12344253  0.06283900  0.39300019
   0.07899305  0.19805045  0.51108179
   0.10392808  0.30050410  0.63295037
   0.17655198  0.39753251  0.81283357
   0.20647672  0.46914933  0.91614522
   0.21046776  0.56863218  0.00800503
   0.19698197  0.69007596  0.06714190
   0.20823505  0.79733957  0.19732411
   0.20808620  0.88939565  0.29210014
   0.21456037  0.00389678  0.40159559
   0.19332161  0.11461016  0.50791664
   0.21216602  0.19050826  0.62366206
   0.21729972  0.28408446  0.72658229
   0.29742161  0.39251938  0.89853971
   0.32822393  0.50231908  0.00180099
   0.31831756  0.58314270  0.08613513
   0.28357771  0.68801799  0.19297514
   0.30064741  0.80251259  0.28759682
   0.32731358  0.88992312  0.41141748
   0.30870391  0.00207545  0.50056554
   0.33785613  0.08612326  0.60358221
   0.31077506  0.20007600  0.72634117
   0.30958938  0.30139209  0.81205283
