 432 432   0   0
  0.2035379E+02  0.2064000E-08  0.2064000E-08  0.2064000E-08  0.5000000E-15
  1.000000000000000E-004
  CAR 
 Li                                      
      3.68885330     -3.45464915  301      0.40975676      1.00000000
     -3.455  0.0000E+00  0.0000E+00
     -3.431  0.0000E+00  0.0000E+00
     -3.407  0.0000E+00  0.0000E+00
     -3.383  0.0000E+00  0.0000E+00
     -3.359  0.0000E+00  0.0000E+00
     -3.336  0.0000E+00  0.0000E+00
     -3.312  0.0000E+00  0.0000E+00
     -3.288  0.3866E-11  0.9207E-13
     -3.264  0.1034E-07  0.2462E-09
     -3.240  0.8057E-05  0.1921E-06
     -3.217  0.1848E-02  0.4420E-04
     -3.193  0.1266E+00  0.3058E-02
     -3.169  0.2638E+01  0.6586E-01
     -3.145  0.1712E+02  0.4735E+00
     -3.121  0.3534E+02  0.1315E+01
     -3.097  0.2346E+02  0.1874E+01
     -3.074  0.5055E+01  0.1994E+01
     -3.050  0.2762E+01  0.2060E+01
     -3.026  0.2395E+02  0.2630E+01
     -3.002  0.8064E+02  0.4550E+01
     -2.978  0.9645E+02  0.6847E+01
     -2.955  0.4167E+02  0.7839E+01
     -2.931  0.6901E+01  0.8003E+01
     -2.907  0.8616E+01  0.8209E+01
     -2.883  0.4798E+02  0.9351E+01
     -2.859  0.9862E+02  0.1170E+02
     -2.836  0.7416E+02  0.1347E+02
     -2.812  0.2051E+02  0.1395E+02
     -2.788  0.5022E+01  0.1407E+02
     -2.764  0.2912E+02  0.1477E+02
     -2.740  0.1006E+03  0.1716E+02
     -2.716  0.1294E+03  0.2024E+02
     -2.693  0.6221E+02  0.2172E+02
     -2.669  0.1215E+02  0.2201E+02
     -2.645  0.1719E+02  0.2242E+02
     -2.621  0.8496E+02  0.2445E+02
     -2.597  0.1774E+03  0.2867E+02
     -2.574  0.1564E+03  0.3240E+02
     -2.550  0.5825E+02  0.3378E+02
     -2.526  0.1015E+02  0.3402E+02
     -2.502  0.1723E+02  0.3443E+02
     -2.478  0.6791E+02  0.3605E+02
     -2.455  0.1002E+03  0.3844E+02
     -2.431  0.5436E+02  0.3973E+02
     -2.407  0.1161E+02  0.4001E+02
     -2.383  0.1560E+02  0.4038E+02
     -2.359  0.8057E+02  0.4230E+02
     -2.336  0.1736E+03  0.4643E+02
     -2.312  0.1603E+03  0.5025E+02
     -2.288  0.6345E+02  0.5176E+02
     -2.264  0.1635E+02  0.5215E+02
     -2.240  0.5321E+02  0.5342E+02
     -2.216  0.1729E+03  0.5753E+02
     -2.193  0.2603E+03  0.6373E+02
     -2.169  0.1899E+03  0.6825E+02
     -2.145  0.6415E+02  0.6978E+02
     -2.121  0.1250E+02  0.7008E+02
     -2.097  0.2891E+02  0.7077E+02
     -2.074  0.8115E+02  0.7270E+02
     -2.050  0.9017E+02  0.7485E+02
     -2.026  0.4103E+02  0.7582E+02
     -2.002  0.1319E+02  0.7614E+02
     -1.978  0.4737E+02  0.7726E+02
     -1.955  0.1487E+03  0.8081E+02
     -1.931  0.2093E+03  0.8579E+02
     -1.907  0.1350E+03  0.8900E+02
     -1.883  0.3858E+02  0.8992E+02
     -1.859  0.1921E+02  0.9038E+02
     -1.835  0.8776E+02  0.9247E+02
     -1.812  0.2136E+03  0.9756E+02
     -1.788  0.2492E+03  0.1035E+03
     -1.764  0.1457E+03  0.1070E+03
     -1.740  0.4065E+02  0.1079E+03
     -1.716  0.2101E+02  0.1084E+03
     -1.693  0.7989E+02  0.1103E+03
     -1.669  0.1680E+03  0.1143E+03
     -1.645  0.1609E+03  0.1182E+03
     -1.621  0.6774E+02  0.1198E+03
     -1.597  0.3256E+02  0.1206E+03
     -1.574  0.1060E+03  0.1231E+03
     -1.550  0.2216E+03  0.1284E+03
     -1.526  0.2362E+03  0.1340E+03
     -1.502  0.1317E+03  0.1371E+03
     -1.478  0.3832E+02  0.1380E+03
     -1.454  0.4592E+02  0.1391E+03
     -1.431  0.1599E+03  0.1429E+03
     -1.407  0.2634E+03  0.1492E+03
     -1.383  0.2039E+03  0.1541E+03
     -1.359  0.7162E+02  0.1558E+03
     -1.335  0.1726E+02  0.1562E+03
     -1.312  0.4996E+02  0.1574E+03
     -1.288  0.1389E+03  0.1607E+03
     -1.264  0.1753E+03  0.1648E+03
     -1.240  0.1032E+03  0.1673E+03
     -1.216  0.2906E+02  0.1680E+03
     -1.193  0.2538E+02  0.1686E+03
     -1.169  0.8408E+02  0.1706E+03
     -1.145  0.1457E+03  0.1741E+03
     -1.121  0.1447E+03  0.1775E+03
     -1.097  0.8864E+02  0.1796E+03
     -1.073  0.7904E+02  0.1815E+03
     -1.050  0.1883E+03  0.1860E+03
     -1.026  0.3059E+03  0.1933E+03
     -1.002  0.3281E+03  0.2011E+03
     -0.978  0.2445E+03  0.2069E+03
     -0.954  0.1133E+03  0.2096E+03
     -0.931  0.7482E+02  0.2114E+03
     -0.907  0.1626E+03  0.2153E+03
     -0.883  0.2314E+03  0.2208E+03
     -0.859  0.1886E+03  0.2253E+03
     -0.835  0.9133E+02  0.2274E+03
     -0.812  0.3039E+02  0.2282E+03
     -0.788  0.6229E+02  0.2296E+03
     -0.764  0.1696E+03  0.2337E+03
     -0.740  0.2071E+03  0.2386E+03
     -0.716  0.1140E+03  0.2413E+03
     -0.692  0.3968E+02  0.2423E+03
     -0.669  0.8335E+02  0.2443E+03
     -0.645  0.2210E+03  0.2495E+03
     -0.621  0.3109E+03  0.2569E+03
     -0.597  0.2519E+03  0.2629E+03
     -0.573  0.1290E+03  0.2660E+03
     -0.550  0.9540E+02  0.2683E+03
     -0.526  0.9931E+02  0.2706E+03
     -0.502  0.4844E+02  0.2718E+03
     -0.478  0.1330E+02  0.2721E+03
     -0.454  0.4086E+02  0.2731E+03
     -0.431  0.1466E+03  0.2766E+03
     -0.407  0.2511E+03  0.2825E+03
     -0.383  0.2627E+03  0.2888E+03
     -0.359  0.2102E+03  0.2938E+03
     -0.335  0.1450E+03  0.2972E+03
     -0.312  0.1337E+03  0.3004E+03
     -0.288  0.1690E+03  0.3045E+03
     -0.264  0.2120E+03  0.3095E+03
     -0.240  0.2334E+03  0.3151E+03
     -0.216  0.2469E+03  0.3209E+03
     -0.192  0.2402E+03  0.3267E+03
     -0.169  0.1727E+03  0.3308E+03
     -0.145  0.1114E+03  0.3334E+03
     -0.121  0.1158E+03  0.3362E+03
     -0.097  0.1241E+03  0.3391E+03
     -0.073  0.1262E+03  0.3421E+03
     -0.050  0.1155E+03  0.3449E+03
     -0.026  0.1705E+03  0.3490E+03
     -0.002  0.2689E+03  0.3554E+03
      0.022  0.3253E+03  0.3631E+03
      0.046  0.3229E+03  0.3708E+03
      0.069  0.2405E+03  0.3765E+03
      0.093  0.1239E+03  0.3795E+03
      0.117  0.8403E+02  0.3815E+03
      0.141  0.1636E+03  0.3854E+03
      0.165  0.2504E+03  0.3913E+03
      0.189  0.2573E+03  0.3975E+03
      0.212  0.1863E+03  0.4019E+03
      0.236  0.9116E+02  0.4041E+03
      0.260  0.8018E+02  0.4060E+03
      0.284  0.1223E+03  0.4089E+03
      0.308  0.1574E+03  0.4126E+03
      0.331  0.2036E+03  0.4175E+03
      0.355  0.2131E+03  0.4226E+03
      0.379  0.1776E+03  0.4268E+03
      0.403  0.1645E+03  0.4307E+03
      0.427  0.2102E+03  0.4357E+03
      0.450  0.2622E+03  0.4419E+03
      0.474  0.2816E+03  0.4487E+03
      0.498  0.2656E+03  0.4550E+03
      0.522  0.2089E+03  0.4600E+03
      0.546  0.1403E+03  0.4633E+03
      0.570  0.1149E+03  0.4660E+03
      0.593  0.1464E+03  0.4695E+03
      0.617  0.1946E+03  0.4741E+03
      0.641  0.2192E+03  0.4794E+03
      0.665  0.2154E+03  0.4845E+03
      0.689  0.2286E+03  0.4899E+03
      0.712  0.2640E+03  0.4962E+03
      0.736  0.2904E+03  0.5031E+03
      0.760  0.3029E+03  0.5104E+03
      0.784  0.3062E+03  0.5176E+03
      0.808  0.2853E+03  0.5244E+03
      0.831  0.2386E+03  0.5301E+03
      0.855  0.2128E+03  0.5352E+03
      0.879  0.2270E+03  0.5406E+03
      0.903  0.2464E+03  0.5465E+03
      0.927  0.2603E+03  0.5527E+03
      0.951  0.2626E+03  0.5589E+03
      0.974  0.2451E+03  0.5647E+03
      0.998  0.2282E+03  0.5702E+03
      1.022  0.2118E+03  0.5752E+03
      1.046  0.2180E+03  0.5804E+03
      1.070  0.2433E+03  0.5862E+03
      1.093  0.2638E+03  0.5925E+03
      1.117  0.2715E+03  0.5990E+03
      1.141  0.2606E+03  0.6052E+03
      1.165  0.2489E+03  0.6111E+03
      1.189  0.2238E+03  0.6164E+03
      1.212  0.1709E+03  0.6205E+03
      1.236  0.1390E+03  0.6238E+03
      1.260  0.1650E+03  0.6277E+03
      1.284  0.2175E+03  0.6329E+03
      1.308  0.2408E+03  0.6386E+03
      1.331  0.2256E+03  0.6440E+03
      1.355  0.1781E+03  0.6482E+03
      1.379  0.1075E+03  0.6508E+03
      1.403  0.5065E+02  0.6520E+03
      1.427  0.6216E+02  0.6535E+03
      1.451  0.1340E+03  0.6567E+03
      1.474  0.1663E+03  0.6606E+03
      1.498  0.1211E+03  0.6635E+03
      1.522  0.9413E+02  0.6658E+03
      1.546  0.1412E+03  0.6691E+03
      1.570  0.1940E+03  0.6738E+03
      1.593  0.2153E+03  0.6789E+03
      1.617  0.2191E+03  0.6841E+03
      1.641  0.1968E+03  0.6888E+03
      1.665  0.1411E+03  0.6921E+03
      1.689  0.8466E+02  0.6942E+03
      1.712  0.8605E+02  0.6962E+03
      1.736  0.1397E+03  0.6995E+03
      1.760  0.1840E+03  0.7039E+03
      1.784  0.2000E+03  0.7087E+03
      1.808  0.2031E+03  0.7135E+03
      1.832  0.2036E+03  0.7184E+03
      1.855  0.1825E+03  0.7227E+03
      1.879  0.1681E+03  0.7267E+03
      1.903  0.1900E+03  0.7312E+03
      1.927  0.2143E+03  0.7363E+03
      1.951  0.2244E+03  0.7417E+03
      1.974  0.2182E+03  0.7469E+03
      1.998  0.1753E+03  0.7510E+03
      2.022  0.1294E+03  0.7541E+03
      2.046  0.1311E+03  0.7573E+03
      2.070  0.1601E+03  0.7611E+03
      2.093  0.1752E+03  0.7652E+03
      2.117  0.1714E+03  0.7693E+03
      2.141  0.1600E+03  0.7731E+03
      2.165  0.1551E+03  0.7768E+03
      2.189  0.1401E+03  0.7802E+03
      2.213  0.1062E+03  0.7827E+03
      2.236  0.6311E+02  0.7842E+03
      2.260  0.6167E+02  0.7857E+03
      2.284  0.9108E+02  0.7878E+03
      2.308  0.1066E+03  0.7904E+03
      2.332  0.1067E+03  0.7929E+03
      2.355  0.8126E+02  0.7948E+03
      2.379  0.3891E+02  0.7958E+03
      2.403  0.9189E+01  0.7960E+03
      2.427  0.5190E+01  0.7961E+03
      2.451  0.3195E+02  0.7969E+03
      2.474  0.8659E+02  0.7989E+03
      2.498  0.8926E+02  0.8011E+03
      2.522  0.3452E+02  0.8019E+03
      2.546  0.4828E+01  0.8020E+03
      2.570  0.2327E+00  0.8020E+03
      2.594  0.4682E-02  0.8020E+03
      2.617  0.7076E-01  0.8020E+03
      2.641  0.1668E+01  0.8020E+03
      2.665  0.1430E+02  0.8024E+03
      2.689  0.5217E+02  0.8036E+03
      2.713  0.1016E+03  0.8060E+03
      2.736  0.1327E+03  0.8092E+03
      2.760  0.1291E+03  0.8123E+03
      2.784  0.1051E+03  0.8148E+03
      2.808  0.8580E+02  0.8168E+03
      2.832  0.5992E+02  0.8182E+03
      2.855  0.6849E+02  0.8199E+03
      2.879  0.1091E+03  0.8225E+03
      2.903  0.1372E+03  0.8257E+03
      2.927  0.1512E+03  0.8293E+03
      2.951  0.1577E+03  0.8331E+03
      2.975  0.1572E+03  0.8368E+03
      2.998  0.1357E+03  0.8401E+03
      3.022  0.9203E+02  0.8423E+03
      3.046  0.7808E+02  0.8441E+03
      3.070  0.8414E+02  0.8461E+03
      3.094  0.5800E+02  0.8475E+03
      3.117  0.1894E+02  0.8480E+03
      3.141  0.1049E+02  0.8482E+03
      3.165  0.3634E+02  0.8491E+03
      3.189  0.7056E+02  0.8508E+03
      3.213  0.7963E+02  0.8527E+03
      3.236  0.9299E+02  0.8549E+03
      3.260  0.1130E+03  0.8576E+03
      3.284  0.1053E+03  0.8601E+03
      3.308  0.7490E+02  0.8618E+03
      3.332  0.5670E+02  0.8632E+03
      3.355  0.5964E+02  0.8646E+03
      3.379  0.4292E+02  0.8656E+03
      3.403  0.1345E+02  0.8660E+03
      3.427  0.1548E+01  0.8660E+03
      3.451  0.6025E-01  0.8660E+03
      3.475  0.7539E-03  0.8660E+03
      3.498  0.2929E-05  0.8660E+03
      3.522  0.3449E-08  0.8660E+03
      3.546  0.1210E-11  0.8660E+03
      3.570  0.0000E+00  0.8660E+03
      3.594  0.0000E+00  0.8660E+03
      3.617  0.0000E+00  0.8660E+03
      3.641  0.0000E+00  0.8660E+03
      3.665  0.0000E+00  0.8660E+03
      3.689  0.0000E+00  0.8660E+03
