 running on   64 total cores
 distrk:  each k-point on   32 cores,    2 groups
 distr:  one band on   32 cores,    1 groups
 vasp.6.2.1 16May21 (build Nov 23 2021 15:40:41) complex                        
  
 POSCAR found type information on POSCAR Li
 POSCAR found :  1 types and     432 ions
 scaLAPACK will be used
 -----------------------------------------------------------------------------
|                                                                             |
|           W    W    AA    RRRRR   N    N  II  N    N   GGGG   !!!           |
|           W    W   A  A   R    R  NN   N  II  NN   N  G    G  !!!           |
|           W    W  A    A  R    R  N N  N  II  N N  N  G       !!!           |
|           W WW W  AAAAAA  RRRRR   N  N N  II  N  N N  G  GGG   !            |
|           WW  WW  A    A  R   R   N   NN  II  N   NN  G    G                |
|           W    W  A    A  R    R  N    N  II  N    N   GGGG   !!!           |
|                                                                             |
|     For optimal performance we recommend to set                             |
|       NCORE = 2 up to number-of-cores-per-socket                            |
|     NCORE specifies how many cores store one orbital (NPAR=cpu/NCORE).      |
|     This setting can greatly improve the performance of VASP for DFT.       |
|     The default, NCORE=1 might be grossly inefficient on modern             |
|     multi-core architectures or massively parallel machines. Do your        |
|     own testing! More info at https://www.vasp.at/wiki/index.php/NCORE      |
|     Unfortunately you need to use the default for GW and RPA                |
|     calculations (for HF NCORE is supported but not extensively tested      |
|     yet).                                                                   |
|                                                                             |
 -----------------------------------------------------------------------------

 -----------------------------------------------------------------------------
|                                                                             |
|               ----> ADVICE to this user running VASP <----                  |
|                                                                             |
|     You have a (more or less) 'large supercell' and for larger cells it     |
|     might be more efficient to use real-space projection operators.         |
|     Therefore, try LREAL= Auto in the INCAR file.                           |
|     Mind: If you want to do very accurate calculations, keep the            |
|     reciprocal projection scheme (i.e. LREAL=.FALSE.).                      |
|                                                                             |
 -----------------------------------------------------------------------------

 LDA part: xc-table for Pade appr. of Perdew
 POSCAR found type information on POSCAR Li
 POSCAR found :  1 types and     432 ions
 POSCAR, INCAR and KPOINTS ok, starting setup
 FFT: planning ...
 WAVECAR not read
 entering main loop
       N       E                     dE             d eps       ncg     rms          rms(c)
DAV:   1    -0.264039871707E+03   -0.26404E+03   -0.10472E+05  3464   0.655E+02
DAV:   2    -0.774845466520E+03   -0.51081E+03   -0.46713E+03  4012   0.669E+01
DAV:   3    -0.810055684606E+03   -0.35210E+02   -0.32127E+02  4320   0.140E+01
DAV:   4    -0.811205506025E+03   -0.11498E+01   -0.11341E+01  3888   0.278E+00
DAV:   5    -0.811230683928E+03   -0.25178E-01   -0.25152E-01  4080   0.441E-01    0.683E+00
DAV:   6    -0.809485510922E+03    0.17452E+01   -0.58288E+00  3896   0.365E+00    0.561E+00
DAV:   7    -0.805455452947E+03    0.40301E+01   -0.51859E+00  3952   0.333E+00    0.322E+00
DAV:   8    -0.804365089619E+03    0.10904E+01   -0.22629E+00  3848   0.155E+00    0.169E+00
DAV:   9    -0.804217040528E+03    0.14805E+00   -0.11256E+00  3744   0.871E-01    0.968E-01
DAV:  10    -0.804211451208E+03    0.55893E-02   -0.20565E-01  3928   0.475E-01    0.681E-01
DAV:  11    -0.804176609865E+03    0.34841E-01   -0.66612E-02  3864   0.336E-01    0.422E-01
DAV:  12    -0.804166978388E+03    0.96315E-02   -0.19642E-02  3792   0.145E-01    0.169E-01
DAV:  13    -0.804167100163E+03   -0.12177E-03   -0.68627E-03  3832   0.821E-02    0.898E-02
DAV:  14    -0.804166769925E+03    0.33024E-03   -0.16964E-03  3856   0.531E-02    0.615E-02
DAV:  15    -0.804166420139E+03    0.34979E-03   -0.46992E-04  3832   0.301E-02    0.334E-02
DAV:  16    -0.804166308539E+03    0.11160E-03   -0.30690E-04  3728   0.158E-02    0.105E-02
DAV:  17    -0.804166311630E+03   -0.30913E-05   -0.53770E-05  3984   0.860E-03
   1 F= -.80416631E+03 E0= -.80412202E+03  d E =-.885735E-01
