Li                                      
           1
    20.640000    0.000000    0.000000
     0.000000   20.640000    0.000000
     0.000000    0.000000   20.640000
   Li
   432
Direct configuration=     1
   0.99766876  0.00816889  0.00795660
   0.90289457  0.07134058  0.09387786
   0.83024286  0.16888426  0.18410291
   0.75450664  0.25332153  0.25458240
   0.65635866  0.33090417  0.32622735
   0.57484362  0.41545193  0.42093514
   0.49911482  0.50065832  0.50629511
   0.41772883  0.56794082  0.57503793
   0.31599395  0.66905837  0.65925123
   0.23660242  0.75719632  0.75397719
   0.16097283  0.83544944  0.84189930
   0.08200722  0.92422515  0.92749317
   0.10202596  0.91409855  0.09150074
   0.00397670  0.00153876  0.16898662
   0.90104518  0.07460391  0.25667574
   0.82069937  0.16940725  0.34615021
   0.75550848  0.26090196  0.41304089
   0.67388365  0.32986729  0.51296201
   0.57376568  0.40759943  0.58519359
   0.50327007  0.50057961  0.64562118
   0.41584114  0.56513284  0.74605578
   0.32352841  0.66565137  0.82629165
   0.25369182  0.75718780  0.91808067
   0.16955023  0.83798362  0.99177711
   0.16915922  0.83455142  0.15916590
   0.08287775  0.92961466  0.25843187
   0.99129842  0.99358075  0.33982910
   0.91813809  0.09273181  0.41554442
   0.83863304  0.17253417  0.49093545
   0.76114174  0.25122818  0.58605727
   0.67812193  0.33247426  0.67382018
   0.58374537  0.41822306  0.74393386
   0.50779719  0.48399711  0.82082531
   0.40289524  0.58057774  0.91021051
   0.32873242  0.66481058  0.00029243
   0.27289981  0.75983829  0.08419268
   0.25796545  0.75201956  0.24740531
   0.16993909  0.83357170  0.34843985
   0.08243682  0.90648760  0.42598232
   0.99948727  0.01735125  0.48274204
   0.93378154  0.10887448  0.57777234
   0.84491719  0.15666820  0.65625742
   0.76694768  0.23711851  0.75054417
   0.67575403  0.33855168  0.83777528
   0.59387681  0.40742604  0.92366687
   0.50547233  0.48954742  0.00636506
   0.42033195  0.56856625  0.09252586
   0.34409717  0.67169889  0.16811958
   0.33723210  0.67218128  0.34323570
   0.24361644  0.74542662  0.42762844
   0.17991016  0.83223213  0.49943286
   0.07567274  0.91215978  0.57444479
   0.00641621  0.98955094  0.65871861
   0.92350098  0.07032913  0.75384546
   0.83774536  0.16645407  0.83661496
   0.76908808  0.25266546  0.93397640
   0.65489282  0.33041526  0.01143019
   0.57775237  0.41695693  0.09327551
   0.50474328  0.51692352  0.16861797
   0.39825572  0.58269521  0.25390130
   0.41886742  0.58754261  0.42488443
   0.32242963  0.66369771  0.51053731
   0.25152899  0.74831287  0.57585256
   0.15489429  0.82576706  0.66496091
   0.08244746  0.90617664  0.75134091
   0.99209936  0.99753068  0.83548525
   0.91993743  0.08391019  0.91542654
   0.83025758  0.15476953  0.00920023
   0.74057206  0.25828003  0.09650423
   0.65497736  0.33158697  0.17765244
   0.56922373  0.41480692  0.25281744
   0.48534390  0.50595145  0.32883976
   0.07351243  0.08492736  0.90702312
   0.98214643  0.14443974  0.01219522
   0.92481051  0.23030073  0.08470644
   0.83679021  0.34510547  0.15373013
   0.74783484  0.41893678  0.25196731
   0.66253361  0.48585114  0.33708595
   0.57506602  0.57637873  0.41618365
   0.50111458  0.65873575  0.50331855
   0.41879981  0.74089593  0.59603849
   0.32752515  0.82464741  0.65594787
   0.24126995  0.90753900  0.74148633
   0.17789943  0.99522889  0.85257812
   0.17555389  0.00564301  0.01146971
   0.10010391  0.08594231  0.08943986
   0.00141272  0.15073861  0.17369825
   0.90978477  0.24818502  0.24979310
   0.82774546  0.34853508  0.32934515
   0.74794928  0.41315892  0.43316961
   0.66152762  0.49988504  0.51006698
   0.58227100  0.59072541  0.58203176
   0.49916220  0.66482346  0.67199475
   0.40118977  0.73995130  0.74611805
   0.32707648  0.83996834  0.83778391
   0.25451924  0.92144249  0.91021691
   0.25540584  0.92583873  0.07168070
   0.17982518  0.00810526  0.17536547
   0.08439310  0.07130372  0.25701794
   0.99659411  0.16515766  0.33599010
   0.92040655  0.26125299  0.41473917
   0.84092238  0.34442541  0.50384944
   0.76281031  0.41840601  0.57920290
   0.66636000  0.49010411  0.66339373
   0.57957282  0.57177800  0.75482295
   0.49966622  0.65484894  0.83045638
   0.41807891  0.74266614  0.90546842
   0.33705135  0.83830892  0.99602354
   0.34141263  0.83460694  0.14755285
   0.26139274  0.90037605  0.25120182
   0.17482051  0.99517279  0.34950672
   0.08231245  0.09359967  0.41611390
   0.00091531  0.18624843  0.49791660
   0.91636104  0.24369170  0.56750387
   0.83497702  0.33970631  0.66071145
   0.75326105  0.41893933  0.76009954
   0.64968281  0.49416052  0.83022044
   0.58320018  0.57549859  0.90644651
   0.49560651  0.65800562  0.99886992
   0.43216882  0.75670830  0.07983895
   0.41318536  0.76527004  0.24874374
   0.34151840  0.83695174  0.33297034
   0.26756959  0.92676321  0.42463044
   0.16681290  0.00342536  0.49239030
   0.08920853  0.08192716  0.57902300
   0.01568938  0.17328299  0.66527655
   0.92090953  0.24303780  0.74690734
   0.83211509  0.32122861  0.84569348
   0.75290837  0.42543653  0.92509971
   0.65314904  0.49316849  0.01397613
   0.57267424  0.59160160  0.09401321
   0.49452972  0.66830848  0.17602125
   0.48493510  0.66972574  0.34401845
   0.40619990  0.74856103  0.42950594
   0.33967706  0.83666431  0.49896263
   0.24355812  0.90985122  0.57863124
   0.16517730  0.00386213  0.65874471
   0.08664090  0.09511944  0.73804276
   0.00815102  0.17373909  0.83526429
   0.91985444  0.24776867  0.92559424
   0.83861196  0.33791802  0.00765832
   0.74718533  0.41905485  0.08580489
   0.66487717  0.50199064  0.17118310
   0.57878016  0.59904940  0.25767890
   0.15794382  0.15801993  0.82711055
   0.07592460  0.23984481  0.91836625
   0.98428031  0.31280834  0.99900595
   0.93115926  0.40728380  0.08262885
   0.84098432  0.52061914  0.14648032
   0.75277446  0.57883182  0.24553983
   0.65795996  0.66116328  0.33299258
   0.56941978  0.74687330  0.41903070
   0.49990274  0.83790122  0.49749217
   0.41904689  0.90470180  0.59993521
   0.33574196  0.99181336  0.66102717
   0.23841622  0.07911173  0.74315131
   0.25763041  0.08265299  0.91379069
   0.16602652  0.16529223  0.99128815
   0.08592855  0.24696908  0.07667707
   0.01078127  0.32488166  0.18174206
   0.92602385  0.42578834  0.24924730
   0.84426955  0.51040861  0.32015297
   0.74120291  0.58746347  0.42280832
   0.66683692  0.67355885  0.50994481
   0.59080169  0.75901076  0.58717480
   0.50364235  0.82636728  0.67225956
   0.42560072  0.89398458  0.73704572
   0.33402399  0.97537447  0.80275704
   0.33490377  0.99854090  0.99759027
   0.25952153  0.08895236  0.07891115
   0.17539907  0.17782063  0.16917648
   0.08247443  0.25428236  0.24931996
   0.99157305  0.32677324  0.31691057
   0.91431788  0.41176778  0.41224814
   0.83414970  0.51435776  0.49181399
   0.74815221  0.59107980  0.59482830
   0.65788709  0.66603963  0.66901602
   0.58541560  0.74585319  0.75310682
   0.50895990  0.82262580  0.81827486
   0.42286513  0.92509958  0.91623980
   0.42145860  0.92634387  0.07494540
   0.33576383  0.99805067  0.16502783
   0.24955072  0.08563315  0.25504427
   0.17979078  0.17044465  0.31610736
   0.09564112  0.25743886  0.41485551
   0.99660642  0.33149890  0.49984874
   0.92473713  0.43595389  0.57990598
   0.84316705  0.49334685  0.67255716
   0.74348384  0.58992070  0.74207096
   0.66279978  0.65091516  0.82501611
   0.59381088  0.73574395  0.89779673
   0.49662973  0.82392959  0.97817816
   0.50043599  0.82425143  0.16067831
   0.41528909  0.90926064  0.25441850
   0.34278468  0.00524873  0.32656727
   0.26274754  0.09131744  0.41933955
   0.17244902  0.16969608  0.49596887
   0.09558146  0.25540850  0.57231859
   0.98500785  0.32964228  0.65917766
   0.92149774  0.42066777  0.76978391
   0.83367552  0.51198206  0.82451504
   0.74608846  0.57421683  0.91957352
   0.66882077  0.65578822  0.00711948
   0.58938355  0.73914894  0.08793641
   0.57860107  0.73288127  0.25783536
   0.49933834  0.82640601  0.33272840
   0.42055409  0.93296917  0.42083260
   0.33519334  0.00355921  0.50620743
   0.25275808  0.07317161  0.58790595
   0.17622817  0.16441980  0.66130311
   0.07807485  0.26460978  0.75095371
   0.99618911  0.32594908  0.84263116
   0.91428968  0.41627788  0.91101804
   0.84804455  0.48429586  0.00464467
   0.73721350  0.58614433  0.07699139
   0.67296123  0.66016840  0.16262937
   0.24111896  0.25444912  0.74836558
   0.17398771  0.34386254  0.84588258
   0.07408780  0.40713775  0.92609416
   0.00148924  0.48072730  0.00315589
   0.92057743  0.59811942  0.08688524
   0.84679974  0.65462470  0.15877863
   0.75362106  0.75007547  0.25666595
   0.66316997  0.82593532  0.34858627
   0.57428272  0.93244080  0.41912356
   0.49751440  0.00001465  0.50433022
   0.42094556  0.08643779  0.57906524
   0.32160896  0.16890011  0.64876482
   0.33237608  0.14872632  0.82087293
   0.25755712  0.22805312  0.89566248
   0.16802956  0.33218730  0.98407332
   0.07237153  0.40738749  0.08459291
   0.00873318  0.49904072  0.16327967
   0.94654459  0.59230092  0.24238291
   0.83390732  0.66332503  0.32665224
   0.75820038  0.74504035  0.42637792
   0.66430707  0.83599994  0.50656874
   0.58107788  0.91839983  0.59612499
   0.49276622  0.00075683  0.68356160
   0.40065871  0.08019064  0.74053335
   0.41295094  0.07539696  0.90082129
   0.33803377  0.15930993  0.98511302
   0.25867544  0.25575315  0.07628552
   0.18913861  0.31802975  0.17832798
   0.09678406  0.41183417  0.25446110
   0.00528002  0.50179722  0.33282881
   0.92130656  0.59343886  0.40468202
   0.83591218  0.64157340  0.50826916
   0.75906829  0.74366555  0.58262263
   0.68564947  0.83234322  0.66349122
   0.59264247  0.90970184  0.73540666
   0.49839308  0.97622490  0.81112518
   0.49686553  0.99462077  0.00166929
   0.42745067  0.08801791  0.07981402
   0.33806747  0.16236918  0.16050426
   0.25776701  0.25792936  0.24141317
   0.18088954  0.34254013  0.32035261
   0.06740336  0.40979864  0.41186067
   0.99715216  0.50672168  0.50174607
   0.92101239  0.59044723  0.58577930
   0.84409358  0.67302978  0.66866751
   0.75091824  0.74768499  0.73933487
   0.67550934  0.82856450  0.83674170
   0.58041006  0.91066194  0.89894867
   0.57913560  0.91278079  0.07799193
   0.49558271  0.99413179  0.17706914
   0.42888277  0.09390492  0.25883460
   0.33870647  0.16311202  0.34975006
   0.25910064  0.25441054  0.40952367
   0.18085730  0.33071861  0.48103936
   0.08084076  0.40287029  0.57903416
   0.00428247  0.48590767  0.66374072
   0.92303871  0.58282549  0.75074013
   0.83791670  0.66841421  0.82420123
   0.74899974  0.74852612  0.90683899
   0.65662825  0.81933227  0.97994195
   0.64546748  0.84024051  0.17566171
   0.57622105  0.90819830  0.25844803
   0.50129136  0.99417614  0.34046779
   0.43571235  0.07907548  0.41543381
   0.33543795  0.16831969  0.49754740
   0.23690505  0.24628944  0.58261115
   0.17524174  0.34638951  0.67119361
   0.06852886  0.40620924  0.75939074
   0.00238671  0.51840642  0.84358273
   0.92613096  0.58694545  0.92574123
   0.82719287  0.66981434  0.00345707
   0.73996502  0.76903425  0.08190206
   0.31095734  0.32958781  0.66452394
   0.22686462  0.42250494  0.73820940
   0.15464585  0.49621536  0.84992834
   0.08283969  0.59008707  0.94614741
   0.00347804  0.67738660  0.99678151
   0.91354226  0.75728525  0.08349944
   0.84066523  0.84647009  0.17599410
   0.74487364  0.90811883  0.26223777
   0.65155486  0.00045011  0.33849514
   0.58108957  0.08511574  0.40950391
   0.50323073  0.18301845  0.50333375
   0.39697117  0.24838055  0.58878547
   0.40831591  0.24799573  0.76737753
   0.31717353  0.34245322  0.83063040
   0.26848942  0.42333317  0.92329672
   0.17275187  0.50014205  0.00862552
   0.08469985  0.58664215  0.07647403
   0.02024885  0.66969442  0.14996884
   0.91729760  0.75496295  0.24965944
   0.83561310  0.83131772  0.34277951
   0.75403657  0.92193260  0.43915436
   0.65614320  0.99964069  0.51178104
   0.57350661  0.08915784  0.59098429
   0.49221415  0.16029857  0.67507246
   0.50660685  0.15440100  0.83252155
   0.40957115  0.25165100  0.91355940
   0.31486386  0.32889380  0.99426920
   0.25016980  0.40856283  0.08126303
   0.15177311  0.51363085  0.16168664
   0.08817777  0.59624807  0.24302543
   0.01443826  0.68871724  0.33935881
   0.91558068  0.74828342  0.41443553
   0.84705412  0.83590054  0.49810477
   0.75024181  0.91607479  0.58167598
   0.68439132  0.00392868  0.66354180
   0.60056723  0.08525145  0.73653907
   0.58772262  0.06572565  0.92065666
   0.49699948  0.15862067  0.99787315
   0.41676607  0.24940930  0.08230174
   0.33458126  0.34914192  0.16355957
   0.24653287  0.43721944  0.24462638
   0.15733109  0.50885599  0.32553748
   0.06769122  0.58176135  0.43017776
   0.99650877  0.66741003  0.49935490
   0.93085113  0.74074776  0.57739050
   0.84845366  0.84019872  0.66383424
   0.75715873  0.92744236  0.73775663
   0.67133562  0.00035706  0.82290119
   0.66584195  0.01043300  0.99727575
   0.57660015  0.07030227  0.09458817
   0.49694202  0.17032041  0.17575290
   0.40376579  0.23175749  0.26257938
   0.33407086  0.34415347  0.32860173
   0.23909548  0.41606337  0.39259321
   0.16263178  0.48241766  0.48605803
   0.06535661  0.58031838  0.57913963
   0.99802589  0.67055078  0.66313640
   0.93304352  0.76051127  0.75188063
   0.83984850  0.83885191  0.82515507
   0.75482064  0.92859083  0.90656374
   0.73345268  0.90519445  0.07701961
   0.66200244  0.00242265  0.17798403
   0.56736784  0.09054567  0.26124936
   0.50337670  0.17434412  0.35218009
   0.40029882  0.26845398  0.42518750
   0.31888237  0.34728346  0.48822916
   0.22642604  0.41780185  0.57493939
   0.14978092  0.50029189  0.67087589
   0.07601907  0.58863544  0.74851888
   0.00007066  0.66988419  0.83299366
   0.93417981  0.74353849  0.92607999
   0.83224542  0.83120579  0.00042363
   0.41045520  0.41122889  0.58530289
   0.31831323  0.50064729  0.65874453
   0.24384674  0.58276250  0.73550985
   0.17069981  0.66403275  0.84867497
   0.08175151  0.75392982  0.92399415
   0.99622469  0.83889956  0.00340817
   0.91649130  0.92664212  0.07471561
   0.82188759  0.97718087  0.18357390
   0.73033804  0.07402422  0.24712763
   0.67219270  0.16568758  0.32057425
   0.57647997  0.25557049  0.39987945
   0.48979376  0.33722356  0.50699595
   0.48746713  0.32331499  0.67897188
   0.40907860  0.42777357  0.75231320
   0.31288174  0.49923664  0.83032255
   0.23806235  0.58628185  0.91127909
   0.19391799  0.67670035  0.00497985
   0.09178210  0.75620149  0.07217919
   0.00545536  0.83886288  0.16105132
   0.90901071  0.91729877  0.25720607
   0.82692339  0.99662609  0.34204657
   0.75184131  0.08238435  0.42346273
   0.65367985  0.18287539  0.48787491
   0.57818448  0.25549960  0.60082764
   0.59962385  0.25339326  0.75169471
   0.50547494  0.34654317  0.83058504
   0.40938856  0.41454818  0.92158523
   0.33063222  0.49978348  0.01098120
   0.25347626  0.59255567  0.09448476
   0.16819181  0.67959837  0.15470065
   0.09067280  0.75306616  0.25394717
   0.00693897  0.83263951  0.33606794
   0.91495510  0.91466620  0.41971320
   0.84340867  0.01245175  0.49638341
   0.73742619  0.09580501  0.56521928
   0.68527223  0.17478661  0.66350556
   0.67147182  0.16013080  0.83482188
   0.57835937  0.24425802  0.90816499
   0.49786088  0.33466032  0.00697426
   0.42829566  0.41575738  0.07939197
   0.32946269  0.51133631  0.17200564
   0.24635497  0.58879038  0.25147814
   0.15676678  0.67247896  0.34820032
   0.08965072  0.75629703  0.42647219
   0.00129852  0.83241235  0.48857817
   0.93346605  0.92295520  0.57712979
   0.84417813  0.01346718  0.65435998
   0.76155646  0.08400144  0.74473323
   0.76406634  0.07997917  0.91832251
   0.65920217  0.15784622  0.00701737
   0.57760947  0.22742692  0.09140943
   0.48478568  0.32665343  0.16977706
   0.42357337  0.42171857  0.23731023
   0.33568694  0.49418502  0.31973387
   0.24144294  0.58500024  0.42011319
   0.15775532  0.65944505  0.50098942
   0.08111604  0.75344449  0.55535063
   0.00505257  0.82780117  0.67385938
   0.91276610  0.91842108  0.74769974
   0.84295789  0.00893681  0.82870934
   0.84036478  0.00950538  0.00181170
   0.74971112  0.07861170  0.09339708
   0.66427627  0.16124988  0.17123070
   0.56810393  0.23583035  0.26265916
   0.49677556  0.34621938  0.32515083
   0.42086601  0.42204852  0.40843732
   0.31656458  0.50424826  0.49601093
   0.22910305  0.56602995  0.57936386
   0.16178012  0.68157127  0.65623294
   0.07820722  0.74703291  0.76345971
   0.00127305  0.85242833  0.83378362
   0.90885666  0.91623595  0.91681468
