 504 504   0   0
  0.2235424E+02  0.2214114E-08  0.2191405E-08  0.2322030E-08  0.5000000E-15
  1.000000000000000E-004
  CAR 
 Li                                      
      2.98282566     -3.53811141  301      0.15152205      1.00000000
     -3.538  0.0000E+00  0.0000E+00
     -3.516  0.0000E+00  0.0000E+00
     -3.495  0.0000E+00  0.0000E+00
     -3.473  0.0000E+00  0.0000E+00
     -3.451  0.0000E+00  0.0000E+00
     -3.429  0.0000E+00  0.0000E+00
     -3.408  0.6001E-13  0.1305E-14
     -3.386  0.1447E-09  0.3147E-11
     -3.364  0.1260E-06  0.2742E-08
     -3.342  0.3935E-04  0.8581E-06
     -3.321  0.4441E-02  0.9739E-04
     -3.299  0.1830E+00  0.4074E-02
     -3.277  0.2787E+01  0.6465E-01
     -3.256  0.1591E+02  0.4105E+00
     -3.234  0.3447E+02  0.1160E+01
     -3.212  0.2855E+02  0.1780E+01
     -3.190  0.9669E+01  0.1991E+01
     -3.169  0.8929E+01  0.2185E+01
     -3.147  0.3893E+02  0.3031E+01
     -3.125  0.8625E+02  0.4906E+01
     -3.103  0.8946E+02  0.6850E+01
     -3.082  0.4324E+02  0.7790E+01
     -3.060  0.1313E+02  0.8075E+01
     -3.038  0.2695E+02  0.8661E+01
     -3.016  0.7404E+02  0.1027E+02
     -2.995  0.9614E+02  0.1236E+02
     -2.973  0.5862E+02  0.1363E+02
     -2.951  0.2297E+02  0.1413E+02
     -2.929  0.3503E+02  0.1489E+02
     -2.908  0.7796E+02  0.1659E+02
     -2.886  0.1105E+03  0.1899E+02
     -2.864  0.9203E+02  0.2099E+02
     -2.843  0.4443E+02  0.2196E+02
     -2.821  0.4186E+02  0.2287E+02
     -2.799  0.9642E+02  0.2496E+02
     -2.777  0.1476E+03  0.2817E+02
     -2.756  0.1457E+03  0.3134E+02
     -2.734  0.8994E+02  0.3329E+02
     -2.712  0.3918E+02  0.3414E+02
     -2.690  0.4447E+02  0.3511E+02
     -2.669  0.7924E+02  0.3683E+02
     -2.647  0.8645E+02  0.3871E+02
     -2.625  0.5680E+02  0.3995E+02
     -2.603  0.4846E+02  0.4100E+02
     -2.582  0.7589E+02  0.4265E+02
     -2.560  0.1056E+03  0.4495E+02
     -2.538  0.1223E+03  0.4760E+02
     -2.516  0.1217E+03  0.5025E+02
     -2.495  0.1086E+03  0.5261E+02
     -2.473  0.1146E+03  0.5510E+02
     -2.451  0.1416E+03  0.5818E+02
     -2.430  0.1678E+03  0.6182E+02
     -2.408  0.1704E+03  0.6553E+02
     -2.386  0.1358E+03  0.6848E+02
     -2.364  0.8554E+02  0.7034E+02
     -2.343  0.5653E+02  0.7157E+02
     -2.321  0.5104E+02  0.7268E+02
     -2.299  0.6581E+02  0.7411E+02
     -2.277  0.7107E+02  0.7565E+02
     -2.256  0.8135E+02  0.7742E+02
     -2.234  0.1143E+03  0.7990E+02
     -2.212  0.1312E+03  0.8275E+02
     -2.190  0.1425E+03  0.8585E+02
     -2.169  0.1473E+03  0.8905E+02
     -2.147  0.1247E+03  0.9176E+02
     -2.125  0.1117E+03  0.9419E+02
     -2.104  0.1314E+03  0.9705E+02
     -2.082  0.1581E+03  0.1005E+03
     -2.060  0.1759E+03  0.1043E+03
     -2.038  0.1716E+03  0.1080E+03
     -2.017  0.1246E+03  0.1107E+03
     -1.995  0.6323E+02  0.1121E+03
     -1.973  0.6127E+02  0.1135E+03
     -1.951  0.1087E+03  0.1158E+03
     -1.930  0.1444E+03  0.1190E+03
     -1.908  0.1422E+03  0.1220E+03
     -1.886  0.1385E+03  0.1251E+03
     -1.864  0.1582E+03  0.1285E+03
     -1.843  0.1795E+03  0.1324E+03
     -1.821  0.1793E+03  0.1363E+03
     -1.799  0.1579E+03  0.1397E+03
     -1.777  0.1314E+03  0.1426E+03
     -1.756  0.1269E+03  0.1453E+03
     -1.734  0.1416E+03  0.1484E+03
     -1.712  0.1604E+03  0.1519E+03
     -1.691  0.1666E+03  0.1555E+03
     -1.669  0.1436E+03  0.1586E+03
     -1.647  0.1095E+03  0.1610E+03
     -1.625  0.1005E+03  0.1632E+03
     -1.604  0.1126E+03  0.1657E+03
     -1.582  0.1133E+03  0.1681E+03
     -1.560  0.1060E+03  0.1704E+03
     -1.538  0.1244E+03  0.1731E+03
     -1.517  0.1539E+03  0.1765E+03
     -1.495  0.1654E+03  0.1801E+03
     -1.473  0.1581E+03  0.1835E+03
     -1.451  0.1519E+03  0.1868E+03
     -1.430  0.1627E+03  0.1903E+03
     -1.408  0.1837E+03  0.1943E+03
     -1.386  0.2056E+03  0.1988E+03
     -1.364  0.2170E+03  0.2035E+03
     -1.343  0.2185E+03  0.2083E+03
     -1.321  0.2146E+03  0.2129E+03
     -1.299  0.2008E+03  0.2173E+03
     -1.278  0.1815E+03  0.2212E+03
     -1.256  0.1672E+03  0.2249E+03
     -1.234  0.1484E+03  0.2281E+03
     -1.212  0.1225E+03  0.2308E+03
     -1.191  0.1096E+03  0.2331E+03
     -1.169  0.1298E+03  0.2360E+03
     -1.147  0.1565E+03  0.2394E+03
     -1.125  0.1657E+03  0.2430E+03
     -1.104  0.1658E+03  0.2466E+03
     -1.082  0.1650E+03  0.2502E+03
     -1.060  0.1755E+03  0.2540E+03
     -1.038  0.1943E+03  0.2582E+03
     -1.017  0.1947E+03  0.2624E+03
     -0.995  0.1836E+03  0.2664E+03
     -0.973  0.1631E+03  0.2700E+03
     -0.951  0.1342E+03  0.2729E+03
     -0.930  0.1364E+03  0.2759E+03
     -0.908  0.1710E+03  0.2796E+03
     -0.886  0.1781E+03  0.2834E+03
     -0.865  0.1665E+03  0.2871E+03
     -0.843  0.1713E+03  0.2908E+03
     -0.821  0.1942E+03  0.2950E+03
     -0.799  0.2238E+03  0.2999E+03
     -0.778  0.2371E+03  0.3050E+03
     -0.756  0.2234E+03  0.3099E+03
     -0.734  0.2090E+03  0.3144E+03
     -0.712  0.2064E+03  0.3189E+03
     -0.691  0.2210E+03  0.3237E+03
     -0.669  0.2350E+03  0.3288E+03
     -0.647  0.2200E+03  0.3336E+03
     -0.625  0.1932E+03  0.3378E+03
     -0.604  0.1680E+03  0.3415E+03
     -0.582  0.1647E+03  0.3450E+03
     -0.560  0.1919E+03  0.3492E+03
     -0.538  0.1954E+03  0.3535E+03
     -0.517  0.1707E+03  0.3572E+03
     -0.495  0.1643E+03  0.3607E+03
     -0.473  0.1857E+03  0.3648E+03
     -0.452  0.2005E+03  0.3691E+03
     -0.430  0.1944E+03  0.3734E+03
     -0.408  0.1857E+03  0.3774E+03
     -0.386  0.1978E+03  0.3817E+03
     -0.365  0.2244E+03  0.3866E+03
     -0.343  0.2444E+03  0.3919E+03
     -0.321  0.2535E+03  0.3974E+03
     -0.299  0.2569E+03  0.4030E+03
     -0.278  0.2551E+03  0.4085E+03
     -0.256  0.2416E+03  0.4138E+03
     -0.234  0.2216E+03  0.4186E+03
     -0.212  0.2114E+03  0.4232E+03
     -0.191  0.2173E+03  0.4279E+03
     -0.169  0.2184E+03  0.4326E+03
     -0.147  0.2072E+03  0.4372E+03
     -0.125  0.2038E+03  0.4416E+03
     -0.104  0.2181E+03  0.4463E+03
     -0.082  0.2184E+03  0.4511E+03
     -0.060  0.1992E+03  0.4554E+03
     -0.039  0.1918E+03  0.4596E+03
     -0.017  0.1954E+03  0.4638E+03
      0.005  0.2073E+03  0.4683E+03
      0.027  0.2127E+03  0.4729E+03
      0.048  0.2130E+03  0.4776E+03
      0.070  0.2277E+03  0.4825E+03
      0.092  0.2476E+03  0.4879E+03
      0.114  0.2641E+03  0.4936E+03
      0.135  0.2713E+03  0.4995E+03
      0.157  0.2768E+03  0.5056E+03
      0.179  0.2894E+03  0.5119E+03
      0.201  0.2976E+03  0.5183E+03
      0.222  0.2917E+03  0.5247E+03
      0.244  0.2873E+03  0.5309E+03
      0.266  0.2909E+03  0.5372E+03
      0.288  0.2850E+03  0.5434E+03
      0.309  0.2800E+03  0.5495E+03
      0.331  0.2757E+03  0.5555E+03
      0.353  0.2607E+03  0.5612E+03
      0.374  0.2580E+03  0.5668E+03
      0.396  0.2638E+03  0.5725E+03
      0.418  0.2570E+03  0.5781E+03
      0.440  0.2494E+03  0.5835E+03
      0.461  0.2397E+03  0.5887E+03
      0.483  0.2243E+03  0.5936E+03
      0.505  0.2116E+03  0.5982E+03
      0.527  0.2071E+03  0.6027E+03
      0.548  0.2112E+03  0.6073E+03
      0.570  0.2097E+03  0.6119E+03
      0.592  0.2057E+03  0.6163E+03
      0.614  0.2094E+03  0.6209E+03
      0.635  0.2185E+03  0.6256E+03
      0.657  0.2221E+03  0.6305E+03
      0.679  0.2230E+03  0.6353E+03
      0.700  0.2271E+03  0.6402E+03
      0.722  0.2358E+03  0.6454E+03
      0.744  0.2490E+03  0.6508E+03
      0.766  0.2620E+03  0.6565E+03
      0.787  0.2597E+03  0.6621E+03
      0.809  0.2489E+03  0.6675E+03
      0.831  0.2452E+03  0.6729E+03
      0.853  0.2413E+03  0.6781E+03
      0.874  0.2358E+03  0.6832E+03
      0.896  0.2364E+03  0.6884E+03
      0.918  0.2391E+03  0.6936E+03
      0.940  0.2332E+03  0.6986E+03
      0.961  0.2243E+03  0.7035E+03
      0.983  0.2220E+03  0.7083E+03
      1.005  0.2267E+03  0.7133E+03
      1.027  0.2363E+03  0.7184E+03
      1.048  0.2318E+03  0.7234E+03
      1.070  0.2171E+03  0.7282E+03
      1.092  0.2176E+03  0.7329E+03
      1.113  0.2289E+03  0.7379E+03
      1.135  0.2282E+03  0.7428E+03
      1.157  0.2227E+03  0.7477E+03
      1.179  0.2238E+03  0.7525E+03
      1.200  0.2290E+03  0.7575E+03
      1.222  0.2381E+03  0.7627E+03
      1.244  0.2408E+03  0.7679E+03
      1.266  0.2394E+03  0.7731E+03
      1.287  0.2316E+03  0.7781E+03
      1.309  0.2218E+03  0.7830E+03
      1.331  0.2187E+03  0.7877E+03
      1.353  0.2211E+03  0.7925E+03
      1.374  0.2259E+03  0.7974E+03
      1.396  0.2214E+03  0.8023E+03
      1.418  0.2207E+03  0.8070E+03
      1.440  0.2305E+03  0.8121E+03
      1.461  0.2300E+03  0.8171E+03
      1.483  0.2200E+03  0.8218E+03
      1.505  0.2286E+03  0.8268E+03
      1.526  0.2383E+03  0.8320E+03
      1.548  0.2280E+03  0.8369E+03
      1.570  0.2145E+03  0.8416E+03
      1.592  0.2007E+03  0.8460E+03
      1.613  0.1948E+03  0.8502E+03
      1.635  0.2006E+03  0.8546E+03
      1.657  0.2092E+03  0.8591E+03
      1.679  0.2134E+03  0.8637E+03
      1.700  0.2106E+03  0.8683E+03
      1.722  0.2002E+03  0.8727E+03
      1.744  0.1880E+03  0.8768E+03
      1.766  0.1775E+03  0.8806E+03
      1.787  0.1709E+03  0.8843E+03
      1.809  0.1780E+03  0.8882E+03
      1.831  0.1868E+03  0.8923E+03
      1.853  0.1892E+03  0.8964E+03
      1.874  0.1859E+03  0.9004E+03
      1.896  0.1728E+03  0.9042E+03
      1.918  0.1547E+03  0.9075E+03
      1.939  0.1504E+03  0.9108E+03
      1.961  0.1641E+03  0.9144E+03
      1.983  0.1709E+03  0.9181E+03
      2.005  0.1639E+03  0.9217E+03
      2.026  0.1586E+03  0.9251E+03
      2.048  0.1581E+03  0.9285E+03
      2.070  0.1595E+03  0.9320E+03
      2.092  0.1603E+03  0.9355E+03
      2.113  0.1576E+03  0.9389E+03
      2.135  0.1549E+03  0.9423E+03
      2.157  0.1530E+03  0.9456E+03
      2.179  0.1512E+03  0.9489E+03
      2.200  0.1563E+03  0.9523E+03
      2.222  0.1555E+03  0.9557E+03
      2.244  0.1516E+03  0.9590E+03
      2.266  0.1530E+03  0.9623E+03
      2.287  0.1466E+03  0.9655E+03
      2.309  0.1394E+03  0.9685E+03
      2.331  0.1363E+03  0.9715E+03
      2.352  0.1330E+03  0.9744E+03
      2.374  0.1431E+03  0.9775E+03
      2.396  0.1530E+03  0.9808E+03
      2.418  0.1416E+03  0.9839E+03
      2.439  0.1263E+03  0.9866E+03
      2.461  0.1183E+03  0.9892E+03
      2.483  0.1125E+03  0.9916E+03
      2.505  0.1142E+03  0.9941E+03
      2.526  0.1227E+03  0.9968E+03
      2.548  0.1186E+03  0.9994E+03
      2.570  0.1018E+03  0.1002E+04
      2.592  0.9232E+02  0.1004E+04
      2.613  0.8394E+02  0.1005E+04
      2.635  0.6576E+02  0.1007E+04
      2.657  0.5780E+02  0.1008E+04
      2.679  0.5165E+02  0.1009E+04
      2.700  0.2774E+02  0.1010E+04
      2.722  0.7466E+01  0.1010E+04
      2.744  0.9519E+00  0.1010E+04
      2.765  0.5309E-01  0.1010E+04
      2.787  0.1194E-02  0.1010E+04
      2.809  0.1022E-04  0.1010E+04
      2.831  0.3225E-07  0.1010E+04
      2.852  0.3681E-10  0.1010E+04
      2.874  0.1532E-13  0.1010E+04
      2.896  0.0000E+00  0.1010E+04
      2.918  0.0000E+00  0.1010E+04
      2.939  0.0000E+00  0.1010E+04
      2.961  0.0000E+00  0.1010E+04
      2.983  0.0000E+00  0.1010E+04
