 running on   64 total cores
 distrk:  each k-point on   32 cores,    2 groups
 distr:  one band on   32 cores,    1 groups
 vasp.6.2.1 16May21 (build Nov 23 2021 15:40:41) complex                        
  
 POSCAR found type information on POSCAR Li
 POSCAR found :  1 types and     504 ions
 scaLAPACK will be used
 -----------------------------------------------------------------------------
|                                                                             |
|           W    W    AA    RRRRR   N    N  II  N    N   GGGG   !!!           |
|           W    W   A  A   R    R  NN   N  II  NN   N  G    G  !!!           |
|           W    W  A    A  R    R  N N  N  II  N N  N  G       !!!           |
|           W WW W  AAAAAA  RRRRR   N  N N  II  N  N N  G  GGG   !            |
|           WW  WW  A    A  R   R   N   NN  II  N   NN  G    G                |
|           W    W  A    A  R    R  N    N  II  N    N   GGGG   !!!           |
|                                                                             |
|     For optimal performance we recommend to set                             |
|       NCORE = 2 up to number-of-cores-per-socket                            |
|     NCORE specifies how many cores store one orbital (NPAR=cpu/NCORE).      |
|     This setting can greatly improve the performance of VASP for DFT.       |
|     The default, NCORE=1 might be grossly inefficient on modern             |
|     multi-core architectures or massively parallel machines. Do your        |
|     own testing! More info at https://www.vasp.at/wiki/index.php/NCORE      |
|     Unfortunately you need to use the default for GW and RPA                |
|     calculations (for HF NCORE is supported but not extensively tested      |
|     yet).                                                                   |
|                                                                             |
 -----------------------------------------------------------------------------

 -----------------------------------------------------------------------------
|                                                                             |
|               ----> ADVICE to this user running VASP <----                  |
|                                                                             |
|     You have a (more or less) 'large supercell' and for larger cells it     |
|     might be more efficient to use real-space projection operators.         |
|     Therefore, try LREAL= Auto in the INCAR file.                           |
|     Mind: If you want to do very accurate calculations, keep the            |
|     reciprocal projection scheme (i.e. LREAL=.FALSE.).                      |
|                                                                             |
 -----------------------------------------------------------------------------

 LDA part: xc-table for Pade appr. of Perdew
 POSCAR found type information on POSCAR Li
 POSCAR found :  1 types and     504 ions
 POSCAR, INCAR and KPOINTS ok, starting setup
 FFT: planning ...
 WAVECAR not read
 entering main loop
       N       E                     dE             d eps       ncg     rms          rms(c)
DAV:   1    -0.311217295178E+03   -0.31122E+03   -0.11897E+05  4040   0.647E+02
DAV:   2    -0.883184027434E+03   -0.57197E+03   -0.52360E+03  4644   0.645E+01
DAV:   3    -0.924776504481E+03   -0.41592E+02   -0.38049E+02  5208   0.137E+01
DAV:   4    -0.926245701128E+03   -0.14692E+01   -0.14460E+01  4752   0.281E+00
DAV:   5    -0.926280462835E+03   -0.34762E-01   -0.34690E-01  4896   0.457E-01    0.904E+00
DAV:   6    -0.921435178386E+03    0.48453E+01   -0.96472E+00  4720   0.410E+00    0.681E+00
DAV:   7    -0.917944852543E+03    0.34903E+01   -0.80892E+00  4864   0.398E+00    0.517E+00
DAV:   8    -0.914830661053E+03    0.31142E+01   -0.49767E+00  4696   0.255E+00    0.300E+00
DAV:   9    -0.914466553568E+03    0.36411E+00   -0.28485E+00  4672   0.169E+00    0.221E+00
DAV:  10    -0.913939911387E+03    0.52664E+00   -0.15750E+00  4640   0.119E+00    0.115E+00
DAV:  11    -0.913871943304E+03    0.67968E-01   -0.48066E-01  4368   0.543E-01    0.644E-01
DAV:  12    -0.913883157796E+03   -0.11214E-01   -0.88269E-02  4776   0.313E-01    0.518E-01
DAV:  13    -0.913857323854E+03    0.25834E-01   -0.45925E-02  4696   0.247E-01    0.295E-01
DAV:  14    -0.913858146993E+03   -0.82314E-03   -0.14080E-02  4704   0.139E-01    0.216E-01
DAV:  15    -0.913854150029E+03    0.39970E-02   -0.87267E-03  4696   0.113E-01    0.124E-01
DAV:  16    -0.913852636891E+03    0.15131E-02   -0.31461E-03  4560   0.596E-02    0.569E-02
DAV:  17    -0.913852531590E+03    0.10530E-03   -0.11964E-03  4304   0.284E-02    0.269E-02
DAV:  18    -0.913852511837E+03    0.19753E-04   -0.18516E-04  4784   0.146E-02    0.195E-02
DAV:  19    -0.913852493804E+03    0.18034E-04   -0.65880E-05  4656   0.106E-02    0.144E-02
DAV:  20    -0.913852462944E+03    0.30860E-04   -0.34076E-05  4240   0.687E-03    0.509E-03
DAV:  21    -0.913852461201E+03    0.17431E-05   -0.18250E-05  2472   0.355E-03
   1 F= -.91385246E+03 E0= -.91378971E+03  d E =-.125509E+00
