 500 500   0   0
  0.1910214E+02  0.2121700E-08  0.2121700E-08  0.2121700E-08  0.5000000E-15
  1.000000000000000E-004
  CAR 
 Li                                      
      3.69001182     -3.35467198  301      0.54974949      1.00000000
     -3.355  0.0000E+00  0.0000E+00
     -3.331  0.0000E+00  0.0000E+00
     -3.308  0.0000E+00  0.0000E+00
     -3.284  0.0000E+00  0.0000E+00
     -3.261  0.0000E+00  0.0000E+00
     -3.237  0.0000E+00  0.0000E+00
     -3.214  0.0000E+00  0.0000E+00
     -3.190  0.8412E-11  0.1975E-12
     -3.167  0.1821E-07  0.4279E-09
     -3.143  0.1190E-04  0.2799E-06
     -3.120  0.2368E-02  0.5588E-04
     -3.096  0.1454E+00  0.3471E-02
     -3.073  0.2809E+01  0.6943E-01
     -3.049  0.1742E+02  0.4785E+00
     -3.026  0.3539E+02  0.1310E+01
     -3.002  0.2378E+02  0.1868E+01
     -2.979  0.5792E+01  0.2004E+01
     -2.955  0.8498E+01  0.2204E+01
     -2.932  0.4348E+02  0.3225E+01
     -2.909  0.9020E+02  0.5343E+01
     -2.885  0.7878E+02  0.7193E+01
     -2.862  0.2991E+02  0.7895E+01
     -2.838  0.9480E+01  0.8118E+01
     -2.815  0.3280E+02  0.8888E+01
     -2.791  0.8224E+02  0.1082E+02
     -2.768  0.8744E+02  0.1287E+02
     -2.744  0.4038E+02  0.1382E+02
     -2.721  0.1335E+02  0.1413E+02
     -2.697  0.3919E+02  0.1505E+02
     -2.674  0.1001E+03  0.1740E+02
     -2.650  0.1151E+03  0.2011E+02
     -2.627  0.6374E+02  0.2160E+02
     -2.603  0.2224E+02  0.2213E+02
     -2.580  0.4445E+02  0.2317E+02
     -2.556  0.1212E+03  0.2601E+02
     -2.533  0.1699E+03  0.3000E+02
     -2.509  0.1222E+03  0.3287E+02
     -2.486  0.4213E+02  0.3386E+02
     -2.462  0.1531E+02  0.3422E+02
     -2.439  0.5088E+02  0.3542E+02
     -2.415  0.1005E+03  0.3778E+02
     -2.392  0.7352E+02  0.3951E+02
     -2.368  0.2362E+02  0.4006E+02
     -2.345  0.3355E+02  0.4085E+02
     -2.321  0.9944E+02  0.4318E+02
     -2.298  0.1534E+03  0.4678E+02
     -2.274  0.1367E+03  0.5000E+02
     -2.251  0.7361E+02  0.5172E+02
     -2.228  0.5440E+02  0.5300E+02
     -2.204  0.1210E+03  0.5584E+02
     -2.181  0.1951E+03  0.6042E+02
     -2.157  0.2008E+03  0.6514E+02
     -2.134  0.1395E+03  0.6842E+02
     -2.110  0.5871E+02  0.6979E+02
     -2.087  0.3199E+02  0.7055E+02
     -2.063  0.6824E+02  0.7215E+02
     -2.040  0.8886E+02  0.7423E+02
     -2.016  0.5832E+02  0.7560E+02
     -1.993  0.3603E+02  0.7645E+02
     -1.969  0.7545E+02  0.7822E+02
     -1.946  0.1466E+03  0.8166E+02
     -1.922  0.1741E+03  0.8575E+02
     -1.899  0.1234E+03  0.8865E+02
     -1.875  0.5859E+02  0.9003E+02
     -1.852  0.6906E+02  0.9165E+02
     -1.828  0.1579E+03  0.9536E+02
     -1.805  0.2255E+03  0.1007E+03
     -1.781  0.1925E+03  0.1052E+03
     -1.758  0.9656E+02  0.1074E+03
     -1.734  0.4151E+02  0.1084E+03
     -1.711  0.8021E+02  0.1103E+03
     -1.687  0.1510E+03  0.1138E+03
     -1.664  0.1545E+03  0.1175E+03
     -1.640  0.9224E+02  0.1196E+03
     -1.617  0.7231E+02  0.1213E+03
     -1.594  0.1384E+03  0.1246E+03
     -1.570  0.1971E+03  0.1292E+03
     -1.547  0.1947E+03  0.1338E+03
     -1.523  0.1318E+03  0.1369E+03
     -1.500  0.7059E+02  0.1385E+03
     -1.476  0.1008E+03  0.1409E+03
     -1.453  0.1853E+03  0.1453E+03
     -1.429  0.2169E+03  0.1503E+03
     -1.406  0.1581E+03  0.1541E+03
     -1.382  0.7502E+02  0.1558E+03
     -1.359  0.6041E+02  0.1572E+03
     -1.335  0.1182E+03  0.1600E+03
     -1.312  0.1568E+03  0.1637E+03
     -1.288  0.1241E+03  0.1666E+03
     -1.265  0.7099E+02  0.1683E+03
     -1.241  0.8500E+02  0.1703E+03
     -1.218  0.1371E+03  0.1735E+03
     -1.194  0.1459E+03  0.1769E+03
     -1.171  0.1013E+03  0.1793E+03
     -1.147  0.7734E+02  0.1811E+03
     -1.124  0.1438E+03  0.1845E+03
     -1.100  0.2359E+03  0.1900E+03
     -1.077  0.2782E+03  0.1966E+03
     -1.053  0.2660E+03  0.2028E+03
     -1.030  0.2022E+03  0.2076E+03
     -1.006  0.1359E+03  0.2107E+03
     -0.983  0.1541E+03  0.2144E+03
     -0.959  0.2040E+03  0.2192E+03
     -0.936  0.1899E+03  0.2236E+03
     -0.913  0.1280E+03  0.2266E+03
     -0.889  0.8336E+02  0.2286E+03
     -0.866  0.9978E+02  0.2309E+03
     -0.842  0.1542E+03  0.2345E+03
     -0.819  0.1761E+03  0.2387E+03
     -0.795  0.1412E+03  0.2420E+03
     -0.772  0.1461E+03  0.2454E+03
     -0.748  0.1951E+03  0.2500E+03
     -0.725  0.2215E+03  0.2552E+03
     -0.701  0.2150E+03  0.2603E+03
     -0.678  0.1565E+03  0.2639E+03
     -0.654  0.7956E+02  0.2658E+03
     -0.631  0.5746E+02  0.2671E+03
     -0.607  0.8942E+02  0.2692E+03
     -0.584  0.8734E+02  0.2713E+03
     -0.560  0.7721E+02  0.2731E+03
     -0.537  0.1399E+03  0.2764E+03
     -0.513  0.2160E+03  0.2815E+03
     -0.490  0.2499E+03  0.2873E+03
     -0.466  0.2638E+03  0.2935E+03
     -0.443  0.2613E+03  0.2997E+03
     -0.419  0.2276E+03  0.3050E+03
     -0.396  0.2000E+03  0.3097E+03
     -0.372  0.2176E+03  0.3148E+03
     -0.349  0.2480E+03  0.3206E+03
     -0.325  0.2421E+03  0.3263E+03
     -0.302  0.2062E+03  0.3312E+03
     -0.278  0.1640E+03  0.3350E+03
     -0.255  0.1258E+03  0.3380E+03
     -0.232  0.1265E+03  0.3409E+03
     -0.208  0.1473E+03  0.3444E+03
     -0.185  0.1587E+03  0.3481E+03
     -0.161  0.1822E+03  0.3524E+03
     -0.138  0.1989E+03  0.3571E+03
     -0.114  0.1893E+03  0.3615E+03
     -0.091  0.1698E+03  0.3655E+03
     -0.067  0.1609E+03  0.3693E+03
     -0.044  0.1896E+03  0.3737E+03
     -0.020  0.2324E+03  0.3792E+03
      0.003  0.2599E+03  0.3853E+03
      0.027  0.2533E+03  0.3913E+03
      0.050  0.2166E+03  0.3963E+03
      0.074  0.1841E+03  0.4007E+03
      0.097  0.1923E+03  0.4052E+03
      0.121  0.2050E+03  0.4100E+03
      0.144  0.1798E+03  0.4142E+03
      0.168  0.1517E+03  0.4178E+03
      0.191  0.1624E+03  0.4216E+03
      0.215  0.1995E+03  0.4263E+03
      0.238  0.2209E+03  0.4315E+03
      0.262  0.2233E+03  0.4367E+03
      0.285  0.2272E+03  0.4420E+03
      0.309  0.2229E+03  0.4473E+03
      0.332  0.2168E+03  0.4524E+03
      0.356  0.2136E+03  0.4574E+03
      0.379  0.2035E+03  0.4622E+03
      0.402  0.1905E+03  0.4666E+03
      0.426  0.1981E+03  0.4713E+03
      0.449  0.2223E+03  0.4765E+03
      0.473  0.2323E+03  0.4820E+03
      0.496  0.2355E+03  0.4875E+03
      0.520  0.2358E+03  0.4930E+03
      0.543  0.2338E+03  0.4985E+03
      0.567  0.2292E+03  0.5039E+03
      0.590  0.2298E+03  0.5093E+03
      0.614  0.2405E+03  0.5150E+03
      0.637  0.2471E+03  0.5208E+03
      0.661  0.2522E+03  0.5267E+03
      0.684  0.2620E+03  0.5328E+03
      0.708  0.2651E+03  0.5391E+03
      0.731  0.2660E+03  0.5453E+03
      0.755  0.2720E+03  0.5517E+03
      0.778  0.2795E+03  0.5583E+03
      0.802  0.2738E+03  0.5647E+03
      0.825  0.2641E+03  0.5709E+03
      0.849  0.2543E+03  0.5769E+03
      0.872  0.2433E+03  0.5826E+03
      0.896  0.2227E+03  0.5878E+03
      0.919  0.2022E+03  0.5925E+03
      0.943  0.2042E+03  0.5973E+03
      0.966  0.2116E+03  0.6023E+03
      0.990  0.2050E+03  0.6071E+03
      1.013  0.1945E+03  0.6117E+03
      1.037  0.1892E+03  0.6161E+03
      1.060  0.1856E+03  0.6205E+03
      1.083  0.1817E+03  0.6248E+03
      1.107  0.1826E+03  0.6290E+03
      1.130  0.1788E+03  0.6332E+03
      1.154  0.1794E+03  0.6375E+03
      1.177  0.1941E+03  0.6420E+03
      1.201  0.2099E+03  0.6469E+03
      1.224  0.2157E+03  0.6520E+03
      1.248  0.2218E+03  0.6572E+03
      1.271  0.2276E+03  0.6626E+03
      1.295  0.2336E+03  0.6680E+03
      1.318  0.2280E+03  0.6734E+03
      1.342  0.2163E+03  0.6785E+03
      1.365  0.2246E+03  0.6838E+03
      1.389  0.2436E+03  0.6895E+03
      1.412  0.2418E+03  0.6952E+03
      1.436  0.2222E+03  0.7004E+03
      1.459  0.2078E+03  0.7053E+03
      1.483  0.2032E+03  0.7100E+03
      1.506  0.2025E+03  0.7148E+03
      1.530  0.2062E+03  0.7196E+03
      1.553  0.2091E+03  0.7245E+03
      1.577  0.2048E+03  0.7293E+03
      1.600  0.1915E+03  0.7338E+03
      1.624  0.1927E+03  0.7384E+03
      1.647  0.1981E+03  0.7430E+03
      1.671  0.1875E+03  0.7474E+03
      1.694  0.1800E+03  0.7516E+03
      1.718  0.1917E+03  0.7561E+03
      1.741  0.1940E+03  0.7607E+03
      1.764  0.1687E+03  0.7647E+03
      1.788  0.1560E+03  0.7683E+03
      1.811  0.1687E+03  0.7723E+03
      1.835  0.1713E+03  0.7763E+03
      1.858  0.1646E+03  0.7802E+03
      1.882  0.1502E+03  0.7837E+03
      1.905  0.1431E+03  0.7871E+03
      1.929  0.1514E+03  0.7906E+03
      1.952  0.1578E+03  0.7943E+03
      1.976  0.1650E+03  0.7982E+03
      1.999  0.1751E+03  0.8023E+03
      2.023  0.1786E+03  0.8065E+03
      2.046  0.1798E+03  0.8107E+03
      2.070  0.1909E+03  0.8152E+03
      2.093  0.1995E+03  0.8199E+03
      2.117  0.2017E+03  0.8246E+03
      2.140  0.2020E+03  0.8294E+03
      2.164  0.2010E+03  0.8341E+03
      2.187  0.1967E+03  0.8387E+03
      2.211  0.1909E+03  0.8432E+03
      2.234  0.1904E+03  0.8477E+03
      2.258  0.1820E+03  0.8519E+03
      2.281  0.1692E+03  0.8559E+03
      2.305  0.1603E+03  0.8597E+03
      2.328  0.1431E+03  0.8630E+03
      2.352  0.1322E+03  0.8661E+03
      2.375  0.1370E+03  0.8693E+03
      2.398  0.1376E+03  0.8726E+03
      2.422  0.1341E+03  0.8757E+03
      2.445  0.1372E+03  0.8789E+03
      2.469  0.1608E+03  0.8827E+03
      2.492  0.1778E+03  0.8869E+03
      2.516  0.1632E+03  0.8907E+03
      2.539  0.1507E+03  0.8943E+03
      2.563  0.1505E+03  0.8978E+03
      2.586  0.1495E+03  0.9013E+03
      2.610  0.1444E+03  0.9047E+03
      2.633  0.1406E+03  0.9080E+03
      2.657  0.1348E+03  0.9112E+03
      2.680  0.1259E+03  0.9141E+03
      2.704  0.1305E+03  0.9172E+03
      2.727  0.1359E+03  0.9204E+03
      2.751  0.1338E+03  0.9235E+03
      2.774  0.1423E+03  0.9269E+03
      2.798  0.1446E+03  0.9303E+03
      2.821  0.1429E+03  0.9336E+03
      2.845  0.1509E+03  0.9372E+03
      2.868  0.1479E+03  0.9406E+03
      2.892  0.1366E+03  0.9438E+03
      2.915  0.1306E+03  0.9469E+03
      2.939  0.1313E+03  0.9500E+03
      2.962  0.1321E+03  0.9531E+03
      2.986  0.1371E+03  0.9563E+03
      3.009  0.1430E+03  0.9597E+03
      3.033  0.1442E+03  0.9631E+03
      3.056  0.1486E+03  0.9665E+03
      3.079  0.1472E+03  0.9700E+03
      3.103  0.1417E+03  0.9733E+03
      3.126  0.1392E+03  0.9766E+03
      3.150  0.1368E+03  0.9798E+03
      3.173  0.1284E+03  0.9828E+03
      3.197  0.1106E+03  0.9854E+03
      3.220  0.8139E+02  0.9873E+03
      3.244  0.6373E+02  0.9888E+03
      3.267  0.7788E+02  0.9907E+03
      3.291  0.9977E+02  0.9930E+03
      3.314  0.1142E+03  0.9957E+03
      3.338  0.1104E+03  0.9983E+03
      3.361  0.9074E+02  0.1000E+04
      3.385  0.5164E+02  0.1002E+04
      3.408  0.1453E+02  0.1002E+04
      3.432  0.1643E+01  0.1002E+04
      3.455  0.6683E-01  0.1002E+04
      3.479  0.9169E-03  0.1002E+04
      3.502  0.4080E-05  0.1002E+04
      3.526  0.5734E-08  0.1002E+04
      3.549  0.2496E-11  0.1002E+04
      3.573  0.0000E+00  0.1002E+04
      3.596  0.0000E+00  0.1002E+04
      3.620  0.0000E+00  0.1002E+04
      3.643  0.0000E+00  0.1002E+04
      3.667  0.0000E+00  0.1002E+04
      3.690  0.0000E+00  0.1002E+04
