 running on   64 total cores
 distrk:  each k-point on   32 cores,    2 groups
 distr:  one band on   32 cores,    1 groups
 vasp.6.2.1 16May21 (build Nov 23 2021 15:40:41) complex                        
  
 POSCAR found type information on POSCAR Li
 POSCAR found :  1 types and     500 ions
 scaLAPACK will be used
 -----------------------------------------------------------------------------
|                                                                             |
|           W    W    AA    RRRRR   N    N  II  N    N   GGGG   !!!           |
|           W    W   A  A   R    R  NN   N  II  NN   N  G    G  !!!           |
|           W    W  A    A  R    R  N N  N  II  N N  N  G       !!!           |
|           W WW W  AAAAAA  RRRRR   N  N N  II  N  N N  G  GGG   !            |
|           WW  WW  A    A  R   R   N   NN  II  N   NN  G    G                |
|           W    W  A    A  R    R  N    N  II  N    N   GGGG   !!!           |
|                                                                             |
|     For optimal performance we recommend to set                             |
|       NCORE = 2 up to number-of-cores-per-socket                            |
|     NCORE specifies how many cores store one orbital (NPAR=cpu/NCORE).      |
|     This setting can greatly improve the performance of VASP for DFT.       |
|     The default, NCORE=1 might be grossly inefficient on modern             |
|     multi-core architectures or massively parallel machines. Do your        |
|     own testing! More info at https://www.vasp.at/wiki/index.php/NCORE      |
|     Unfortunately you need to use the default for GW and RPA                |
|     calculations (for HF NCORE is supported but not extensively tested      |
|     yet).                                                                   |
|                                                                             |
 -----------------------------------------------------------------------------

 -----------------------------------------------------------------------------
|                                                                             |
|               ----> ADVICE to this user running VASP <----                  |
|                                                                             |
|     You have a (more or less) 'large supercell' and for larger cells it     |
|     might be more efficient to use real-space projection operators.         |
|     Therefore, try LREAL= Auto in the INCAR file.                           |
|     Mind: If you want to do very accurate calculations, keep the            |
|     reciprocal projection scheme (i.e. LREAL=.FALSE.).                      |
|                                                                             |
 -----------------------------------------------------------------------------

 LDA part: xc-table for Pade appr. of Perdew
 POSCAR found type information on POSCAR Li
 POSCAR found :  1 types and     500 ions
 POSCAR, INCAR and KPOINTS ok, starting setup
 FFT: planning ...
 WAVECAR not read
 entering main loop
       N       E                     dE             d eps       ncg     rms          rms(c)
DAV:   1    -0.238473800405E+03   -0.23847E+03   -0.12355E+05  4008   0.662E+02
DAV:   2    -0.862085723720E+03   -0.62361E+03   -0.57003E+03  4604   0.691E+01
DAV:   3    -0.906714108256E+03   -0.44628E+02   -0.40747E+02  5200   0.146E+01
DAV:   4    -0.908221254649E+03   -0.15071E+01   -0.14846E+01  4704   0.293E+00
DAV:   5    -0.908257715958E+03   -0.36461E-01   -0.36394E-01  4872   0.475E-01    0.110E+01
DAV:   6    -0.915156073598E+03   -0.68984E+01   -0.15848E+01  4912   0.684E+00    0.119E+01
DAV:   7    -0.892775112050E+03    0.22381E+02   -0.16298E+01  5136   0.611E+00    0.535E+00
DAV:   8    -0.890288085787E+03    0.24870E+01   -0.86581E+00  4728   0.278E+00    0.302E+00
DAV:   9    -0.889730612120E+03    0.55747E+00   -0.38995E+00  4528   0.166E+00    0.170E+00
DAV:  10    -0.889721519604E+03    0.90925E-02   -0.95377E-01  4720   0.103E+00    0.145E+00
DAV:  11    -0.889519277964E+03    0.20224E+00   -0.35106E-01  4600   0.603E-01    0.671E-01
DAV:  12    -0.889533473153E+03   -0.14195E-01   -0.10181E-01  4832   0.332E-01    0.552E-01
DAV:  13    -0.889505148888E+03    0.28324E-01   -0.59315E-02  4808   0.268E-01    0.280E-01
DAV:  14    -0.889502283655E+03    0.28652E-02   -0.14838E-02  4560   0.122E-01    0.151E-01
DAV:  15    -0.889501316628E+03    0.96703E-03   -0.52475E-03  4520   0.690E-02    0.782E-02
DAV:  16    -0.889501677310E+03   -0.36068E-03   -0.12955E-03  4928   0.456E-02    0.761E-02
DAV:  17    -0.889500925147E+03    0.75216E-03   -0.75650E-04  4736   0.331E-02    0.223E-02
DAV:  18    -0.889500924539E+03    0.60794E-06   -0.30932E-04  4448   0.147E-02    0.141E-02
DAV:  19    -0.889500914165E+03    0.10374E-04   -0.68128E-05  4808   0.877E-03    0.105E-02
DAV:  20    -0.889500900552E+03    0.13613E-04   -0.14205E-05  3040   0.488E-03    0.581E-03
DAV:  21    -0.889500893889E+03    0.66630E-05   -0.80780E-06  2208   0.302E-03
   1 F= -.88950089E+03 E0= -.88944904E+03  d E =-.103711E+00
