Li                                      
           1
    21.217000    0.000000    0.000000
     0.000000   21.217000    0.000000
    -0.000000   -0.000000   21.217000
   Li
   500
Direct configuration=     1
   0.98878896  0.98772287  0.00202161
   0.97942749  0.09235631  0.08861849
   0.99477552  0.20108812  0.19283599
   0.99678075  0.28684812  0.29694038
   0.00512711  0.40891070  0.38838738
   0.01185893  0.52733091  0.51674312
   0.99846219  0.58540191  0.59688105
   0.98737230  0.68625621  0.69218529
   0.00588535  0.78727501  0.80584612
   0.00617672  0.89626616  0.88514781
   0.09028595  0.01551480  0.11870539
   0.08475914  0.09683889  0.20220102
   0.08613957  0.18944747  0.28577664
   0.08467063  0.27496648  0.40656005
   0.08663910  0.38454460  0.51273151
   0.11558800  0.47715155  0.60752763
   0.09326100  0.60633054  0.69889874
   0.11670274  0.68882995  0.77580638
   0.10996439  0.80634776  0.90167362
   0.09173559  0.93136277  0.00857987
   0.19906488  0.01532529  0.20618940
   0.19470110  0.10646583  0.29999077
   0.18457516  0.19298687  0.39340902
   0.20645169  0.28055398  0.51564396
   0.19814554  0.36751830  0.60735412
   0.20069848  0.51227947  0.68738181
   0.20064088  0.58827453  0.78847949
   0.20235074  0.69193992  0.90134439
   0.17780871  0.79143661  0.01707070
   0.17970694  0.90575594  0.08960331
   0.28227653  0.99921416  0.28784610
   0.30271287  0.08993806  0.37274745
   0.31542274  0.19644323  0.51626041
   0.30095055  0.28459043  0.57584294
   0.32171899  0.39342795  0.71225201
   0.28044255  0.50268127  0.83560177
   0.27809471  0.59975248  0.93984295
   0.30160653  0.69303076  0.04984544
   0.28524397  0.81288071  0.09725150
   0.29257676  0.91059282  0.18330650
   0.39157160  0.02065264  0.40380945
   0.39088247  0.08520002  0.52041972
   0.40045694  0.20128378  0.59907850
   0.38676352  0.29144008  0.68837480
   0.38918231  0.39607892  0.82835291
   0.42120209  0.50484989  0.89180863
   0.39545729  0.58420155  0.01784507
   0.38729772  0.71531413  0.11663950
   0.41212674  0.82556442  0.19020904
   0.41147234  0.92133343  0.28346238
   0.50706157  0.98993504  0.49895030
   0.51346451  0.11260014  0.62038561
   0.50527093  0.20388340  0.70834123
   0.48958706  0.31062249  0.78264299
   0.52198261  0.37385226  0.88851436
   0.49669021  0.48110051  0.97885062
   0.49249021  0.58599172  0.09101670
   0.51811716  0.68829965  0.19082178
   0.52396862  0.79680541  0.28904371
   0.51561055  0.91658481  0.38585926
   0.61859023  0.00391562  0.59041608
   0.59972894  0.09058244  0.69573699
   0.60028670  0.21393668  0.75399175
   0.60620949  0.27559227  0.89195369
   0.60627680  0.39500614  0.96657612
   0.59938090  0.49418870  0.06561677
   0.60685686  0.59391684  0.18798526
   0.59181259  0.68073930  0.30715648
   0.59891737  0.81655074  0.39512838
   0.61337694  0.88426784  0.49928499
   0.70527350  0.97801121  0.69304541
   0.71567116  0.11889662  0.77315583
   0.71137081  0.17121506  0.86014411
   0.69699161  0.27326207  0.98711565
   0.69710923  0.40162416  0.08603694
   0.68839639  0.50290754  0.18151384
   0.70912550  0.58354039  0.29200848
   0.69877717  0.71501834  0.37849458
   0.71270095  0.78617514  0.53714873
   0.69618129  0.88918695  0.61166897
   0.80694004  0.99042641  0.76619867
   0.82109146  0.07320394  0.86547491
   0.78649592  0.18229211  0.97809080
   0.79203747  0.29227729  0.09041607
   0.79883302  0.39233296  0.17324493
   0.80523319  0.48786908  0.30297588
   0.79871663  0.58920339  0.38794323
   0.79739613  0.67563918  0.51174712
   0.82146001  0.80095190  0.62637831
   0.78840976  0.90182713  0.69389185
   0.91053383  0.98254798  0.89045114
   0.89274798  0.08055908  0.03728429
   0.87984648  0.20144955  0.08904481
   0.89532422  0.30028830  0.19101659
   0.90815206  0.38733590  0.30672583
   0.92216866  0.49882761  0.39637986
   0.90087746  0.58130310  0.50451696
   0.89333621  0.69370444  0.61827185
   0.89659914  0.81837451  0.72117391
   0.91601369  0.91557622  0.79182146
   0.09580753  0.08219908  0.01854931
   0.08187737  0.19837926  0.09905194
   0.06320883  0.30508418  0.17588604
   0.08306670  0.39576797  0.30743332
   0.09949958  0.49055654  0.41533319
   0.12161023  0.58620238  0.50572161
   0.06679103  0.68180376  0.60557679
   0.10555941  0.79740665  0.69636681
   0.10603799  0.89110305  0.79616322
   0.10874619  0.01125076  0.92728276
   0.18549115  0.12132934  0.08560136
   0.16333046  0.21480167  0.18261388
   0.17973423  0.28837058  0.30555330
   0.20173207  0.36168089  0.40900578
   0.20334526  0.47030013  0.49194317
   0.20146115  0.59702874  0.60213255
   0.21873096  0.68973327  0.68491154
   0.22225966  0.80503483  0.77749426
   0.19739966  0.89044900  0.90914216
   0.20656305  0.03229809  0.00808014
   0.30225819  0.13843191  0.17865667
   0.28824956  0.18337653  0.30021668
   0.30556677  0.27227350  0.40069360
   0.32482545  0.39926828  0.49669727
   0.31819033  0.47834374  0.61683596
   0.30800476  0.60003327  0.71016824
   0.28909301  0.69047396  0.82296061
   0.29346121  0.80831883  0.91281698
   0.29320500  0.91546065  0.02851245
   0.28570141  0.00953130  0.11084931
   0.40381776  0.07955390  0.29917476
   0.40938076  0.18335734  0.41261698
   0.43304869  0.30144102  0.49079700
   0.39396166  0.41826376  0.59166929
   0.40162978  0.50513615  0.72322012
   0.39450400  0.63373096  0.80867943
   0.37819406  0.70592240  0.93388094
   0.37834265  0.81889873  0.03788251
   0.40607816  0.93774110  0.11968278
   0.40784493  0.01723933  0.20807597
   0.51038441  0.09486530  0.42603776
   0.51056488  0.20928964  0.50075140
   0.49919666  0.31083374  0.58771186
   0.47114691  0.42398929  0.68819558
   0.47715114  0.51786208  0.82456949
   0.50660933  0.62588885  0.92620852
   0.48168599  0.71269193  0.01063208
   0.50936919  0.81867057  0.11408083
   0.50833635  0.91937629  0.20275589
   0.51718320  0.00806297  0.32604409
   0.62215589  0.11923953  0.46985256
   0.60349485  0.21720563  0.59919402
   0.57310997  0.33509452  0.69249182
   0.58953748  0.41847691  0.78989838
   0.58438799  0.51702396  0.88953373
   0.57645696  0.62708059  0.98277391
   0.58454356  0.69182592  0.08827563
   0.60800821  0.81239007  0.19700887
   0.61122623  0.92230086  0.29790867
   0.60896245  0.00165534  0.41849019
   0.70009293  0.10971611  0.58539310
   0.68207758  0.21334456  0.65510856
   0.68821368  0.30459159  0.77547108
   0.67518701  0.41034514  0.90857305
   0.68734699  0.51389064  0.98562450
   0.70328748  0.61618606  0.09649170
   0.68146579  0.70474350  0.20524231
   0.69525047  0.79534881  0.30634706
   0.68407849  0.91139200  0.40711840
   0.70837417  0.99163253  0.51404064
   0.78285450  0.11852552  0.69269850
   0.78761787  0.22305347  0.79848941
   0.79233219  0.29896252  0.88846371
   0.77771869  0.39561807  0.98540942
   0.79439820  0.50626905  0.09375467
   0.79185590  0.60543744  0.21497264
   0.83269674  0.71886936  0.29582696
   0.77700045  0.80523007  0.41139994
   0.80893672  0.90452980  0.51774116
   0.80603144  0.99452275  0.61629731
   0.89587117  0.08692613  0.78181157
   0.88121370  0.18909920  0.88419903
   0.86974366  0.30255855  0.97536482
   0.85266057  0.40962413  0.08987895
   0.87005382  0.50297028  0.19154745
   0.89825260  0.59053777  0.31894302
   0.89484474  0.69290206  0.41466265
   0.89932008  0.79061424  0.49251623
   0.92744604  0.89789834  0.59722939
   0.91943937  0.01246388  0.70403878
   0.97388184  0.11629022  0.90352590
   0.98137544  0.19826962  0.00367898
   0.97023951  0.30695936  0.08980851
   0.97358609  0.41380176  0.18536524
   0.00242061  0.51045377  0.30685114
   0.00690209  0.61673588  0.39953341
   0.01327876  0.66689479  0.51002952
   0.99660684  0.78713866  0.58065687
   0.02051272  0.89627394  0.69189812
   0.01882611  0.00701327  0.79558468
   0.19390131  0.17542672  0.99985409
   0.19712715  0.31190707  0.07807747
   0.18574602  0.37687587  0.18448135
   0.19503334  0.46459413  0.31224073
   0.21278152  0.61480180  0.39572955
   0.18648864  0.68713976  0.51355503
   0.21004403  0.80993206  0.61157458
   0.21496819  0.91748608  0.70074656
   0.18235172  0.99874817  0.80800361
   0.22392738  0.08564764  0.88582660
   0.30852347  0.20827305  0.09416986
   0.29579771  0.28448465  0.19475896
   0.28161500  0.37016385  0.31941755
   0.30515255  0.48140510  0.39086100
   0.29372790  0.58994810  0.50086632
   0.31578831  0.70296642  0.59080789
   0.32338999  0.79138985  0.69768308
   0.32856433  0.90354349  0.79713305
   0.31027015  0.00849496  0.92557489
   0.33381374  0.11951197  0.00605382
   0.40932171  0.21031540  0.18777741
   0.40914708  0.28436184  0.28848476
   0.42828141  0.37680277  0.38925771
   0.39176777  0.50946595  0.49333749
   0.41113096  0.59022321  0.60005758
   0.39061752  0.70235892  0.69506101
   0.36346405  0.78871785  0.78976691
   0.41884075  0.88860388  0.91790267
   0.40022878  0.99562832  0.00129247
   0.41824712  0.10151464  0.10231549
   0.49753515  0.17889736  0.31081367
   0.50362964  0.26979024  0.39687740
   0.51280016  0.41012370  0.50602654
   0.50045863  0.51310153  0.60374338
   0.49326663  0.62769751  0.71360642
   0.48034375  0.72654029  0.81749666
   0.47825585  0.79786229  0.91433748
   0.50363628  0.90008756  0.00690533
   0.50587643  0.01055868  0.10244578
   0.52680608  0.09647897  0.19969154
   0.61741109  0.18720468  0.39707053
   0.62045475  0.29323224  0.49019140
   0.59944781  0.40336424  0.59845907
   0.57263944  0.50441930  0.69351610
   0.57810103  0.61753947  0.80775918
   0.61951248  0.73707875  0.90724242
   0.58407013  0.80694739  0.00173877
   0.58886084  0.91640061  0.09879608
   0.60313295  0.01137831  0.20809148
   0.59478238  0.09652218  0.29763869
   0.70933903  0.21313637  0.50315774
   0.69569261  0.32677746  0.60801370
   0.68977011  0.40394052  0.69365279
   0.68750513  0.50631350  0.80054671
   0.70952281  0.58387669  0.89873866
   0.72932431  0.71484122  0.00906649
   0.68172554  0.81451921  0.11795135
   0.71704658  0.90221731  0.21614660
   0.69906237  0.02621988  0.31161452
   0.73426667  0.11063374  0.40199621
   0.80142177  0.23752126  0.60917441
   0.78186426  0.33296803  0.70187702
   0.79119152  0.41898214  0.81388416
   0.78753773  0.49639935  0.89832949
   0.78772897  0.60578305  0.01371552
   0.82067537  0.70568195  0.15282078
   0.82516273  0.80942300  0.20541473
   0.78485100  0.91868539  0.31377624
   0.81929985  0.03299238  0.41402642
   0.78695973  0.13143965  0.51981282
   0.88515627  0.20749218  0.71510875
   0.88727807  0.31668004  0.82082171
   0.89092855  0.40925643  0.88568813
   0.89975101  0.50201006  0.01132981
   0.91693261  0.60112008  0.09185053
   0.91475641  0.70763008  0.21924847
   0.91598868  0.81151543  0.33176811
   0.90582786  0.88690564  0.41794677
   0.91228061  0.01111066  0.51364783
   0.87948522  0.12812631  0.59985578
   0.00141075  0.19746963  0.82188451
   0.01653453  0.28486726  0.89470894
   0.98983499  0.38704934  0.00906736
   0.97650935  0.49486201  0.10566810
   0.98377968  0.59082058  0.20507307
   0.00326767  0.69418278  0.31523125
   0.02457357  0.80128059  0.39155930
   0.03075345  0.90005283  0.50011602
   0.01625678  0.01610257  0.59237330
   0.00949096  0.12331756  0.69360193
   0.11836356  0.17166052  0.91356433
   0.11293206  0.27148900  0.99903938
   0.08095698  0.40212857  0.08207001
   0.08523517  0.49385584  0.19030978
   0.09104073  0.59229273  0.30146703
   0.13046763  0.70599563  0.40476307
   0.12747383  0.79186201  0.51972275
   0.10011217  0.89712332  0.61421457
   0.09241682  0.98398808  0.70796724
   0.10517453  0.08402520  0.79862755
   0.29088719  0.31292823  0.00612176
   0.31127372  0.39559237  0.07534650
   0.30191737  0.47623685  0.19443310
   0.30087864  0.59985257  0.29418801
   0.28005236  0.70928868  0.40580949
   0.30069698  0.81863591  0.48846105
   0.30371809  0.90750930  0.60086674
   0.33181814  0.01251577  0.71007226
   0.30214387  0.09494700  0.80749305
   0.29969920  0.20488236  0.90667693
   0.38363644  0.30372775  0.07573095
   0.38431365  0.38462181  0.22347519
   0.38193664  0.47156215  0.27262699
   0.37870153  0.60852353  0.39070833
   0.38705985  0.71004541  0.49012713
   0.41972093  0.81875254  0.57995112
   0.40261151  0.88891033  0.70266986
   0.40980925  0.00014554  0.80483531
   0.40605766  0.09981302  0.90663114
   0.41857689  0.20729565  0.01795813
   0.50319929  0.29551038  0.19990460
   0.50787907  0.38799996  0.28280668
   0.48623427  0.48556126  0.38667635
   0.49690853  0.59861861  0.47482317
   0.50548076  0.69539290  0.59121801
   0.48781982  0.78210027  0.68996921
   0.48709615  0.87360433  0.77836580
   0.49127303  0.98645443  0.91236021
   0.50492943  0.09362788  0.98216920
   0.51520752  0.20364503  0.10677020
   0.60156822  0.27922252  0.27887249
   0.60939604  0.41284704  0.36908108
   0.61372040  0.50900588  0.49256669
   0.59163297  0.61175361  0.59932918
   0.59901875  0.69543064  0.73520366
   0.60099485  0.81251294  0.77972469
   0.59382577  0.91189322  0.88437595
   0.59882452  0.99770062  0.98733540
   0.61944357  0.10323754  0.08699779
   0.61027015  0.18063022  0.21382894
   0.70532502  0.29171589  0.37982456
   0.69879106  0.40671762  0.48014735
   0.71482776  0.49943673  0.59549217
   0.68097201  0.59222317  0.70617583
   0.72456800  0.69577083  0.80801967
   0.69147518  0.81467432  0.90215398
   0.69053660  0.89584718  0.99840402
   0.71913369  0.99222530  0.12779412
   0.71985043  0.10126411  0.22617022
   0.72483683  0.19830444  0.31274805
   0.79377606  0.29952250  0.49413736
   0.80139771  0.38858025  0.57068626
   0.79864588  0.49595704  0.72668994
   0.82639979  0.60927702  0.78872270
   0.79921629  0.72392959  0.89188195
   0.81756542  0.79458168  0.00872649
   0.78568854  0.89661042  0.10809522
   0.82837281  0.00688925  0.21628689
   0.81629142  0.10127585  0.31788112
   0.80019292  0.22803991  0.39144018
   0.90258362  0.28859708  0.58173447
   0.89994445  0.40180008  0.69800020
   0.89756051  0.48310429  0.81392251
   0.87960812  0.60316272  0.89534736
   0.88533887  0.69013418  0.99412051
   0.91240887  0.80747321  0.09393034
   0.89878269  0.90016148  0.19240175
   0.90481405  0.98287039  0.32670561
   0.90398084  0.11540477  0.42690020
   0.89670449  0.21407568  0.50196389
   0.00284683  0.28671391  0.70998323
   0.00759792  0.38151384  0.78084923
   0.99678661  0.50666936  0.89675585
   0.99009374  0.59978386  0.00440611
   0.98045054  0.71106932  0.11403771
   0.99524987  0.81936495  0.22445503
   0.01395297  0.91556202  0.30519211
   0.98136183  0.99501178  0.39793968
   0.01771070  0.09688952  0.49577665
   0.01132898  0.21058484  0.60090070
   0.10875026  0.28400132  0.83869370
   0.09520265  0.40437641  0.90805386
   0.08694654  0.49921360  0.99633589
   0.07099176  0.60036581  0.10474970
   0.09966220  0.69648380  0.20331696
   0.11659421  0.81186977  0.29298752
   0.10131589  0.91398182  0.39846461
   0.13510293  0.00691031  0.49248724
   0.10628134  0.10100564  0.62490845
   0.11644197  0.20990649  0.72317537
   0.19923717  0.30692432  0.91760490
   0.17778887  0.39549806  0.99909710
   0.18989807  0.47533708  0.10291923
   0.19468825  0.58734807  0.21103088
   0.20092487  0.70710567  0.28381570
   0.21128050  0.79841416  0.40386100
   0.20696654  0.91353906  0.50862958
   0.20389750  0.99792264  0.61148175
   0.20949637  0.08384397  0.70445762
   0.21150440  0.19047869  0.82389064
   0.41646763  0.40346734  0.98934999
   0.39319885  0.47285311  0.08580726
   0.39258753  0.58955576  0.17060559
   0.37870510  0.71902172  0.27072630
   0.39800620  0.83469368  0.39023141
   0.44634288  0.91574931  0.49908822
   0.42271243  0.01888967  0.60608434
   0.39911070  0.11299243  0.70533280
   0.40816130  0.21277627  0.81105066
   0.41786648  0.31492895  0.92113447
   0.50038340  0.36430900  0.11580468
   0.48738871  0.47848598  0.17445341
   0.49632425  0.57264045  0.27266328
   0.47752049  0.70106574  0.37827285
   0.50715364  0.79630114  0.47946009
   0.51865502  0.89825414  0.60135814
   0.48392625  0.00556318  0.70250867
   0.51314879  0.10434721  0.80576752
   0.51454151  0.21113261  0.89269289
   0.51106346  0.30413306  0.00595272
   0.59457911  0.38899587  0.18477308
   0.59542126  0.52897491  0.26956073
   0.58560171  0.59736387  0.40080079
   0.61273770  0.69153520  0.46596841
   0.59709718  0.76395605  0.58238800
   0.57612617  0.88743730  0.68079660
   0.59785174  0.99688971  0.77936772
   0.60965687  0.08316837  0.88263365
   0.59299723  0.18751403  0.98022873
   0.61168781  0.28238422  0.11983106
   0.69838035  0.40837395  0.28917096
   0.70338547  0.50600396  0.40153884
   0.69382300  0.61093409  0.49952893
   0.69517245  0.68657186  0.60920618
   0.70455722  0.79484880  0.70273909
   0.69522461  0.88189730  0.79184584
   0.70413584  0.00084216  0.86159247
   0.70272999  0.09408294  0.98211311
   0.69333185  0.19029253  0.08981749
   0.70232820  0.28120911  0.20260020
   0.78425380  0.38070265  0.42620175
   0.79947802  0.51360854  0.51287129
   0.79500827  0.57251556  0.60272617
   0.80380103  0.70444044  0.71001776
   0.79632842  0.80610233  0.79544098
   0.80475313  0.91148160  0.89626622
   0.80573685  0.00986332  0.97608012
   0.80400646  0.11938402  0.10047714
   0.80775990  0.19294290  0.21601781
   0.81481116  0.32797138  0.30579073
   0.93337817  0.40212609  0.49542984
   0.90093752  0.48787098  0.61035423
   0.90570083  0.59706479  0.71332217
   0.90214951  0.71947979  0.79985247
   0.89569792  0.79863908  0.89310270
   0.88995051  0.88748922  0.99558281
   0.88557094  0.99077892  0.09024176
   0.88638959  0.10186769  0.19762543
   0.90805775  0.20561469  0.29880706
   0.90758681  0.28711362  0.40614102
   0.00051405  0.37991165  0.59521615
   0.00417455  0.48600006  0.68065705
   0.00422006  0.57838990  0.80727270
   0.99080864  0.69002351  0.89060147
   0.98826035  0.79977240  0.97647103
   0.01566822  0.91317182  0.10643213
   0.96423375  0.01854262  0.20232546
   0.96803306  0.09318618  0.30573491
   0.00083120  0.18337562  0.40359885
   0.00601851  0.28084010  0.48426745
   0.10339710  0.36652422  0.70004628
   0.09134711  0.48728707  0.78530146
   0.09060164  0.58104614  0.88788580
   0.09765052  0.68240857  0.01238340
   0.09792990  0.81255628  0.10322432
   0.09546888  0.92918125  0.22269565
   0.09520682  0.01277764  0.30070108
   0.09472299  0.10495227  0.39117483
   0.10961020  0.18405764  0.51468737
   0.10457751  0.28039954  0.60634810
   0.20133750  0.41114616  0.80297256
   0.18627245  0.50050910  0.91210241
   0.17052098  0.58391054  0.01213035
   0.15822496  0.71343968  0.10092625
   0.18506505  0.82189780  0.19332039
   0.20658067  0.93505509  0.30691908
   0.19842079  0.01520519  0.39249250
   0.21701244  0.10576518  0.48962387
   0.19534603  0.17048452  0.61081123
   0.20986496  0.30025645  0.72009742
   0.29069451  0.39813663  0.92445390
   0.30433142  0.47397816  0.97295859
   0.27425575  0.56328999  0.10403923
   0.28249512  0.71581150  0.17807447
   0.29111220  0.81051667  0.27843363
   0.32305812  0.91467617  0.37320112
   0.30425946  0.00181565  0.48368142
   0.30319261  0.08013845  0.61208260
   0.30865473  0.19713095  0.72681830
   0.31849196  0.29146621  0.82526359
