Li                                      
           1
   -10.853500   18.798813    0.000000
   -18.606000  -10.742179    0.000000
     0.000000    0.000000   22.765000
   Li
   504
Direct configuration=     1
   0.99043305  0.00616315  0.01914126
   0.90928034  0.03677360  0.67924540
   0.85197863  0.09974781  0.35064745
   0.77463150  0.12681380  0.99118021
   0.69472950  0.15837986  0.67504862
   0.64178201  0.19374783  0.32460563
   0.56675711  0.23880679  0.99322000
   0.49635321  0.29302651  0.66290084
   0.43539141  0.33372553  0.31948430
   0.35003290  0.35542069  0.00203112
   0.28895855  0.41439012  0.67301682
   0.22124150  0.45817282  0.35454456
   0.06496663  0.04539957  0.67526560
   0.98677947  0.08719311  0.33329628
   0.92337998  0.13540862  0.00283805
   0.84328079  0.18318576  0.66902864
   0.78855153  0.21052016  0.34035431
   0.70299867  0.25092786  0.00547466
   0.63715643  0.28060921  0.65986031
   0.58318111  0.31990252  0.32386596
   0.50382438  0.37871907  0.99117951
   0.44431939  0.41347826  0.65437205
   0.36891209  0.44680720  0.34312150
   0.28628549  0.49039565  0.99322366
   0.13534720  0.08926226  0.34357443
   0.06943430  0.13173073  0.01697059
   0.00134457  0.15676328  0.66736760
   0.93699665  0.21449572  0.34991339
   0.85813381  0.25696405  0.99921811
   0.80409321  0.28759937  0.66607817
   0.72372556  0.32735890  0.33280364
   0.64652040  0.36483324  0.99944386
   0.58975382  0.41253727  0.65543943
   0.52180156  0.44538421  0.33409897
   0.42138488  0.50072316  0.99104246
   0.37162099  0.54194702  0.66854160
   0.21526469  0.11130190  0.00798973
   0.12824171  0.15616114  0.67105675
   0.07258364  0.20872974  0.34713233
   0.99743903  0.25556622  0.01526511
   0.94694529  0.28843823  0.68425867
   0.86541481  0.33269137  0.33571480
   0.78602701  0.37327685  0.01124517
   0.70961689  0.39360405  0.65925554
   0.64425931  0.43677126  0.32802300
   0.56682317  0.49392163  0.98332250
   0.51786323  0.52579101  0.66805378
   0.44528611  0.57124247  0.32235984
   0.27376275  0.16434443  0.66781663
   0.21325038  0.21384879  0.33453876
   0.15311591  0.25440041  0.99667466
   0.07006628  0.30024720  0.66511167
   0.99338732  0.34276734  0.34434824
   0.89884789  0.38141827  0.00663674
   0.85593234  0.41805415  0.67301856
   0.79003398  0.46350499  0.33062512
   0.69442814  0.47832704  0.98491117
   0.67067173  0.54716116  0.65031786
   0.57548804  0.57417309  0.31994487
   0.50156676  0.62402145  0.99762231
   0.35301489  0.19630526  0.33617577
   0.29112456  0.25223545  0.99630693
   0.21979054  0.27983980  0.68410957
   0.13031745  0.34003937  0.33381192
   0.06755996  0.38523492  0.00815175
   0.98914145  0.42368848  0.66142732
   0.93164542  0.48025787  0.34365169
   0.83152456  0.48982984  0.99357592
   0.78756451  0.54014836  0.66173282
   0.72131209  0.57979921  0.31992153
   0.65235174  0.62437930  0.00364047
   0.57813997  0.66791836  0.65067324
   0.44203070  0.25254137  0.00620914
   0.36133335  0.28744306  0.66569916
   0.29790525  0.32639308  0.32909321
   0.21086437  0.38642141  0.01047152
   0.13228732  0.41781269  0.67066542
   0.07249412  0.47390011  0.34809801
   0.99084707  0.49983780  0.01815218
   0.91898813  0.54740159  0.67928172
   0.87265923  0.58914206  0.33759938
   0.78049798  0.61196665  0.00061248
   0.71310381  0.67337205  0.65892485
   0.65487499  0.70659057  0.32332116
   0.13742335  0.50567613  0.02210350
   0.08129815  0.54654832  0.66110760
   0.01705852  0.59188499  0.34619177
   0.93899896  0.61992233  0.00223934
   0.85827505  0.68612500  0.68051020
   0.79203298  0.70120477  0.31474391
   0.72627406  0.75052772  0.99592689
   0.21240973  0.54257072  0.66632154
   0.17078710  0.59095462  0.31472238
   0.06661298  0.62854216  0.01059430
   0.99710193  0.66428794  0.67320604
   0.94145382  0.71729187  0.33635768
   0.86900016  0.74852979  0.00853136
   0.77667815  0.80972233  0.67250703
   0.30304196  0.56667843  0.32598253
   0.21318992  0.63129573  0.00943293
   0.13943496  0.67336605  0.66542475
   0.07715164  0.73120998  0.33969093
   0.00281904  0.74911899  0.99523302
   0.91889318  0.80480403  0.65423309
   0.84414056  0.84379758  0.33024896
   0.36167084  0.62880880  0.98526954
   0.29648881  0.66031741  0.65805975
   0.22530914  0.70788437  0.32281514
   0.13346299  0.75175286  0.98975048
   0.05679413  0.79293403  0.66122109
   0.00064579  0.84257634  0.33782756
   0.92948845  0.88815588  0.98847089
   0.43322437  0.65538129  0.66662693
   0.37069325  0.70273414  0.32200757
   0.27834706  0.76342652  0.97956963
   0.21617141  0.79114260  0.66709438
   0.15480401  0.84169909  0.34830144
   0.06823661  0.87551105  0.00670867
   0.99893214  0.92284281  0.66265932
   0.91609395  0.97005163  0.35526301
   0.85224902  0.01285045  0.99349132
   0.76135435  0.04296187  0.68961438
   0.70855630  0.07702587  0.32939398
   0.64809544  0.11860001  0.99986132
   0.55284521  0.17202779  0.66639367
   0.49496124  0.22194471  0.32187951
   0.08308246  0.96486096  0.33266160
   0.13449376  0.99732343  0.99923998
   0.20286424  0.03300023  0.66540906
   0.28971115  0.08292002  0.33279988
   0.34629925  0.11855925  0.00231936
   0.41655298  0.15825681  0.66164254
   0.85627588  0.91878051  0.68014881
   0.79476380  0.95279409  0.34181653
   0.69931055  0.01231827  0.99724516
   0.61257871  0.04381286  0.66266271
   0.57126727  0.08140052  0.32961027
   0.49851743  0.11009418  0.00642833
   0.14852956  0.92852010  0.66971044
   0.20422765  0.95815655  0.33685772
   0.27831052  0.98741780  0.00343414
   0.34101543  0.04058976  0.66585430
   0.44653326  0.06986959  0.31920205
   0.80543061  0.89016122  0.00281110
   0.71427224  0.91503020  0.67817663
   0.63325082  0.96111060  0.32828984
   0.56971859  0.99968244  0.00107004
   0.49117624  0.02871541  0.67316315
   0.21542768  0.86995613  0.99678865
   0.29267336  0.90355794  0.67243956
   0.36341103  0.95265296  0.33934215
   0.41785758  0.98901058  0.00035219
   0.71897171  0.84228180  0.32110041
   0.65018066  0.87995458  0.00221575
   0.56816596  0.92506882  0.66693943
   0.50561949  0.93339130  0.32486647
   0.30208022  0.83130772  0.32744927
   0.35386829  0.86717388  0.99287241
   0.43567802  0.89640327  0.66485510
   0.63420081  0.80263459  0.66552675
   0.58477316  0.83569162  0.31303352
   0.49474539  0.86516854  0.00386335
   0.36056304  0.78890748  0.65697490
   0.43742632  0.82612544  0.31761682
   0.58392218  0.76345004  0.99022000
   0.50552917  0.78546450  0.65612835
   0.42544631  0.74425438  0.99434935
   0.50180122  0.69101285  0.32353855
   0.98439953  0.00466964  0.79289291
   0.92031385  0.04780454  0.44925536
   0.85790743  0.09244360  0.11175438
   0.77633039  0.14337512  0.78302148
   0.70771580  0.16805104  0.44802786
   0.65958776  0.19298414  0.12571458
   0.56381616  0.25232312  0.77529594
   0.50594674  0.28395913  0.43207584
   0.41795735  0.34335799  0.10846715
   0.36349955  0.37630590  0.77594894
   0.30233040  0.42253446  0.45343008
   0.20497745  0.46330942  0.12765061
   0.07057040  0.05224714  0.44499964
   0.00832797  0.09193547  0.12097864
   0.92268036  0.13674117  0.78616514
   0.85267785  0.17413171  0.46065156
   0.79405007  0.20285104  0.10486581
   0.70663263  0.24162384  0.76289119
   0.64001102  0.27468781  0.43726470
   0.55693312  0.33478848  0.09326191
   0.50731866  0.38607038  0.77097374
   0.43086212  0.40625598  0.43215075
   0.34748699  0.46866704  0.10213714
   0.28075935  0.50286231  0.77420048
   0.14687185  0.09644124  0.11375294
   0.07119759  0.10723520  0.79885238
   0.00287695  0.16919916  0.45217729
   0.92777929  0.21058016  0.13167442
   0.85361827  0.25388798  0.78467683
   0.78126555  0.29402208  0.44574283
   0.70254676  0.32753442  0.12666075
   0.63675911  0.36050956  0.76293246
   0.57140845  0.41758308  0.44763201
   0.49088291  0.45971034  0.11296125
   0.42984608  0.48562258  0.78435564
   0.37353818  0.53973362  0.43445834
   0.19784146  0.12428221  0.78006183
   0.14411104  0.16966419  0.45355494
   0.06544788  0.23102152  0.12299528
   0.00238678  0.23891918  0.78439845
   0.92797074  0.29540287  0.43874766
   0.84148753  0.33531047  0.12268311
   0.79368287  0.36915857  0.77172131
   0.73028055  0.40885990  0.44678304
   0.63698114  0.44985447  0.11421061
   0.58354392  0.50220190  0.76900224
   0.52104789  0.54618516  0.43967692
   0.44161093  0.57408354  0.10551908
   0.27060901  0.15502626  0.45130468
   0.21509810  0.21778613  0.10126458
   0.13625521  0.26118033  0.78593075
   0.07658750  0.29954148  0.44812675
   0.00147009  0.35255529  0.12879461
   0.92684789  0.36470038  0.79520395
   0.86516019  0.40491188  0.42754032
   0.77947502  0.46644947  0.11971916
   0.71830160  0.48004797  0.76650831
   0.63945489  0.52539772  0.42814877
   0.57055672  0.56636933  0.09315430
   0.51214534  0.62496742  0.77659742
   0.35457821  0.19632723  0.10345031
   0.28390672  0.24266292  0.77422100
   0.21686473  0.30547301  0.45593109
   0.13256682  0.34250573  0.11135876
   0.06684222  0.36609502  0.78529595
   0.00902611  0.42627706  0.45173509
   0.92159463  0.46282243  0.12326534
   0.85779404  0.50165690  0.77619426
   0.79334449  0.54266396  0.43219674
   0.71102877  0.57725456  0.09047184
   0.65125705  0.61808630  0.76561211
   0.58059124  0.67793334  0.42893356
   0.43474027  0.25147671  0.77137816
   0.35577236  0.29324854  0.43271402
   0.26538427  0.33526666  0.10223388
   0.20493487  0.37814837  0.77951159
   0.14934744  0.41350099  0.45460182
   0.06789379  0.45207386  0.11995051
   0.00999969  0.48802027  0.77559923
   0.92876785  0.56078030  0.45142516
   0.87180781  0.57513770  0.11580449
   0.77588022  0.61926515  0.77399632
   0.71162594  0.66097279  0.43121068
   0.64796517  0.71128350  0.11036175
   0.14958001  0.50180671  0.77990148
   0.08496586  0.56141524  0.44533567
   0.01839315  0.58879780  0.12245067
   0.91573769  0.61872983  0.78671276
   0.85493117  0.66905440  0.44713569
   0.78722917  0.69543621  0.10964671
   0.71169298  0.76245022  0.78269366
   0.22990816  0.53082280  0.43944118
   0.13422057  0.60911717  0.12520130
   0.06995146  0.60985279  0.77565228
   0.00598215  0.67771811  0.44428581
   0.93849191  0.70444686  0.12404114
   0.84169801  0.74547331  0.78071409
   0.77401350  0.78447454  0.42034417
   0.26879044  0.58143570  0.10344761
   0.20562954  0.62072962  0.77363951
   0.15314972  0.65940336  0.43634908
   0.07580425  0.74238037  0.11568015
   0.98440841  0.75019629  0.77145671
   0.92601600  0.82175327  0.43369670
   0.86630784  0.82462857  0.10893797
   0.34587071  0.62642134  0.77599457
   0.28349697  0.65902153  0.42979587
   0.20859755  0.72502844  0.09804296
   0.12182101  0.74724333  0.77417370
   0.07647576  0.80625441  0.45999279
   0.99907876  0.84574063  0.11875053
   0.92338247  0.86948074  0.78575542
   0.42927262  0.66779017  0.43284465
   0.35551305  0.69669977  0.09542770
   0.27292285  0.74331700  0.76756377
   0.19449127  0.78092886  0.42984000
   0.13650576  0.85982819  0.10064175
   0.05814573  0.86953133  0.78034830
   0.99238807  0.94253864  0.44785682
   0.92383833  0.97183138  0.11602032
   0.84641411  0.00381005  0.78529360
   0.77841067  0.05344096  0.46185079
   0.72659745  0.08210225  0.10543806
   0.63778765  0.11081248  0.75774626
   0.56289388  0.16345133  0.43389698
   0.49764354  0.22374674  0.11490030
   0.07540084  0.96977431  0.11624230
   0.13251973  0.99713489  0.77880752
   0.19409493  0.06218097  0.44585145
   0.29612167  0.07093383  0.11291492
   0.35786727  0.12538883  0.77746181
   0.42751415  0.18522971  0.44183173
   0.84381600  0.92056716  0.45593501
   0.78793816  0.96378065  0.11239112
   0.71554035  0.98916767  0.77217912
   0.63123758  0.03874524  0.44185568
   0.58393149  0.09453151  0.10936636
   0.49624042  0.11584317  0.78694684
   0.13649814  0.92658230  0.45260439
   0.22721684  0.96106013  0.10814565
   0.27237208  0.99208897  0.78908466
   0.35443663  0.05032370  0.44970637
   0.44085909  0.08924744  0.10430937
   0.77949124  0.87320389  0.78522331
   0.69950868  0.92387973  0.45341768
   0.65409761  0.95662461  0.10332800
   0.55966715  0.98343285  0.79078848
   0.48820170  0.03989483  0.43648550
   0.20292097  0.85834474  0.77655828
   0.27267955  0.92719561  0.43693572
   0.38401365  0.94876159  0.11727238
   0.41598286  0.99303268  0.77231564
   0.73039783  0.83204456  0.10563737
   0.64860162  0.86681746  0.77281090
   0.56480508  0.91481803  0.44502654
   0.50981862  0.96753349  0.10037377
   0.30133417  0.83187663  0.12027916
   0.35768894  0.86434304  0.77650927
   0.42093759  0.90288320  0.44039642
   0.63474045  0.80585601  0.42734149
   0.59825212  0.83622063  0.10544639
   0.49760471  0.86119799  0.77952040
   0.33767742  0.77641903  0.43856027
   0.44295378  0.81673764  0.12021820
   0.56942136  0.74400066  0.77276995
   0.50136071  0.80032225  0.42427448
   0.41220201  0.75105883  0.76292726
   0.51598572  0.70205619  0.09931779
   0.01570743  0.99835423  0.23926699
   0.91338706  0.04056855  0.89659395
   0.85341041  0.09399665  0.57661180
   0.79922783  0.12315112  0.22798067
   0.71148327  0.16084784  0.88836808
   0.62172898  0.20084496  0.55695168
   0.59014094  0.26806135  0.21797171
   0.49545345  0.28973015  0.89047804
   0.42784553  0.32159877  0.53799650
   0.35761958  0.37538678  0.21761609
   0.28315377  0.41421858  0.89824605
   0.20915491  0.45491070  0.56892270
   0.05585589  0.03211907  0.90535103
   0.00019083  0.07768581  0.56709146
   0.94040348  0.13840712  0.23928117
   0.85091517  0.16283205  0.89592434
   0.76391088  0.19488318  0.56186125
   0.72349340  0.25070123  0.22803997
   0.63588724  0.28392736  0.87938694
   0.58498896  0.33725107  0.55071588
   0.49870510  0.37633566  0.21861308
   0.41992238  0.41319956  0.89364893
   0.36663589  0.44631435  0.54236108
   0.28615173  0.50382886  0.24213780
   0.12467900  0.07969526  0.56314207
   0.08410131  0.13404846  0.24213324
   0.99664388  0.15644794  0.90311348
   0.92214341  0.22071281  0.56298743
   0.85729769  0.24734464  0.23257567
   0.78966749  0.28741000  0.87557434
   0.71241676  0.32574377  0.54974200
   0.63938498  0.38311483  0.21717976
   0.58112757  0.41698441  0.88581627
   0.50497006  0.45907807  0.55475087
   0.43040277  0.48734717  0.21978941
   0.34702162  0.52458557  0.87471787
   0.21884846  0.13436119  0.22348812
   0.13342286  0.16334462  0.89649176
   0.08084576  0.22537271  0.54652024
   0.02586109  0.25080374  0.23289930
   0.92187481  0.29284224  0.88617758
   0.86763628  0.33823895  0.55984825
   0.78951656  0.37891450  0.22390784
   0.70815134  0.41505123  0.87635111
   0.65325609  0.47009845  0.55575766
   0.56167709  0.51568130  0.22819719
   0.50443915  0.53726883  0.88935713
   0.43630643  0.57529577  0.54407283
   0.28432319  0.15751286  0.89427253
   0.21769346  0.19863059  0.57486870
   0.15230886  0.25703733  0.21346363
   0.06122367  0.28855358  0.90350072
   0.99539423  0.32911655  0.55423001
   0.92086476  0.36752464  0.22646425
   0.83262489  0.41352629  0.89229363
   0.78386073  0.45414884  0.56038489
   0.71880255  0.49703613  0.22571081
   0.64202526  0.54725829  0.88443000
   0.57734833  0.58784444  0.55879787
   0.49485514  0.62250135  0.20771107
   0.35978153  0.19383508  0.55524296
   0.30117192  0.25493473  0.23875570
   0.20265091  0.29606359  0.89812281
   0.16374281  0.33562669  0.56607234
   0.07150704  0.36896993  0.22109723
   0.99134703  0.40614948  0.90248802
   0.92720676  0.46781396  0.56899021
   0.87542176  0.49509648  0.23609199
   0.77560046  0.53024265  0.88283968
   0.73352184  0.58934757  0.54331251
   0.65901093  0.62137262  0.21234646
   0.57240901  0.65971257  0.88404614
   0.43659663  0.25826540  0.22049735
   0.35699186  0.27887202  0.89026045
   0.28941617  0.32719254  0.56831674
   0.21379446  0.38024629  0.22678484
   0.13276755  0.43047689  0.88737621
   0.06280678  0.45762078  0.55144144
   0.01360503  0.48432711  0.23881726
   0.91851404  0.54341693  0.89364102
   0.84025931  0.60291372  0.57291808
   0.79450534  0.62365396  0.21518536
   0.71575358  0.68314064  0.88630287
   0.64223804  0.71253527  0.54738562
   0.14969355  0.49186743  0.23698933
   0.05841769  0.54792701  0.89343382
   0.99644424  0.59061250  0.55214393
   0.93529508  0.63187780  0.22401370
   0.84720148  0.66575636  0.90390792
   0.78101611  0.72208920  0.56488598
   0.72899635  0.75688307  0.20585225
   0.21050350  0.53027717  0.89377008
   0.15012713  0.59850588  0.54500564
   0.06669162  0.64446864  0.22622053
   0.98969897  0.66324393  0.88856643
   0.92611398  0.70830476  0.55545238
   0.86823806  0.73742679  0.22305933
   0.77854594  0.78983496  0.90184278
   0.29278955  0.56376422  0.54840105
   0.22748499  0.62457840  0.20495629
   0.13421815  0.67113125  0.89030735
   0.08372693  0.71917632  0.55118229
   0.00092892  0.77050231  0.22034722
   0.92889232  0.78108035  0.89686121
   0.85456223  0.83409424  0.54836105
   0.37024190  0.60884724  0.20322263
   0.26905374  0.66464188  0.87420140
   0.23256132  0.71199718  0.54616331
   0.14896980  0.76141817  0.22458646
   0.06203960  0.80160284  0.87264496
   0.99306537  0.84377143  0.56362796
   0.91407918  0.88685700  0.23333511
   0.41242352  0.65216756  0.87717241
   0.37267729  0.70561937  0.53607075
   0.29607286  0.75249957  0.21654891
   0.19863999  0.79083685  0.88071322
   0.14599053  0.83427222  0.55599683
   0.09993997  0.88254835  0.22817367
   0.00271230  0.91120215  0.90217577
   0.91930823  0.95633868  0.54715920
   0.87680978  0.02062208  0.22728159
   0.78036055  0.04426752  0.88186432
   0.70113618  0.08010927  0.55516176
   0.65193969  0.12330656  0.22494947
   0.57113187  0.15485716  0.88524842
   0.50957033  0.20451356  0.54724698
   0.07727460  0.95169736  0.56727215
   0.15336322  0.01369826  0.23983777
   0.20440567  0.04153973  0.88953560
   0.27829369  0.07515951  0.55912046
   0.37257479  0.12883323  0.22294553
   0.43229965  0.16571007  0.88370412
   0.84988804  0.91525748  0.89391285
   0.76799788  0.95978316  0.57045129
   0.71519256  0.99844306  0.22816258
   0.63834324  0.04015145  0.89037480
   0.56377169  0.07987985  0.55177719
   0.51724962  0.14487658  0.20999405
   0.14087849  0.92501870  0.89132521
   0.20470409  0.96494930  0.55574364
   0.30314299  0.00552777  0.21756602
   0.36446063  0.05423537  0.89641093
   0.42363140  0.09571022  0.55045360
   0.80046832  0.89524171  0.20960603
   0.71920696  0.91198653  0.88645031
   0.63757729  0.95864787  0.55793545
   0.57320771  0.00600603  0.22159558
   0.48938667  0.02694115  0.88697275
   0.22974653  0.86928889  0.21573589
   0.28839806  0.91764310  0.88778169
   0.36360022  0.95841245  0.54771455
   0.43609868  0.00934377  0.20967096
   0.72625453  0.81730042  0.54427149
   0.65050504  0.88167233  0.21579984
   0.57671209  0.88969151  0.90477962
   0.48777348  0.94828409  0.54360444
   0.28254200  0.83944400  0.54847036
   0.37517612  0.88065276  0.21994122
   0.43516725  0.89898933  0.88659957
   0.61637424  0.78906651  0.89278823
   0.57097726  0.83297648  0.55530569
   0.51649361  0.88205583  0.21139612
   0.35386456  0.78338172  0.88605690
   0.43123387  0.82272665  0.54218620
   0.58362044  0.74518965  0.22411911
   0.48356618  0.76777198  0.88568242
   0.43053208  0.74638744  0.20983010
   0.49469015  0.71302825  0.55357298
