 504 504   0   0
  0.2235424E+02  0.2214114E-08  0.2191405E-08  0.2322030E-08  0.5000000E-15
  1.000000000000000E-004
  CAR 
 Li                                      
      3.06786620     -3.54278817  301      0.15851667      1.00000000
     -3.543  0.0000E+00  0.0000E+00
     -3.521  0.0000E+00  0.0000E+00
     -3.499  0.0000E+00  0.0000E+00
     -3.477  0.0000E+00  0.0000E+00
     -3.455  0.0000E+00  0.0000E+00
     -3.433  0.0000E+00  0.0000E+00
     -3.411  0.9321E-13  0.2054E-14
     -3.389  0.2413E-09  0.5319E-11
     -3.367  0.2123E-06  0.4684E-08
     -3.344  0.6518E-04  0.1441E-05
     -3.322  0.7037E-02  0.1565E-03
     -3.300  0.2702E+00  0.6111E-02
     -3.278  0.3742E+01  0.8857E-01
     -3.256  0.1897E+02  0.5065E+00
     -3.234  0.3565E+02  0.1292E+01
     -3.212  0.2503E+02  0.1843E+01
     -3.190  0.7696E+01  0.2013E+01
     -3.168  0.1243E+02  0.2287E+01
     -3.146  0.4854E+02  0.3357E+01
     -3.124  0.8973E+02  0.5334E+01
     -3.102  0.7983E+02  0.7093E+01
     -3.080  0.3488E+02  0.7861E+01
     -3.058  0.1478E+02  0.8187E+01
     -3.036  0.3802E+02  0.9025E+01
     -3.014  0.8179E+02  0.1083E+02
     -2.992  0.8904E+02  0.1279E+02
     -2.970  0.4627E+02  0.1381E+02
     -2.948  0.2181E+02  0.1429E+02
     -2.926  0.4642E+02  0.1531E+02
     -2.904  0.8921E+02  0.1728E+02
     -2.882  0.1067E+03  0.1963E+02
     -2.860  0.7681E+02  0.2132E+02
     -2.838  0.4236E+02  0.2226E+02
     -2.816  0.6115E+02  0.2360E+02
     -2.794  0.1172E+03  0.2619E+02
     -2.772  0.1539E+03  0.2958E+02
     -2.750  0.1292E+03  0.3242E+02
     -2.727  0.6011E+02  0.3375E+02
     -2.705  0.2649E+02  0.3433E+02
     -2.683  0.5347E+02  0.3551E+02
     -2.661  0.9127E+02  0.3752E+02
     -2.639  0.8168E+02  0.3932E+02
     -2.617  0.5337E+02  0.4050E+02
     -2.595  0.5906E+02  0.4180E+02
     -2.573  0.7899E+02  0.4354E+02
     -2.551  0.1050E+03  0.4586E+02
     -2.529  0.1310E+03  0.4874E+02
     -2.507  0.1245E+03  0.5149E+02
     -2.485  0.1046E+03  0.5379E+02
     -2.463  0.1127E+03  0.5627E+02
     -2.441  0.1515E+03  0.5961E+02
     -2.419  0.1880E+03  0.6376E+02
     -2.397  0.1681E+03  0.6746E+02
     -2.375  0.1068E+03  0.6981E+02
     -2.353  0.6499E+02  0.7125E+02
     -2.331  0.4999E+02  0.7235E+02
     -2.309  0.5817E+02  0.7363E+02
     -2.287  0.6748E+02  0.7512E+02
     -2.265  0.6672E+02  0.7659E+02
     -2.243  0.8418E+02  0.7844E+02
     -2.221  0.1231E+03  0.8115E+02
     -2.199  0.1530E+03  0.8453E+02
     -2.177  0.1534E+03  0.8791E+02
     -2.155  0.1328E+03  0.9083E+02
     -2.133  0.1122E+03  0.9330E+02
     -2.110  0.1187E+03  0.9592E+02
     -2.088  0.1462E+03  0.9914E+02
     -2.066  0.1931E+03  0.1034E+03
     -2.044  0.2007E+03  0.1078E+03
     -2.022  0.1317E+03  0.1107E+03
     -2.000  0.5271E+02  0.1119E+03
     -1.978  0.3804E+02  0.1127E+03
     -1.956  0.9501E+02  0.1148E+03
     -1.934  0.1506E+03  0.1181E+03
     -1.912  0.1450E+03  0.1213E+03
     -1.890  0.1321E+03  0.1242E+03
     -1.868  0.1534E+03  0.1276E+03
     -1.846  0.1743E+03  0.1315E+03
     -1.824  0.1830E+03  0.1355E+03
     -1.802  0.1741E+03  0.1393E+03
     -1.780  0.1388E+03  0.1424E+03
     -1.758  0.1157E+03  0.1449E+03
     -1.736  0.1356E+03  0.1479E+03
     -1.714  0.1699E+03  0.1517E+03
     -1.692  0.1773E+03  0.1556E+03
     -1.670  0.1454E+03  0.1588E+03
     -1.648  0.1067E+03  0.1611E+03
     -1.626  0.9771E+02  0.1633E+03
     -1.604  0.1127E+03  0.1658E+03
     -1.582  0.1083E+03  0.1682E+03
     -1.560  0.1033E+03  0.1704E+03
     -1.538  0.1271E+03  0.1732E+03
     -1.516  0.1410E+03  0.1763E+03
     -1.493  0.1356E+03  0.1793E+03
     -1.471  0.1486E+03  0.1826E+03
     -1.449  0.1794E+03  0.1866E+03
     -1.427  0.1836E+03  0.1906E+03
     -1.405  0.1746E+03  0.1944E+03
     -1.383  0.1854E+03  0.1985E+03
     -1.361  0.2209E+03  0.2034E+03
     -1.339  0.2443E+03  0.2088E+03
     -1.317  0.2300E+03  0.2139E+03
     -1.295  0.2004E+03  0.2183E+03
     -1.273  0.1694E+03  0.2220E+03
     -1.251  0.1537E+03  0.2254E+03
     -1.229  0.1450E+03  0.2286E+03
     -1.207  0.1182E+03  0.2312E+03
     -1.185  0.1046E+03  0.2335E+03
     -1.163  0.1391E+03  0.2366E+03
     -1.141  0.1601E+03  0.2401E+03
     -1.119  0.1570E+03  0.2435E+03
     -1.097  0.1623E+03  0.2471E+03
     -1.075  0.1662E+03  0.2508E+03
     -1.053  0.1836E+03  0.2548E+03
     -1.031  0.2139E+03  0.2595E+03
     -1.009  0.2028E+03  0.2640E+03
     -0.987  0.1656E+03  0.2677E+03
     -0.965  0.1351E+03  0.2706E+03
     -0.943  0.1289E+03  0.2735E+03
     -0.921  0.1594E+03  0.2770E+03
     -0.899  0.1685E+03  0.2807E+03
     -0.876  0.1508E+03  0.2840E+03
     -0.854  0.1516E+03  0.2874E+03
     -0.832  0.1748E+03  0.2912E+03
     -0.810  0.2006E+03  0.2956E+03
     -0.788  0.2307E+03  0.3007E+03
     -0.766  0.2491E+03  0.3062E+03
     -0.744  0.2294E+03  0.3113E+03
     -0.722  0.2050E+03  0.3158E+03
     -0.700  0.2164E+03  0.3206E+03
     -0.678  0.2433E+03  0.3259E+03
     -0.656  0.2349E+03  0.3311E+03
     -0.634  0.2094E+03  0.3357E+03
     -0.612  0.1807E+03  0.3397E+03
     -0.590  0.1561E+03  0.3431E+03
     -0.568  0.1710E+03  0.3469E+03
     -0.546  0.1848E+03  0.3510E+03
     -0.524  0.1676E+03  0.3547E+03
     -0.502  0.1483E+03  0.3579E+03
     -0.480  0.1666E+03  0.3616E+03
     -0.458  0.2016E+03  0.3660E+03
     -0.436  0.2087E+03  0.3706E+03
     -0.414  0.2029E+03  0.3751E+03
     -0.392  0.1992E+03  0.3795E+03
     -0.370  0.1957E+03  0.3838E+03
     -0.348  0.2072E+03  0.3884E+03
     -0.326  0.2361E+03  0.3936E+03
     -0.304  0.2714E+03  0.3996E+03
     -0.282  0.3001E+03  0.4062E+03
     -0.259  0.2851E+03  0.4125E+03
     -0.237  0.2270E+03  0.4175E+03
     -0.215  0.1873E+03  0.4216E+03
     -0.193  0.1910E+03  0.4258E+03
     -0.171  0.2119E+03  0.4305E+03
     -0.149  0.2228E+03  0.4354E+03
     -0.127  0.2181E+03  0.4402E+03
     -0.105  0.2097E+03  0.4448E+03
     -0.083  0.1990E+03  0.4492E+03
     -0.061  0.1966E+03  0.4535E+03
     -0.039  0.2018E+03  0.4580E+03
     -0.017  0.1989E+03  0.4623E+03
      0.005  0.1873E+03  0.4665E+03
      0.027  0.1867E+03  0.4706E+03
      0.049  0.1946E+03  0.4749E+03
      0.071  0.2081E+03  0.4795E+03
      0.093  0.2374E+03  0.4847E+03
      0.115  0.2752E+03  0.4908E+03
      0.137  0.3010E+03  0.4974E+03
      0.159  0.3092E+03  0.5042E+03
      0.181  0.3066E+03  0.5110E+03
      0.203  0.3006E+03  0.5176E+03
      0.225  0.2919E+03  0.5240E+03
      0.247  0.2963E+03  0.5305E+03
      0.269  0.3177E+03  0.5375E+03
      0.291  0.3205E+03  0.5446E+03
      0.313  0.2944E+03  0.5511E+03
      0.335  0.2648E+03  0.5569E+03
      0.357  0.2483E+03  0.5624E+03
      0.380  0.2610E+03  0.5682E+03
      0.402  0.2702E+03  0.5741E+03
      0.424  0.2573E+03  0.5798E+03
      0.446  0.2402E+03  0.5851E+03
      0.468  0.2149E+03  0.5898E+03
      0.490  0.1924E+03  0.5940E+03
      0.512  0.2026E+03  0.5985E+03
      0.534  0.2348E+03  0.6037E+03
      0.556  0.2455E+03  0.6091E+03
      0.578  0.2278E+03  0.6141E+03
      0.600  0.2074E+03  0.6187E+03
      0.622  0.1994E+03  0.6231E+03
      0.644  0.1984E+03  0.6274E+03
      0.666  0.1981E+03  0.6318E+03
      0.688  0.2075E+03  0.6364E+03
      0.710  0.2298E+03  0.6414E+03
      0.732  0.2477E+03  0.6469E+03
      0.754  0.2594E+03  0.6526E+03
      0.776  0.2624E+03  0.6584E+03
      0.798  0.2563E+03  0.6641E+03
      0.820  0.2580E+03  0.6697E+03
      0.842  0.2667E+03  0.6756E+03
      0.864  0.2644E+03  0.6814E+03
      0.886  0.2416E+03  0.6868E+03
      0.908  0.2267E+03  0.6918E+03
      0.930  0.2279E+03  0.6968E+03
      0.952  0.2320E+03  0.7019E+03
      0.974  0.2359E+03  0.7071E+03
      0.997  0.2410E+03  0.7124E+03
      1.019  0.2456E+03  0.7178E+03
      1.041  0.2457E+03  0.7232E+03
      1.063  0.2330E+03  0.7284E+03
      1.085  0.2117E+03  0.7330E+03
      1.107  0.1970E+03  0.7374E+03
      1.129  0.1942E+03  0.7417E+03
      1.151  0.2097E+03  0.7463E+03
      1.173  0.2321E+03  0.7514E+03
      1.195  0.2421E+03  0.7567E+03
      1.217  0.2436E+03  0.7621E+03
      1.239  0.2361E+03  0.7673E+03
      1.261  0.2260E+03  0.7723E+03
      1.283  0.2317E+03  0.7774E+03
      1.305  0.2410E+03  0.7827E+03
      1.327  0.2371E+03  0.7879E+03
      1.349  0.2286E+03  0.7930E+03
      1.371  0.2302E+03  0.7980E+03
      1.393  0.2351E+03  0.8032E+03
      1.415  0.2399E+03  0.8085E+03
      1.437  0.2418E+03  0.8138E+03
      1.459  0.2435E+03  0.8192E+03
      1.481  0.2469E+03  0.8246E+03
      1.503  0.2480E+03  0.8301E+03
      1.525  0.2284E+03  0.8351E+03
      1.547  0.2047E+03  0.8396E+03
      1.569  0.2053E+03  0.8442E+03
      1.591  0.2117E+03  0.8488E+03
      1.614  0.2143E+03  0.8535E+03
      1.636  0.2113E+03  0.8582E+03
      1.658  0.2102E+03  0.8628E+03
      1.680  0.2122E+03  0.8675E+03
      1.702  0.2039E+03  0.8720E+03
      1.724  0.1978E+03  0.8764E+03
      1.746  0.2025E+03  0.8808E+03
      1.768  0.2065E+03  0.8854E+03
      1.790  0.1984E+03  0.8897E+03
      1.812  0.1797E+03  0.8937E+03
      1.834  0.1677E+03  0.8974E+03
      1.856  0.1685E+03  0.9011E+03
      1.878  0.1678E+03  0.9048E+03
      1.900  0.1626E+03  0.9084E+03
      1.922  0.1604E+03  0.9119E+03
      1.944  0.1585E+03  0.9154E+03
      1.966  0.1545E+03  0.9188E+03
      1.988  0.1542E+03  0.9222E+03
      2.010  0.1562E+03  0.9257E+03
      2.032  0.1544E+03  0.9291E+03
      2.054  0.1553E+03  0.9325E+03
      2.076  0.1574E+03  0.9360E+03
      2.098  0.1507E+03  0.9393E+03
      2.120  0.1415E+03  0.9424E+03
      2.142  0.1416E+03  0.9455E+03
      2.164  0.1499E+03  0.9488E+03
      2.186  0.1568E+03  0.9523E+03
      2.208  0.1587E+03  0.9558E+03
      2.231  0.1572E+03  0.9592E+03
      2.253  0.1562E+03  0.9627E+03
      2.275  0.1523E+03  0.9660E+03
      2.297  0.1465E+03  0.9693E+03
      2.319  0.1370E+03  0.9723E+03
      2.341  0.1237E+03  0.9750E+03
      2.363  0.1146E+03  0.9775E+03
      2.385  0.1225E+03  0.9802E+03
      2.407  0.1372E+03  0.9833E+03
      2.429  0.1377E+03  0.9863E+03
      2.451  0.1397E+03  0.9894E+03
      2.473  0.1400E+03  0.9925E+03
      2.495  0.1236E+03  0.9952E+03
      2.517  0.1052E+03  0.9975E+03
      2.539  0.9297E+02  0.9995E+03
      2.561  0.8489E+02  0.1001E+04
      2.583  0.7431E+02  0.1003E+04
      2.605  0.5996E+02  0.1004E+04
      2.627  0.4778E+02  0.1005E+04
      2.649  0.3656E+02  0.1006E+04
      2.671  0.3515E+02  0.1007E+04
      2.693  0.3016E+02  0.1008E+04
      2.715  0.1608E+02  0.1008E+04
      2.737  0.1865E+02  0.1008E+04
      2.759  0.3278E+02  0.1009E+04
      2.781  0.2711E+02  0.1010E+04
      2.803  0.9555E+01  0.1010E+04
      2.825  0.1418E+01  0.1010E+04
      2.848  0.8574E-01  0.1010E+04
      2.870  0.2016E-02  0.1010E+04
      2.892  0.1767E-04  0.1010E+04
      2.914  0.5599E-07  0.1010E+04
      2.936  0.6280E-10  0.1010E+04
      2.958  0.2519E-13  0.1010E+04
      2.980  0.0000E+00  0.1010E+04
      3.002  0.0000E+00  0.1010E+04
      3.024  0.0000E+00  0.1010E+04
      3.046  0.0000E+00  0.1010E+04
      3.068  0.0000E+00  0.1010E+04
