 running on   64 total cores
 distrk:  each k-point on   32 cores,    2 groups
 distr:  one band on   32 cores,    1 groups
 vasp.6.2.1 16May21 (build Nov 23 2021 15:40:41) complex                        
  
 POSCAR found type information on POSCAR Li
 POSCAR found :  1 types and     504 ions
 scaLAPACK will be used
 -----------------------------------------------------------------------------
|                                                                             |
|           W    W    AA    RRRRR   N    N  II  N    N   GGGG   !!!           |
|           W    W   A  A   R    R  NN   N  II  NN   N  G    G  !!!           |
|           W    W  A    A  R    R  N N  N  II  N N  N  G       !!!           |
|           W WW W  AAAAAA  RRRRR   N  N N  II  N  N N  G  GGG   !            |
|           WW  WW  A    A  R   R   N   NN  II  N   NN  G    G                |
|           W    W  A    A  R    R  N    N  II  N    N   GGGG   !!!           |
|                                                                             |
|     For optimal performance we recommend to set                             |
|       NCORE = 2 up to number-of-cores-per-socket                            |
|     NCORE specifies how many cores store one orbital (NPAR=cpu/NCORE).      |
|     This setting can greatly improve the performance of VASP for DFT.       |
|     The default, NCORE=1 might be grossly inefficient on modern             |
|     multi-core architectures or massively parallel machines. Do your        |
|     own testing! More info at https://www.vasp.at/wiki/index.php/NCORE      |
|     Unfortunately you need to use the default for GW and RPA                |
|     calculations (for HF NCORE is supported but not extensively tested      |
|     yet).                                                                   |
|                                                                             |
 -----------------------------------------------------------------------------

 -----------------------------------------------------------------------------
|                                                                             |
|               ----> ADVICE to this user running VASP <----                  |
|                                                                             |
|     You have a (more or less) 'large supercell' and for larger cells it     |
|     might be more efficient to use real-space projection operators.         |
|     Therefore, try LREAL= Auto in the INCAR file.                           |
|     Mind: If you want to do very accurate calculations, keep the            |
|     reciprocal projection scheme (i.e. LREAL=.FALSE.).                      |
|                                                                             |
 -----------------------------------------------------------------------------

 LDA part: xc-table for Pade appr. of Perdew
 POSCAR found type information on POSCAR Li
 POSCAR found :  1 types and     504 ions
 POSCAR, INCAR and KPOINTS ok, starting setup
 FFT: planning ...
 WAVECAR not read
 entering main loop
       N       E                     dE             d eps       ncg     rms          rms(c)
DAV:   1    -0.335479312100E+03   -0.33548E+03   -0.11887E+05  4040   0.646E+02
DAV:   2    -0.898824256898E+03   -0.56334E+03   -0.51644E+03  4628   0.642E+01
DAV:   3    -0.938812504901E+03   -0.39988E+02   -0.36519E+02  5184   0.135E+01
DAV:   4    -0.940213425480E+03   -0.14009E+01   -0.13773E+01  4672   0.275E+00
DAV:   5    -0.940245335226E+03   -0.31910E-01   -0.31842E-01  4832   0.445E-01    0.671E+00
DAV:   6    -0.939243859095E+03    0.10015E+01   -0.56879E+00  4624   0.327E+00    0.580E+00
DAV:   7    -0.935732450844E+03    0.35114E+01   -0.51990E+00  4656   0.319E+00    0.395E+00
DAV:   8    -0.934081609915E+03    0.16508E+01   -0.25494E+00  4624   0.184E+00    0.238E+00
DAV:   9    -0.934017511093E+03    0.64099E-01   -0.15362E+00  4648   0.129E+00    0.195E+00
DAV:  10    -0.933544738881E+03    0.47277E+00   -0.86261E-01  4568   0.928E-01    0.927E-01
DAV:  11    -0.933529783588E+03    0.14955E-01   -0.27929E-01  4344   0.400E-01    0.554E-01
DAV:  12    -0.933535866486E+03   -0.60829E-02   -0.67140E-02  4808   0.292E-01    0.489E-01
DAV:  13    -0.933513315662E+03    0.22551E-01   -0.26656E-02  4632   0.205E-01    0.259E-01
DAV:  14    -0.933510939602E+03    0.23761E-02   -0.90740E-03  4560   0.111E-01    0.151E-01
DAV:  15    -0.933510527178E+03    0.41242E-03   -0.55126E-03  4576   0.874E-02    0.118E-01
DAV:  16    -0.933508991853E+03    0.15353E-02   -0.25032E-03  4536   0.536E-02    0.464E-02
DAV:  17    -0.933509128719E+03   -0.13687E-03   -0.61965E-04  4624   0.296E-02    0.430E-02
DAV:  18    -0.933508873274E+03    0.25545E-03   -0.37637E-04  4560   0.226E-02    0.179E-02
DAV:  19    -0.933508849951E+03    0.23323E-04   -0.10668E-04  4392   0.101E-02    0.109E-02
DAV:  20    -0.933508836517E+03    0.13434E-04   -0.41634E-05  4216   0.566E-03    0.497E-03
DAV:  21    -0.933508837371E+03   -0.85396E-06   -0.65133E-06  2408   0.331E-03
   1 F= -.93350884E+03 E0= -.93343935E+03  d E =-.138973E+00
