Li                                      
           1
   -11.070570   19.174790    0.000000
   -18.978120  -10.957023    0.000000
     0.000000    0.000000   23.220300
   Li
   504
Direct configuration=     1
   0.00055506  0.99556837  0.99662579
   0.93142127  0.04692626  0.66350112
   0.85764749  0.07763980  0.33672046
   0.76075202  0.12184414  0.01114796
   0.71576761  0.17801962  0.66520330
   0.63696613  0.21959001  0.33586580
   0.56686100  0.24267665  0.98766479
   0.51147870  0.28621723  0.66470848
   0.40342103  0.32751868  0.32862402
   0.35879894  0.37517019  0.99896040
   0.29660420  0.42676661  0.67468952
   0.21298458  0.45060899  0.33906740
   0.06506999  0.03587957  0.64824332
   0.98430111  0.06794919  0.32753485
   0.91701629  0.10726283  0.99575754
   0.86108395  0.16211937  0.66851376
   0.77742705  0.21629082  0.33788560
   0.70338565  0.26065771  0.00265454
   0.64351201  0.29813768  0.66080463
   0.56407895  0.34456806  0.33308065
   0.49677624  0.37395699  0.00737597
   0.43143828  0.40817048  0.67051412
   0.35932442  0.44847451  0.34967836
   0.30155405  0.49903571  0.01031980
   0.12726305  0.06867496  0.33142817
   0.07329378  0.13456797  0.98015060
   0.01267855  0.15276025  0.66090494
   0.89586696  0.19336013  0.32312524
   0.83935453  0.24099962  0.01762784
   0.79005491  0.28988276  0.66684875
   0.71028268  0.34401696  0.34367729
   0.64496365  0.38170272  0.01852277
   0.55582276  0.43140070  0.67116629
   0.49878021  0.45427082  0.33996819
   0.44274834  0.49274011  0.99421316
   0.38148481  0.53733754  0.67116951
   0.22274925  0.12516329  0.00207806
   0.14660313  0.15186348  0.65273459
   0.03468449  0.19641155  0.32961531
   0.97400806  0.24919173  0.01008460
   0.93441334  0.28193087  0.67022361
   0.84400743  0.33388065  0.33278867
   0.78317907  0.38623191  0.00414421
   0.71374885  0.41856779  0.67963926
   0.65031919  0.46886188  0.34400322
   0.57787319  0.50621347  0.99623105
   0.48384939  0.55112926  0.66577045
   0.42370056  0.58930478  0.34463258
   0.30226021  0.18143084  0.66930281
   0.19221001  0.21332062  0.32579917
   0.15258850  0.24374081  0.99107007
   0.06326121  0.29061504  0.66170228
   0.98132189  0.32397414  0.33436054
   0.93386267  0.37596866  0.98979566
   0.84798600  0.42083050  0.67116503
   0.79203345  0.47728182  0.33018043
   0.72198601  0.50517312  0.00819175
   0.64421638  0.54977894  0.66685769
   0.56934152  0.57421161  0.33842950
   0.49438712  0.62084291  0.00230852
   0.33825664  0.20493404  0.32797469
   0.29813278  0.24315610  0.99538651
   0.21802506  0.30437623  0.66299123
   0.13302224  0.32567893  0.34409875
   0.08745807  0.36364609  0.98725477
   0.99478056  0.42422094  0.67214147
   0.93547119  0.44780700  0.33766763
   0.86128120  0.52225074  0.00099848
   0.78241946  0.53211575  0.66350592
   0.70602842  0.58973901  0.33184235
   0.63915871  0.62881646  0.00870672
   0.57884097  0.66783088  0.66726487
   0.42445145  0.25289070  0.99973525
   0.37349598  0.28391523  0.68661961
   0.27556336  0.32875416  0.33253233
   0.22294117  0.37328409  0.98115965
   0.14126118  0.41879593  0.66722858
   0.06292633  0.46301324  0.34487179
   0.00838127  0.50254588  0.00514288
   0.93179282  0.55465585  0.67349142
   0.84068848  0.59732120  0.33580194
   0.78307895  0.62965801  0.00788935
   0.72028521  0.65010759  0.68431828
   0.64726903  0.71028285  0.33441311
   0.14941626  0.49295585  0.01120983
   0.08077231  0.54663210  0.66745764
   0.97499261  0.57891661  0.34127076
   0.93761958  0.62856043  0.99999509
   0.86863296  0.67065846  0.66762010
   0.77537997  0.70164582  0.33599851
   0.70058717  0.74240315  0.00629562
   0.23073004  0.54583790  0.66703976
   0.13129671  0.58019671  0.34441797
   0.07488917  0.61497349  0.99580977
   0.00692975  0.66461348  0.66978085
   0.91952031  0.70439193  0.33954922
   0.84549694  0.75056852  0.99902951
   0.80453715  0.78924129  0.66744821
   0.27030153  0.57355523  0.33203789
   0.20515382  0.62406549  0.01027957
   0.14236217  0.66377576  0.65951242
   0.06015591  0.69601940  0.32983655
   0.99239680  0.74407256  0.99236785
   0.93149780  0.80775802  0.66341480
   0.85769480  0.82128580  0.33556147
   0.34471533  0.62332458  0.00031494
   0.29162014  0.65319272  0.66590262
   0.21307209  0.69638686  0.33536944
   0.12451850  0.74262573  0.00710551
   0.08162333  0.80153684  0.66621644
   0.99923863  0.82988584  0.33324236
   0.92158597  0.87379976  0.99685328
   0.42024311  0.67756122  0.65080765
   0.35385163  0.72776344  0.33464696
   0.27805685  0.72749590  0.99179836
   0.22174402  0.78151766  0.67015901
   0.13056189  0.83664891  0.33005906
   0.06234122  0.87750488  0.00420611
   0.01836568  0.93185015  0.65774679
   0.92638766  0.94698719  0.33658661
   0.84270122  0.99869456  0.00396802
   0.79745803  0.04867981  0.68107880
   0.69459448  0.08350086  0.34579222
   0.63649461  0.12490042  0.99431761
   0.57080802  0.15935674  0.65610823
   0.49562562  0.20477044  0.32004816
   0.07443043  0.95586531  0.32919085
   0.13599094  0.00186948  0.99050893
   0.21471276  0.04179535  0.65982747
   0.26811029  0.08350262  0.32676775
   0.35617968  0.11458053  0.00663268
   0.42598129  0.16504585  0.66648329
   0.87060243  0.92381176  0.68039626
   0.80452332  0.96839687  0.33496259
   0.70633430  0.00070451  0.99551718
   0.65367728  0.05030899  0.64312475
   0.57272943  0.08012165  0.33914927
   0.50778758  0.13126264  0.00222757
   0.15136074  0.92094776  0.66016284
   0.20610464  0.95305698  0.33045669
   0.27781661  0.01075645  0.99329275
   0.36882096  0.04661233  0.66276587
   0.42068164  0.09052964  0.32578702
   0.77674760  0.87885267  0.01892440
   0.72575946  0.92066924  0.66274590
   0.65041479  0.94918272  0.35377196
   0.56617214  0.00978136  0.00285240
   0.49323239  0.04282441  0.65399137
   0.21420168  0.88490918  0.98160855
   0.28488553  0.92096975  0.65838052
   0.34268525  0.95480287  0.31999868
   0.42872236  0.98867740  0.98204835
   0.71832378  0.82999451  0.32914804
   0.63782815  0.88087637  0.00262384
   0.57073611  0.92622222  0.65898393
   0.50319754  0.96186299  0.32770994
   0.27331076  0.83794364  0.32851843
   0.34703887  0.87426636  0.99558364
   0.43306847  0.91774911  0.66701772
   0.66072082  0.79797471  0.66376672
   0.56648699  0.84071692  0.32905807
   0.48565520  0.88634887  0.99298654
   0.35987903  0.80677191  0.66755166
   0.42265388  0.83704174  0.33107902
   0.56827443  0.75443598  0.01679773
   0.51348833  0.78745323  0.66166588
   0.42639448  0.75173583  0.00355962
   0.50714083  0.71608591  0.32685705
   0.98791791  0.99409091  0.77528839
   0.91816234  0.02234581  0.45689948
   0.84986631  0.08285482  0.11058599
   0.78479917  0.13831333  0.79315624
   0.71566908  0.17814957  0.43981840
   0.64186204  0.20309591  0.10998357
   0.59088601  0.24826442  0.77955497
   0.48246743  0.29602113  0.44690748
   0.41867050  0.32456289  0.11345631
   0.37569037  0.37312241  0.78609288
   0.27625429  0.40908160  0.44440197
   0.23534697  0.44987138  0.10418661
   0.06426354  0.02138771  0.44844016
   0.00215058  0.08325378  0.10543314
   0.92689118  0.11712784  0.77808544
   0.85868638  0.16880953  0.45301954
   0.77378144  0.20774707  0.12056318
   0.70866685  0.26969616  0.77248252
   0.63230277  0.28933819  0.43955686
   0.57470624  0.32532376  0.10020152
   0.51623912  0.36815474  0.78651168
   0.42318673  0.42521244  0.45160322
   0.36861319  0.45460286  0.11882801
   0.30379553  0.49826835  0.77977747
   0.13067024  0.07624893  0.10950212
   0.08552115  0.11727095  0.77041570
   0.99005801  0.16638749  0.43851416
   0.94065845  0.19896314  0.11515137
   0.85314065  0.25830546  0.77557357
   0.77815040  0.29738631  0.44078423
   0.72066931  0.33117928  0.12914175
   0.63986228  0.38501389  0.77152059
   0.57612038  0.40816219  0.44390565
   0.50456673  0.45147351  0.12263542
   0.44719184  0.49280939  0.77328463
   0.34375929  0.54090152  0.43050433
   0.23095017  0.13085908  0.77390840
   0.13311969  0.15629104  0.43927957
   0.07990663  0.19753568  0.10146141
   0.01146747  0.24190338  0.78683873
   0.90265933  0.30523646  0.44632937
   0.86530508  0.31534637  0.09631750
   0.79034629  0.38528098  0.78004004
   0.72822196  0.42576763  0.44067712
   0.66751548  0.45627491  0.11425562
   0.58498492  0.50554853  0.77929333
   0.50346737  0.54260582  0.44834774
   0.42372746  0.56788740  0.11402880
   0.28110084  0.17221017  0.44667960
   0.21132638  0.21836566  0.11281657
   0.14441760  0.24866552  0.76669932
   0.06686851  0.28740345  0.44030221
   0.01189067  0.32726879  0.10547004
   0.93831309  0.38366663  0.76984896
   0.85133324  0.42506803  0.45480899
   0.80997013  0.46493995  0.12308031
   0.71738183  0.50511004  0.77182043
   0.62568106  0.53755798  0.45297339
   0.58052117  0.57195205  0.12196385
   0.50837098  0.62929619  0.77399403
   0.36364165  0.20842084  0.11524001
   0.30177192  0.26522911  0.76756597
   0.22040160  0.28284840  0.44916342
   0.15506632  0.34116807  0.11135037
   0.07894751  0.36617554  0.77700799
   0.98986710  0.41857061  0.45227295
   0.94065609  0.44722331  0.11563175
   0.86372425  0.50490451  0.76829250
   0.76294378  0.55717075  0.43583088
   0.72212178  0.58485283  0.12972381
   0.64871636  0.62416482  0.77125212
   0.57535257  0.67043679  0.43869315
   0.44543122  0.25885201  0.77483812
   0.35704797  0.30043554  0.45653118
   0.29020019  0.31228119  0.09855228
   0.23074268  0.35904336  0.77545139
   0.14823937  0.41298570  0.46192163
   0.08665223  0.44848469  0.11771509
   0.00915425  0.49464071  0.77147471
   0.91313153  0.54169464  0.46356904
   0.86961120  0.58253701  0.10072571
   0.79213512  0.61048402  0.77510317
   0.70287332  0.66767594  0.45448733
   0.64019731  0.70344257  0.10555832
   0.15047682  0.48771640  0.76920106
   0.03493501  0.52918065  0.44844361
   0.00711182  0.58292857  0.11681679
   0.92900612  0.61833572  0.78936689
   0.83210929  0.67857441  0.43371290
   0.78166514  0.70677161  0.11718663
   0.72270869  0.75132859  0.77385994
   0.19902929  0.54917709  0.44765344
   0.14910184  0.57504673  0.11249245
   0.07266384  0.62017652  0.77767164
   0.98074695  0.66057905  0.43865037
   0.92827366  0.70614591  0.10963839
   0.85536066  0.75421847  0.77969141
   0.78494021  0.78492067  0.44521866
   0.29302353  0.58451925  0.11847725
   0.20612214  0.62418812  0.76888273
   0.12587052  0.64501253  0.43533723
   0.05741267  0.70249744  0.11392779
   0.00144291  0.75596303  0.77541785
   0.92707859  0.79837592  0.44766571
   0.85888006  0.84672167  0.10687367
   0.37084709  0.62405720  0.76664322
   0.28942594  0.66340557  0.43653915
   0.20055079  0.69911004  0.11697390
   0.15229361  0.74915710  0.78089010
   0.07328452  0.79719212  0.44239344
   0.99488750  0.83735919  0.10386439
   0.91645236  0.88191778  0.77232651
   0.43570513  0.67976048  0.45785038
   0.34484400  0.70665839  0.11458173
   0.27868913  0.73729955  0.77308906
   0.23032075  0.79865300  0.44694717
   0.14726825  0.83085882  0.10540172
   0.05023404  0.86309447  0.75152805
   0.99494319  0.91008424  0.44688618
   0.94737515  0.97291956  0.10117672
   0.85856579  0.00105523  0.78555737
   0.79558929  0.04049440  0.44432420
   0.72064145  0.07792682  0.12567553
   0.63810180  0.11789558  0.76514116
   0.58087899  0.18132534  0.44489044
   0.50694407  0.20393005  0.11125406
   0.07601677  0.95295062  0.10560377
   0.14675813  0.99601922  0.77150831
   0.18937853  0.04151848  0.44081708
   0.27243985  0.10328570  0.11448214
   0.36247756  0.12215264  0.78592218
   0.43038034  0.18069669  0.42195694
   0.85272892  0.90560310  0.45306613
   0.78557559  0.94475352  0.12016614
   0.70619638  0.01278424  0.76451022
   0.65680584  0.05450034  0.45105840
   0.58479260  0.07511182  0.11378439
   0.49990152  0.12611770  0.76870421
   0.14811156  0.91013909  0.44260389
   0.21671450  0.94889720  0.10334420
   0.28170063  0.01771593  0.77044067
   0.34091814  0.04988178  0.43716604
   0.42736841  0.07962964  0.09924764
   0.77442757  0.87324845  0.78625973
   0.72472702  0.92146927  0.45203264
   0.64928271  0.95678897  0.10754376
   0.54894655  0.01609806  0.77233444
   0.49788463  0.06029192  0.44762590
   0.20561797  0.85733251  0.78669269
   0.29388865  0.92212149  0.44051014
   0.35675473  0.95992339  0.09416437
   0.42064759  0.99556122  0.78130188
   0.70572017  0.83665650  0.11408242
   0.64101227  0.88315709  0.77402737
   0.56550484  0.93064194  0.43650338
   0.51296843  0.96005013  0.11912963
   0.28687402  0.81976314  0.08949803
   0.33577588  0.88104868  0.76964057
   0.43696796  0.93737364  0.43176554
   0.64295352  0.80234587  0.44064899
   0.56167573  0.82816937  0.11123383
   0.50230652  0.89238342  0.77596793
   0.36006585  0.80775991  0.44132472
   0.43427548  0.81827900  0.10989456
   0.57739458  0.75453869  0.77393998
   0.50034141  0.79601405  0.45129132
   0.44916770  0.76030663  0.78924620
   0.50320044  0.68598321  0.11377514
   0.98047742  0.00412956  0.21689183
   0.91706754  0.01890987  0.88816248
   0.86924699  0.08580166  0.55631674
   0.76891392  0.13472183  0.24641278
   0.69657361  0.18214189  0.88856145
   0.62403004  0.21814788  0.54974998
   0.56349480  0.25216945  0.21886953
   0.50690298  0.29848895  0.88408500
   0.42859469  0.33077122  0.57226514
   0.34900479  0.36898365  0.21339437
   0.29932286  0.41743208  0.88885033
   0.21937993  0.45435619  0.55001976
   0.05440869  0.04186786  0.88365364
   0.99084573  0.08406098  0.55564478
   0.92267358  0.11298312  0.22024083
   0.85302407  0.17763682  0.90891822
   0.79207724  0.21283835  0.55721832
   0.69315155  0.25081983  0.21872555
   0.65282982  0.30970626  0.89714546
   0.57263470  0.32912449  0.55329512
   0.48382528  0.37232790  0.22251252
   0.43870496  0.43285641  0.89128664
   0.37502929  0.45868273  0.55212682
   0.28369702  0.48429031  0.23032701
   0.13361433  0.06840892  0.53966281
   0.07165303  0.12849348  0.22183576
   0.99849817  0.15795706  0.88838716
   0.93125164  0.20552872  0.56793886
   0.85184047  0.24851759  0.21750111
   0.78915654  0.29424409  0.89780499
   0.71217794  0.34345981  0.56563903
   0.64629629  0.37700053  0.21841672
   0.56721275  0.42227853  0.90395161
   0.49784324  0.46152441  0.55999137
   0.42443519  0.51647478  0.23890518
   0.37144597  0.54951608  0.89589687
   0.19587998  0.12451897  0.21329856
   0.15477126  0.17001333  0.87243035
   0.06310043  0.21097757  0.55396010
   0.99760291  0.24673540  0.22739270
   0.92955123  0.28429625  0.88689376
   0.86338066  0.33820127  0.56567332
   0.79745471  0.36497225  0.22360915
   0.72671361  0.42080924  0.89994563
   0.64274238  0.45489704  0.56762555
   0.57995458  0.49245222  0.23111390
   0.51404762  0.54918928  0.87628313
   0.42320218  0.57879829  0.55397572
   0.27943366  0.16624864  0.89652066
   0.20930100  0.20301188  0.56261418
   0.11955086  0.27283836  0.22084650
   0.07928451  0.28335127  0.89629026
   0.98496255  0.34959397  0.56180079
   0.92784537  0.36678432  0.21632478
   0.86637992  0.42887781  0.89601449
   0.79211751  0.45988011  0.55540755
   0.70997991  0.49271501  0.22814666
   0.66131917  0.55676185  0.88746558
   0.57145617  0.58429114  0.55623503
   0.51695137  0.61609588  0.22281245
   0.36408091  0.20616050  0.55031531
   0.27381881  0.24332571  0.21916936
   0.21955767  0.28024174  0.87822812
   0.13844819  0.33657080  0.55034075
   0.05646243  0.38117157  0.23782170
   0.01450204  0.39371763  0.87903276
   0.94076692  0.45918116  0.56784377
   0.86813141  0.50426728  0.22430712
   0.79893688  0.53953927  0.88827707
   0.71825204  0.58461792  0.56471243
   0.63452922  0.60904019  0.22704761
   0.57905454  0.67889465  0.89391426
   0.40782886  0.23831344  0.22258374
   0.36539748  0.28699129  0.89842483
   0.29089211  0.32820710  0.55657952
   0.20392455  0.37055183  0.22068637
   0.16447773  0.40788464  0.88003689
   0.08350854  0.46192241  0.56393854
   0.00684197  0.50642171  0.22175701
   0.94669446  0.52740055  0.89943879
   0.85425653  0.59113393  0.55962508
   0.79860597  0.61900970  0.22071960
   0.71902828  0.67073844  0.88425696
   0.65566198  0.72422738  0.56025946
   0.14862187  0.49069561  0.23005145
   0.08484896  0.53804445  0.88797074
   0.99618736  0.59736563  0.56672090
   0.92920402  0.61628793  0.22914390
   0.87005538  0.65228737  0.89348705
   0.80903339  0.71135744  0.56081419
   0.72290920  0.74757415  0.21650883
   0.21456329  0.52798965  0.90586935
   0.12805890  0.57798743  0.54774426
   0.07553139  0.61985956  0.22225593
   0.01648815  0.66189171  0.88718104
   0.92767754  0.71872915  0.55812987
   0.85463111  0.75240364  0.21852425
   0.78696571  0.78862195  0.89763320
   0.27236590  0.57507035  0.54559764
   0.21820549  0.62210903  0.23392980
   0.15194669  0.67391783  0.87232701
   0.07168305  0.70753849  0.55503941
   0.99302666  0.76124440  0.22092248
   0.92381384  0.76685405  0.89109278
   0.86090568  0.84880644  0.56329203
   0.36622873  0.61631483  0.22808691
   0.29563078  0.65088316  0.88647420
   0.21485656  0.69831962  0.55159028
   0.13949748  0.75003097  0.22554449
   0.05976751  0.79092271  0.87008351
   0.00160131  0.83309954  0.55345899
   0.93437460  0.88301091  0.22140380
   0.43519757  0.66991997  0.87865182
   0.35689408  0.71607980  0.54825397
   0.28257317  0.74054387  0.21000747
   0.21720224  0.78325316  0.90082842
   0.14889779  0.83533384  0.56372894
   0.06176213  0.87631212  0.22119991
   0.99134936  0.90312985  0.88358982
   0.93573796  0.95058626  0.56593376
   0.85388668  0.00517724  0.21519559
   0.77923955  0.05864230  0.88875960
   0.73316080  0.09801131  0.54813722
   0.63935152  0.11963995  0.23169998
   0.57431371  0.16941580  0.88054095
   0.49044914  0.20306341  0.56000293
   0.07587273  0.95408583  0.54044134
   0.14467711  0.99431240  0.22375127
   0.20352465  0.03909114  0.88723987
   0.27927105  0.08862542  0.56494372
   0.34642085  0.10827056  0.21014907
   0.42927910  0.18010316  0.89472081
   0.85387045  0.90901626  0.89537664
   0.80218166  0.96859266  0.56601504
   0.72168195  0.99899266  0.22948332
   0.63803543  0.04305751  0.87920425
   0.56962128  0.08928751  0.55283018
   0.48806235  0.12326537  0.20690185
   0.13701620  0.90918172  0.86972546
   0.22210306  0.94908460  0.55244368
   0.28040943  0.97782616  0.22680249
   0.34309864  0.04725788  0.88707761
   0.43290837  0.07255355  0.55145493
   0.80211582  0.87976066  0.22520054
   0.72731985  0.92370372  0.88906230
   0.63645510  0.95070381  0.55413859
   0.58754148  0.99653304  0.23222627
   0.49285512  0.06016749  0.87762915
   0.21101737  0.86900899  0.21145432
   0.27988250  0.93230732  0.88435028
   0.37764873  0.96215474  0.54322773
   0.41809962  0.99976906  0.21363111
   0.73211890  0.84396998  0.55270611
   0.65618271  0.87971710  0.21457474
   0.57381171  0.92651330  0.88907417
   0.50863015  0.94957886  0.54915457
   0.28958439  0.83430994  0.55229990
   0.34453441  0.86934750  0.20813125
   0.43184087  0.92320811  0.88826232
   0.64694684  0.79835787  0.88117331
   0.57835719  0.83668787  0.56245004
   0.48802545  0.88679384  0.21843621
   0.35180560  0.80313772  0.89635729
   0.44131160  0.83762985  0.55954488
   0.58492017  0.76300531  0.22116336
   0.50403011  0.80792387  0.89926239
   0.43043433  0.73649807  0.22419541
   0.51539313  0.70571265  0.56298789
