 504 504   0   0
  0.2106490E+02  0.2170700E-08  0.2148436E-08  0.2276500E-08  0.5000000E-15
  1.000000000000000E-004
  CAR 
 Li                                      
      3.24498677     -3.47511674  301      0.29902755      1.00000000
     -3.475  0.0000E+00  0.0000E+00
     -3.453  0.0000E+00  0.0000E+00
     -3.430  0.0000E+00  0.0000E+00
     -3.408  0.0000E+00  0.0000E+00
     -3.386  0.0000E+00  0.0000E+00
     -3.363  0.0000E+00  0.0000E+00
     -3.341  0.3222E-13  0.7216E-15
     -3.318  0.1061E-09  0.2377E-11
     -3.296  0.1164E-06  0.2610E-08
     -3.274  0.4300E-04  0.9659E-06
     -3.251  0.5394E-02  0.1218E-03
     -3.229  0.2324E+00  0.5327E-02
     -3.206  0.3491E+01  0.8353E-01
     -3.184  0.1859E+02  0.4999E+00
     -3.162  0.3559E+02  0.1297E+01
     -3.139  0.2470E+02  0.1850E+01
     -3.117  0.7236E+01  0.2012E+01
     -3.094  0.1173E+02  0.2275E+01
     -3.072  0.4746E+02  0.3338E+01
     -3.050  0.8981E+02  0.5350E+01
     -3.027  0.7994E+02  0.7141E+01
     -3.005  0.3299E+02  0.7880E+01
     -2.982  0.1281E+02  0.8167E+01
     -2.960  0.3851E+02  0.9029E+01
     -2.938  0.8436E+02  0.1092E+02
     -2.915  0.8584E+02  0.1284E+02
     -2.893  0.4333E+02  0.1381E+02
     -2.870  0.2236E+02  0.1431E+02
     -2.848  0.4692E+02  0.1536E+02
     -2.826  0.8603E+02  0.1729E+02
     -2.803  0.1026E+03  0.1959E+02
     -2.781  0.7672E+02  0.2131E+02
     -2.758  0.4626E+02  0.2234E+02
     -2.736  0.6487E+02  0.2380E+02
     -2.714  0.1080E+03  0.2622E+02
     -2.691  0.1356E+03  0.2925E+02
     -2.669  0.1253E+03  0.3206E+02
     -2.646  0.7103E+02  0.3365E+02
     -2.624  0.3699E+02  0.3448E+02
     -2.602  0.5173E+02  0.3564E+02
     -2.579  0.7670E+02  0.3735E+02
     -2.557  0.7812E+02  0.3910E+02
     -2.534  0.5639E+02  0.4037E+02
     -2.512  0.5876E+02  0.4168E+02
     -2.490  0.8125E+02  0.4350E+02
     -2.467  0.1027E+03  0.4580E+02
     -2.445  0.1197E+03  0.4849E+02
     -2.422  0.1239E+03  0.5126E+02
     -2.400  0.1145E+03  0.5383E+02
     -2.377  0.1169E+03  0.5644E+02
     -2.355  0.1348E+03  0.5946E+02
     -2.333  0.1595E+03  0.6303E+02
     -2.310  0.1597E+03  0.6661E+02
     -2.288  0.1195E+03  0.6929E+02
     -2.265  0.7498E+02  0.7097E+02
     -2.243  0.4998E+02  0.7209E+02
     -2.221  0.5569E+02  0.7333E+02
     -2.198  0.7065E+02  0.7492E+02
     -2.176  0.6522E+02  0.7638E+02
     -2.153  0.8199E+02  0.7821E+02
     -2.131  0.1228E+03  0.8096E+02
     -2.109  0.1488E+03  0.8430E+02
     -2.086  0.1485E+03  0.8762E+02
     -2.064  0.1284E+03  0.9050E+02
     -2.041  0.1050E+03  0.9285E+02
     -2.019  0.1139E+03  0.9540E+02
     -1.997  0.1427E+03  0.9860E+02
     -1.974  0.1716E+03  0.1024E+03
     -1.952  0.1793E+03  0.1065E+03
     -1.929  0.1485E+03  0.1098E+03
     -1.907  0.8073E+02  0.1116E+03
     -1.885  0.4473E+02  0.1126E+03
     -1.862  0.8259E+02  0.1144E+03
     -1.840  0.1323E+03  0.1174E+03
     -1.817  0.1425E+03  0.1206E+03
     -1.795  0.1424E+03  0.1238E+03
     -1.773  0.1509E+03  0.1272E+03
     -1.750  0.1550E+03  0.1306E+03
     -1.728  0.1670E+03  0.1344E+03
     -1.705  0.1717E+03  0.1382E+03
     -1.683  0.1447E+03  0.1415E+03
     -1.661  0.1225E+03  0.1442E+03
     -1.638  0.1310E+03  0.1471E+03
     -1.616  0.1503E+03  0.1505E+03
     -1.593  0.1657E+03  0.1542E+03
     -1.571  0.1549E+03  0.1577E+03
     -1.549  0.1203E+03  0.1604E+03
     -1.526  0.1025E+03  0.1627E+03
     -1.504  0.1094E+03  0.1651E+03
     -1.481  0.1051E+03  0.1675E+03
     -1.459  0.9645E+02  0.1697E+03
     -1.437  0.1158E+03  0.1722E+03
     -1.414  0.1456E+03  0.1755E+03
     -1.392  0.1459E+03  0.1788E+03
     -1.369  0.1439E+03  0.1820E+03
     -1.347  0.1619E+03  0.1856E+03
     -1.325  0.1726E+03  0.1895E+03
     -1.302  0.1763E+03  0.1934E+03
     -1.280  0.1784E+03  0.1974E+03
     -1.257  0.1934E+03  0.2018E+03
     -1.235  0.2207E+03  0.2067E+03
     -1.213  0.2296E+03  0.2119E+03
     -1.190  0.2012E+03  0.2164E+03
     -1.168  0.1714E+03  0.2202E+03
     -1.145  0.1627E+03  0.2238E+03
     -1.123  0.1544E+03  0.2273E+03
     -1.101  0.1308E+03  0.2302E+03
     -1.078  0.1052E+03  0.2326E+03
     -1.056  0.1246E+03  0.2354E+03
     -1.033  0.1564E+03  0.2389E+03
     -1.011  0.1563E+03  0.2424E+03
     -0.989  0.1568E+03  0.2459E+03
     -0.966  0.1623E+03  0.2495E+03
     -0.944  0.1736E+03  0.2534E+03
     -0.921  0.1979E+03  0.2579E+03
     -0.899  0.1971E+03  0.2623E+03
     -0.877  0.1727E+03  0.2661E+03
     -0.854  0.1497E+03  0.2695E+03
     -0.832  0.1303E+03  0.2724E+03
     -0.809  0.1456E+03  0.2757E+03
     -0.787  0.1706E+03  0.2795E+03
     -0.765  0.1644E+03  0.2832E+03
     -0.742  0.1515E+03  0.2866E+03
     -0.720  0.1584E+03  0.2901E+03
     -0.697  0.1830E+03  0.2942E+03
     -0.675  0.2123E+03  0.2990E+03
     -0.653  0.2279E+03  0.3041E+03
     -0.630  0.2202E+03  0.3090E+03
     -0.608  0.2136E+03  0.3138E+03
     -0.585  0.2156E+03  0.3186E+03
     -0.563  0.2223E+03  0.3236E+03
     -0.541  0.2280E+03  0.3287E+03
     -0.518  0.2154E+03  0.3335E+03
     -0.496  0.1964E+03  0.3379E+03
     -0.473  0.1714E+03  0.3418E+03
     -0.451  0.1607E+03  0.3454E+03
     -0.429  0.1792E+03  0.3494E+03
     -0.406  0.1828E+03  0.3535E+03
     -0.384  0.1586E+03  0.3570E+03
     -0.361  0.1573E+03  0.3606E+03
     -0.339  0.1865E+03  0.3647E+03
     -0.317  0.2012E+03  0.3693E+03
     -0.294  0.1918E+03  0.3735E+03
     -0.272  0.1881E+03  0.3778E+03
     -0.249  0.2024E+03  0.3823E+03
     -0.227  0.2147E+03  0.3871E+03
     -0.205  0.2296E+03  0.3922E+03
     -0.182  0.2476E+03  0.3978E+03
     -0.160  0.2609E+03  0.4036E+03
     -0.137  0.2564E+03  0.4094E+03
     -0.115  0.2341E+03  0.4146E+03
     -0.093  0.2152E+03  0.4194E+03
     -0.070  0.2011E+03  0.4239E+03
     -0.048  0.2037E+03  0.4285E+03
     -0.025  0.2046E+03  0.4331E+03
     -0.003  0.2052E+03  0.4377E+03
      0.019  0.2143E+03  0.4425E+03
      0.042  0.2139E+03  0.4473E+03
      0.064  0.2033E+03  0.4518E+03
      0.087  0.1900E+03  0.4561E+03
      0.109  0.1852E+03  0.4602E+03
      0.131  0.1877E+03  0.4644E+03
      0.154  0.1979E+03  0.4689E+03
      0.176  0.2070E+03  0.4735E+03
      0.199  0.2190E+03  0.4784E+03
      0.221  0.2429E+03  0.4839E+03
      0.243  0.2494E+03  0.4894E+03
      0.266  0.2540E+03  0.4951E+03
      0.288  0.2641E+03  0.5011E+03
      0.311  0.2736E+03  0.5072E+03
      0.333  0.2867E+03  0.5136E+03
      0.355  0.2981E+03  0.5203E+03
      0.378  0.3011E+03  0.5270E+03
      0.400  0.2935E+03  0.5336E+03
      0.423  0.2830E+03  0.5399E+03
      0.445  0.2807E+03  0.5462E+03
      0.467  0.2724E+03  0.5523E+03
      0.490  0.2540E+03  0.5580E+03
      0.512  0.2406E+03  0.5634E+03
      0.535  0.2335E+03  0.5686E+03
      0.557  0.2326E+03  0.5738E+03
      0.579  0.2438E+03  0.5793E+03
      0.602  0.2492E+03  0.5849E+03
      0.624  0.2276E+03  0.5900E+03
      0.647  0.2080E+03  0.5946E+03
      0.669  0.2080E+03  0.5993E+03
      0.691  0.2027E+03  0.6038E+03
      0.714  0.1965E+03  0.6082E+03
      0.736  0.2063E+03  0.6129E+03
      0.759  0.2141E+03  0.6177E+03
      0.781  0.2131E+03  0.6224E+03
      0.803  0.2124E+03  0.6272E+03
      0.826  0.2093E+03  0.6319E+03
      0.848  0.2104E+03  0.6366E+03
      0.871  0.2148E+03  0.6414E+03
      0.893  0.2354E+03  0.6467E+03
      0.915  0.2601E+03  0.6525E+03
      0.938  0.2525E+03  0.6582E+03
      0.960  0.2368E+03  0.6635E+03
      0.983  0.2438E+03  0.6689E+03
      1.005  0.2586E+03  0.6747E+03
      1.027  0.2552E+03  0.6804E+03
      1.050  0.2396E+03  0.6858E+03
      1.072  0.2280E+03  0.6909E+03
      1.095  0.2200E+03  0.6958E+03
      1.117  0.2151E+03  0.7007E+03
      1.139  0.2085E+03  0.7053E+03
      1.162  0.2130E+03  0.7101E+03
      1.184  0.2180E+03  0.7150E+03
      1.207  0.2117E+03  0.7197E+03
      1.229  0.2091E+03  0.7244E+03
      1.251  0.2119E+03  0.7292E+03
      1.274  0.2125E+03  0.7339E+03
      1.296  0.2065E+03  0.7385E+03
      1.319  0.1967E+03  0.7429E+03
      1.341  0.1993E+03  0.7474E+03
      1.363  0.2155E+03  0.7522E+03
      1.386  0.2175E+03  0.7571E+03
      1.408  0.2098E+03  0.7618E+03
      1.431  0.2218E+03  0.7668E+03
      1.453  0.2295E+03  0.7719E+03
      1.475  0.2207E+03  0.7769E+03
      1.498  0.2174E+03  0.7817E+03
      1.520  0.2256E+03  0.7868E+03
      1.543  0.2285E+03  0.7919E+03
      1.565  0.2196E+03  0.7968E+03
      1.587  0.2117E+03  0.8016E+03
      1.610  0.2106E+03  0.8063E+03
      1.632  0.2148E+03  0.8111E+03
      1.655  0.2191E+03  0.8160E+03
      1.677  0.2133E+03  0.8208E+03
      1.699  0.2077E+03  0.8254E+03
      1.722  0.2067E+03  0.8301E+03
      1.744  0.2106E+03  0.8348E+03
      1.767  0.2162E+03  0.8396E+03
      1.789  0.2179E+03  0.8445E+03
      1.811  0.2089E+03  0.8492E+03
      1.834  0.1989E+03  0.8536E+03
      1.856  0.1898E+03  0.8579E+03
      1.879  0.1945E+03  0.8622E+03
      1.901  0.1998E+03  0.8667E+03
      1.923  0.1945E+03  0.8711E+03
      1.946  0.1908E+03  0.8754E+03
      1.968  0.1923E+03  0.8797E+03
      1.991  0.1893E+03  0.8839E+03
      2.013  0.1860E+03  0.8881E+03
      2.035  0.1835E+03  0.8922E+03
      2.058  0.1722E+03  0.8960E+03
      2.080  0.1740E+03  0.8999E+03
      2.103  0.1874E+03  0.9041E+03
      2.125  0.1752E+03  0.9081E+03
      2.147  0.1582E+03  0.9116E+03
      2.170  0.1572E+03  0.9151E+03
      2.192  0.1552E+03  0.9186E+03
      2.215  0.1553E+03  0.9221E+03
      2.237  0.1583E+03  0.9256E+03
      2.259  0.1548E+03  0.9291E+03
      2.282  0.1461E+03  0.9324E+03
      2.304  0.1474E+03  0.9357E+03
      2.327  0.1517E+03  0.9391E+03
      2.349  0.1450E+03  0.9423E+03
      2.371  0.1410E+03  0.9455E+03
      2.394  0.1440E+03  0.9487E+03
      2.416  0.1410E+03  0.9519E+03
      2.439  0.1338E+03  0.9549E+03
      2.461  0.1363E+03  0.9579E+03
      2.483  0.1420E+03  0.9611E+03
      2.506  0.1427E+03  0.9643E+03
      2.528  0.1449E+03  0.9675E+03
      2.551  0.1465E+03  0.9708E+03
      2.573  0.1487E+03  0.9741E+03
      2.595  0.1459E+03  0.9774E+03
      2.618  0.1361E+03  0.9805E+03
      2.640  0.1304E+03  0.9834E+03
      2.663  0.1309E+03  0.9863E+03
      2.685  0.1258E+03  0.9891E+03
      2.707  0.1153E+03  0.9917E+03
      2.730  0.1069E+03  0.9941E+03
      2.752  0.1055E+03  0.9965E+03
      2.775  0.1044E+03  0.9988E+03
      2.797  0.1011E+03  0.1001E+04
      2.819  0.9011E+02  0.1003E+04
      2.842  0.7761E+02  0.1005E+04
      2.864  0.7072E+02  0.1006E+04
      2.887  0.5318E+02  0.1008E+04
      2.909  0.3573E+02  0.1008E+04
      2.931  0.3570E+02  0.1009E+04
      2.954  0.2576E+02  0.1010E+04
      2.976  0.8518E+01  0.1010E+04
      2.999  0.1201E+01  0.1010E+04
      3.021  0.6831E-01  0.1010E+04
      3.043  0.1466E-02  0.1010E+04
      3.066  0.1127E-04  0.1010E+04
      3.088  0.3005E-07  0.1010E+04
      3.111  0.2722E-10  0.1010E+04
      3.133  0.9913E-14  0.1010E+04
      3.155  0.0000E+00  0.1010E+04
      3.178  0.0000E+00  0.1010E+04
      3.200  0.0000E+00  0.1010E+04
      3.223  0.0000E+00  0.1010E+04
      3.245  0.0000E+00  0.1010E+04
