Li                                      
           1
   -10.853500   18.798813    0.000000
   -18.606000  -10.742179    0.000000
     0.000000    0.000000   22.765000
   Li
   504
Direct configuration=     1
   0.00219919  0.99621925  0.01562447
   0.93895932  0.04016491  0.67116404
   0.88304122  0.08125995  0.35870219
   0.80161040  0.13888838  0.00996793
   0.69434646  0.17122096  0.68218115
   0.65047651  0.20298072  0.31121252
   0.55978838  0.25326639  0.99749178
   0.50040861  0.31013130  0.65627121
   0.44598919  0.34554110  0.33102657
   0.34901167  0.36480902  0.01013126
   0.28163327  0.43076094  0.69953703
   0.21582413  0.45307496  0.33559898
   0.07940163  0.04848436  0.67240095
   0.00651954  0.04445646  0.32357026
   0.92276547  0.13958214  0.99846690
   0.86043805  0.18964458  0.65514318
   0.79132222  0.20131095  0.34120408
   0.71823881  0.23555473  0.00001093
   0.63329272  0.29956690  0.67655258
   0.57064380  0.33147476  0.30392898
   0.49628268  0.36303528  0.00848922
   0.42056229  0.43259017  0.65491279
   0.37439019  0.45679543  0.32224898
   0.29307891  0.48998722  0.99899745
   0.14719026  0.09186321  0.32497693
   0.07014086  0.12206259  0.01383002
   0.00909092  0.18172878  0.66689943
   0.94673580  0.19808082  0.33359165
   0.87322211  0.25533816  0.00978952
   0.79696945  0.31402121  0.67042238
   0.70306456  0.33739140  0.32532327
   0.63359253  0.38015458  0.00167017
   0.56935421  0.43770586  0.66701952
   0.50316078  0.45818270  0.34036625
   0.44106994  0.49820210  0.01766605
   0.37731580  0.55236678  0.66360622
   0.21811543  0.12977911  0.01605002
   0.16052510  0.15410829  0.65543800
   0.08061304  0.19838182  0.34449490
   0.98653051  0.23106248  0.98437920
   0.93318462  0.30513462  0.65360516
   0.85470837  0.31312775  0.32266042
   0.77643459  0.36838315  0.99808149
   0.69945885  0.42754358  0.66412047
   0.64523072  0.47658905  0.33399885
   0.56612234  0.50195854  0.99968319
   0.50756259  0.56150036  0.65618095
   0.43229599  0.58966901  0.34359497
   0.30507919  0.16538022  0.66046178
   0.23692171  0.22876132  0.32881310
   0.14474518  0.22356237  0.01622288
   0.07517562  0.31355383  0.66389088
   0.01910511  0.32752340  0.33685559
   0.90459148  0.40197101  0.98843614
   0.86205463  0.41068382  0.65614909
   0.78853352  0.43113058  0.34804421
   0.71677670  0.48564580  0.00517768
   0.65397744  0.54061320  0.65202556
   0.58529503  0.59839490  0.34872387
   0.49857653  0.63877441  0.99831663
   0.35060158  0.22233570  0.32522758
   0.27520596  0.24523418  0.00349180
   0.22599927  0.28384201  0.65682631
   0.13082427  0.34241623  0.32355505
   0.05440601  0.36861663  0.98262252
   0.00878674  0.41447594  0.67720064
   0.92197885  0.45712660  0.31781504
   0.84799223  0.50566203  0.99285772
   0.78128032  0.52281726  0.66795602
   0.72463448  0.58136724  0.32935599
   0.62866146  0.63180623  0.00160256
   0.58480011  0.66452143  0.67049796
   0.42889618  0.24682442  0.97788042
   0.35312626  0.29932625  0.67950026
   0.28042637  0.33285025  0.33002715
   0.18645536  0.35648934  0.99089630
   0.14530679  0.41747704  0.68210688
   0.05514457  0.44846707  0.30725215
   0.98657612  0.52319597  0.99319920
   0.94027910  0.52138936  0.67010895
   0.83283193  0.56509932  0.33449163
   0.77400605  0.62189073  0.98929373
   0.72455238  0.66541471  0.67657997
   0.63923900  0.70094855  0.31895977
   0.11835674  0.49598472  0.99355303
   0.08310926  0.56141890  0.66880501
   0.97710741  0.56194252  0.32232591
   0.89969585  0.64132735  0.01118800
   0.88091127  0.66193043  0.67518261
   0.79699664  0.70536018  0.34666950
   0.70553258  0.77017548  0.98450265
   0.21648621  0.54840411  0.64941368
   0.13177293  0.57987600  0.32159234
   0.05316275  0.65152169  0.99138122
   0.03041193  0.67690690  0.67153916
   0.92040203  0.71472439  0.33299930
   0.85613817  0.76271839  0.99523061
   0.79519265  0.78497818  0.67006226
   0.27835494  0.57476712  0.33198994
   0.21216487  0.61906453  0.99116703
   0.15703193  0.70167524  0.64965776
   0.05714078  0.71316104  0.35176824
   0.98740987  0.75882162  0.00228654
   0.93817003  0.81546424  0.67738392
   0.84683685  0.83273863  0.33024704
   0.36206212  0.63084025  0.97969382
   0.31328540  0.68823122  0.68140180
   0.21213443  0.72796092  0.32938864
   0.14975624  0.73363059  0.00139441
   0.07077640  0.81720626  0.68169711
   0.00428812  0.81606499  0.33480603
   0.91161032  0.86623609  0.00909724
   0.44077898  0.66495021  0.65415251
   0.33895420  0.68921742  0.34666042
   0.27294294  0.74230134  0.99644616
   0.22572854  0.81393394  0.67632874
   0.15622979  0.83329704  0.32660405
   0.05028628  0.86210773  0.01195815
   0.01925097  0.93642185  0.67921509
   0.92133917  0.92629621  0.32004216
   0.85561619  0.02036153  0.99965291
   0.79360595  0.04518426  0.64860234
   0.72532944  0.07810152  0.33717560
   0.65118610  0.10428087  0.99114220
   0.55314335  0.18890881  0.67629153
   0.49776262  0.22005220  0.33573678
   0.07771086  0.94864461  0.32118544
   0.14622327  0.98902894  0.00899554
   0.22104040  0.06484889  0.66297560
   0.29633360  0.09466006  0.32559853
   0.37211178  0.10168331  0.98710927
   0.44760850  0.18327176  0.66295717
   0.86579926  0.92422819  0.65353036
   0.78510844  0.96807787  0.33707177
   0.72176201  0.01097988  0.00231924
   0.65041728  0.04973764  0.68009656
   0.57822578  0.05755169  0.34491636
   0.50471408  0.11368283  0.98368282
   0.13446143  0.94661299  0.67620084
   0.20293254  0.98871340  0.31752839
   0.26137389  0.99171077  0.98931155
   0.37467537  0.06409400  0.66506263
   0.43389606  0.08988134  0.33487109
   0.76889407  0.88616011  0.98541427
   0.73602043  0.92697725  0.66492138
   0.64028157  0.94969898  0.32809506
   0.55083120  0.00863240  0.99998029
   0.51451535  0.04579518  0.67059543
   0.22559666  0.85328395  0.99427620
   0.28721064  0.93034209  0.66491976
   0.36178006  0.97209841  0.34259251
   0.40791107  0.98641955  0.99324389
   0.71612673  0.82755136  0.33801959
   0.62601192  0.87601273  0.00733574
   0.58015120  0.93504557  0.65213782
   0.49608939  0.93788994  0.34660663
   0.29501411  0.83127779  0.34490519
   0.34988130  0.85673661  0.97267038
   0.43924949  0.93152464  0.68344864
   0.63694516  0.80430519  0.68825172
   0.57386053  0.81895551  0.33945788
   0.50360195  0.84985641  0.00422324
   0.35171745  0.81355248  0.66953764
   0.42231092  0.81888096  0.34903919
   0.57746298  0.74987174  0.98717395
   0.50972291  0.77847414  0.65451616
   0.42754323  0.75050660  0.00608610
   0.50301108  0.70134806  0.33810953
   0.01703056  0.01418280  0.78906899
   0.94753905  0.03715498  0.44658160
   0.85592022  0.09610919  0.09951259
   0.77926286  0.11620128  0.77587780
   0.69409305  0.18322913  0.44512141
   0.63904183  0.19938702  0.09957960
   0.56769642  0.26558277  0.78976075
   0.50465605  0.30950576  0.44934996
   0.40336622  0.31556731  0.09341144
   0.35299090  0.38489709  0.78905473
   0.28580046  0.40005234  0.45627758
   0.20669272  0.47067869  0.09357686
   0.08079119  0.03208057  0.43718768
   0.98905094  0.06871632  0.11736752
   0.93138879  0.11318605  0.77656990
   0.83091013  0.17758817  0.46501374
   0.80556490  0.20010968  0.11987932
   0.69513884  0.25280591  0.78393953
   0.63256369  0.29631326  0.42031330
   0.56536355  0.31472650  0.10716951
   0.50126532  0.37887437  0.76948212
   0.39358381  0.41407297  0.45880755
   0.36014765  0.44419856  0.11827015
   0.28384154  0.51392678  0.78148419
   0.11586583  0.05850244  0.10333518
   0.07211479  0.11836491  0.76597769
   0.98587653  0.17740168  0.44753376
   0.93084683  0.19478447  0.10771001
   0.85065250  0.25519643  0.76371259
   0.77414938  0.30572368  0.44332537
   0.71681812  0.34466187  0.11873598
   0.62721394  0.36552773  0.77435734
   0.55907067  0.41328252  0.43199114
   0.52246828  0.43662137  0.12640612
   0.43689156  0.49534539  0.77090891
   0.36119560  0.54185200  0.42597157
   0.22140985  0.13187229  0.78955080
   0.13963742  0.17411417  0.43791612
   0.05280569  0.21532198  0.13263628
   0.98180846  0.23422053  0.75562526
   0.92122947  0.28953357  0.45419888
   0.86540948  0.31503997  0.11544444
   0.77690303  0.39363657  0.77819573
   0.70095611  0.40961065  0.45228564
   0.64972942  0.44055091  0.13068006
   0.57483197  0.51836488  0.78485072
   0.50303142  0.53902754  0.44314827
   0.43368131  0.58549284  0.12594090
   0.28909556  0.15629282  0.43600829
   0.20957240  0.19253612  0.11382536
   0.11909147  0.24421599  0.76682527
   0.07230197  0.29717757  0.42969158
   0.98370162  0.32763912  0.10357419
   0.92412615  0.36542405  0.79747173
   0.86815664  0.38733510  0.44301733
   0.79453477  0.41674164  0.09611048
   0.70589966  0.49181528  0.78457021
   0.65011964  0.54964516  0.45233959
   0.55743930  0.58172811  0.09414721
   0.50736755  0.63786967  0.76475065
   0.35535111  0.19818628  0.10526195
   0.26972618  0.26664866  0.77932923
   0.20917860  0.30562474  0.43869214
   0.13707354  0.32765682  0.10200493
   0.07499632  0.36846260  0.78281907
   0.99312757  0.41858935  0.42109310
   0.92836794  0.45919059  0.11521863
   0.86731507  0.51074570  0.79029864
   0.78900819  0.52398731  0.45882274
   0.70087568  0.56352429  0.11756160
   0.61647572  0.63073100  0.76842623
   0.59217770  0.66551403  0.43065774
   0.42390387  0.26374357  0.76963569
   0.35717792  0.28593402  0.44374348
   0.28032630  0.31986820  0.08985506
   0.19828374  0.34465139  0.78497871
   0.12276299  0.42029966  0.41848936
   0.06766886  0.45181991  0.09888901
   0.00559006  0.50049845  0.78407579
   0.91611410  0.53914092  0.42412397
   0.85619761  0.57832258  0.12086004
   0.76908976  0.62011852  0.77577814
   0.70748498  0.64867081  0.43994178
   0.64343397  0.70301325  0.10205013
   0.13930588  0.51718606  0.77383402
   0.07193641  0.55117289  0.42836222
   0.98925087  0.58782431  0.11768182
   0.94198771  0.62236972  0.77901521
   0.85300136  0.65229491  0.46853314
   0.76304022  0.71106989  0.09844524
   0.71591233  0.73920577  0.78670357
   0.22394648  0.52537726  0.44533475
   0.14036688  0.58104626  0.10233923
   0.06560406  0.62834548  0.76143904
   0.98340595  0.66387885  0.43824693
   0.91317434  0.70885178  0.11586376
   0.85475723  0.75676879  0.78675808
   0.79143996  0.79720382  0.46602585
   0.29432774  0.56938710  0.09617337
   0.23034333  0.64373485  0.76621288
   0.16639529  0.67085412  0.43976792
   0.06015965  0.72004663  0.10938958
   0.99176206  0.76483925  0.78368707
   0.94117766  0.80620978  0.43336575
   0.86525954  0.82340906  0.11606827
   0.36304895  0.63152383  0.77727323
   0.29522019  0.65991514  0.45861099
   0.19270720  0.70544344  0.11516959
   0.14209515  0.74947061  0.78610078
   0.08070839  0.79239710  0.44442908
   0.99449379  0.82099519  0.11115046
   0.93189210  0.89610067  0.77334303
   0.44443838  0.65758807  0.45737928
   0.36737131  0.68828683  0.11553850
   0.30841810  0.78329430  0.78791790
   0.21315422  0.81152755  0.46685122
   0.14717368  0.84678546  0.10746725
   0.07465540  0.89762457  0.80930323
   0.02467423  0.90970382  0.44137554
   0.93311970  0.96009638  0.11012268
   0.86504980  0.00587319  0.77474012
   0.80724757  0.05297970  0.45375582
   0.73343681  0.08518453  0.11402005
   0.62371834  0.14620779  0.77693317
   0.56859536  0.17298137  0.43621292
   0.48974900  0.18389581  0.09973072
   0.06011083  0.95118659  0.13062244
   0.15025315  0.99727075  0.79437438
   0.21787982  0.05198753  0.43923600
   0.30610870  0.08178922  0.11199030
   0.36507457  0.12929688  0.78072961
   0.42896737  0.17250671  0.45497579
   0.86130957  0.91120128  0.44944792
   0.79495539  0.97429416  0.10806450
   0.71517018  0.00774840  0.77358970
   0.65526323  0.03589638  0.44221493
   0.56632149  0.07457326  0.11150381
   0.49887824  0.14589560  0.77806532
   0.16040283  0.92045943  0.43679109
   0.22792371  0.95749506  0.08075829
   0.29248947  0.01075474  0.76656466
   0.36326530  0.05318972  0.45617179
   0.42462946  0.07584893  0.13093690
   0.77534685  0.86766843  0.78185974
   0.72659865  0.90827422  0.44047113
   0.64169716  0.96108176  0.10017282
   0.54926609  0.99868829  0.76738941
   0.51171365  0.03972935  0.44607427
   0.21025880  0.87454740  0.80706107
   0.28609819  0.93979314  0.42748593
   0.34300225  0.93981211  0.10176239
   0.42502009  0.01117677  0.78525484
   0.71230660  0.83273282  0.09845795
   0.64564561  0.88970508  0.75905112
   0.57355847  0.88758371  0.45504258
   0.47029921  0.94750504  0.12026340
   0.30555042  0.81032361  0.10890898
   0.37154871  0.90086328  0.78217200
   0.43262751  0.92299560  0.45296560
   0.66466534  0.78866387  0.43483482
   0.56377463  0.83625903  0.12811134
   0.49627199  0.86172327  0.76767816
   0.34283943  0.79040602  0.46607797
   0.42314264  0.83122043  0.11779070
   0.57046419  0.76392418  0.76823209
   0.47647826  0.77969938  0.44021409
   0.42245785  0.74180592  0.75878045
   0.50908064  0.69156663  0.11356384
   0.99980238  0.97948833  0.20831157
   0.93403645  0.02937894  0.89558734
   0.87830424  0.10817375  0.55759986
   0.79687006  0.08963587  0.24747678
   0.73440369  0.14899234  0.89245741
   0.62722594  0.22639655  0.55077722
   0.56823394  0.23747365  0.21927770
   0.49480122  0.29014472  0.88113520
   0.43445279  0.33270669  0.55285369
   0.36431370  0.36065645  0.21996045
   0.27695183  0.43428553  0.88281094
   0.21715034  0.45551198  0.55410367
   0.06091667  0.04386733  0.89119872
   0.00812636  0.07173456  0.57320723
   0.92732266  0.12171856  0.22515802
   0.86471049  0.16869571  0.88755007
   0.78198929  0.21591331  0.56609389
   0.70940862  0.24364844  0.22464386
   0.64376643  0.28289522  0.91222851
   0.58320267  0.34215557  0.55544041
   0.49033924  0.37610241  0.20842078
   0.40892008  0.42382314  0.89833786
   0.34760101  0.48934917  0.57013019
   0.29801293  0.47832315  0.21500775
   0.14116711  0.10500633  0.55056813
   0.07003701  0.09847283  0.20229003
   0.99681569  0.17693356  0.86670103
   0.94512804  0.23618711  0.57358481
   0.83833992  0.23613569  0.23065413
   0.76889951  0.27254727  0.88141567
   0.70608257  0.31375401  0.56019968
   0.64109212  0.38278307  0.22174591
   0.56720436  0.40980145  0.88446903
   0.48346501  0.45504758  0.55520448
   0.43055483  0.48147197  0.22284411
   0.36165436  0.54296372  0.89887763
   0.20897626  0.11404114  0.23052344
   0.14127713  0.15257641  0.90105304
   0.06873325  0.22867659  0.55285646
   0.99081194  0.23637135  0.24049656
   0.92633951  0.29709122  0.89901789
   0.87042904  0.33141481  0.55665882
   0.79114809  0.36913020  0.21980941
   0.71431936  0.38705741  0.87410446
   0.64206616  0.48089385  0.52663420
   0.57223094  0.50948187  0.23098579
   0.50619586  0.55802489  0.89334329
   0.42734162  0.59841299  0.55112046
   0.29093430  0.16886807  0.90542528
   0.21220993  0.18704775  0.53655325
   0.13974440  0.24137981  0.23467678
   0.07341347  0.28683201  0.88201676
   0.00667902  0.34011953  0.54520301
   0.94358437  0.39137008  0.22477893
   0.83025362  0.41590253  0.89621790
   0.78247293  0.44598187  0.54586399
   0.72983375  0.49196609  0.23039482
   0.63819445  0.52812355  0.90069982
   0.57790192  0.60337774  0.54768466
   0.50496126  0.62818811  0.22225808
   0.38469098  0.21640120  0.55202418
   0.28679753  0.25219051  0.21355661
   0.21463813  0.29008803  0.88549306
   0.16955804  0.34238055  0.54373690
   0.07357925  0.36117925  0.18958470
   0.99251168  0.40733706  0.87902470
   0.94921195  0.46091542  0.55310926
   0.85666291  0.48947874  0.23670105
   0.76209643  0.53368834  0.88981378
   0.72980082  0.60525185  0.55777958
   0.66692236  0.61433971  0.21152692
   0.56361564  0.67050506  0.88571655
   0.44830911  0.24549854  0.21327459
   0.34683324  0.30179008  0.89295125
   0.29120436  0.33327164  0.56395918
   0.21435822  0.37939934  0.19952226
   0.14390197  0.41831979  0.89018405
   0.09974582  0.46212310  0.56892952
   0.00840120  0.50069535  0.21912232
   0.91682711  0.54316415  0.91175047
   0.86422402  0.54759229  0.56335138
   0.77207815  0.62256478  0.22932699
   0.69782634  0.66308898  0.89595121
   0.63465571  0.73329242  0.56940805
   0.14580847  0.51097946  0.21315192
   0.06709596  0.53221991  0.88654477
   0.00375431  0.57575736  0.55532456
   0.92230912  0.60960023  0.24686351
   0.83256459  0.63932672  0.88378576
   0.79112619  0.71015009  0.55769716
   0.73514138  0.75311474  0.23735176
   0.20846931  0.54732906  0.88312977
   0.14116971  0.59140091  0.54711430
   0.07480536  0.64250829  0.22794147
   0.99675223  0.67302145  0.88582322
   0.93440219  0.71100139  0.54640232
   0.85052887  0.73483707  0.21831491
   0.77110037  0.78251335  0.86422828
   0.27674388  0.59080101  0.56856721
   0.22536883  0.61019648  0.21423664
   0.14791827  0.66343706  0.88253586
   0.08920428  0.72250625  0.53996849
   0.99942369  0.73005713  0.22733866
   0.91225677  0.77295684  0.88949691
   0.87819974  0.83698707  0.56596511
   0.36170432  0.60425121  0.23112953
   0.27956548  0.67178407  0.87832842
   0.22769406  0.72507272  0.55363921
   0.14726047  0.74882865  0.22299313
   0.04724508  0.77268094  0.90002948
   0.99976924  0.82595327  0.56354236
   0.93391293  0.86926357  0.21725982
   0.42852121  0.68549759  0.89674274
   0.34790022  0.72451608  0.55600818
   0.28869681  0.74176099  0.22785927
   0.20136604  0.78544325  0.88672818
   0.14537112  0.85801451  0.55703081
   0.05422357  0.85354700  0.22667886
   0.95968437  0.91942058  0.90234426
   0.94298752  0.96310845  0.56177021
   0.85289648  0.99189867  0.22138256
   0.78239058  0.04068668  0.88535455
   0.72677360  0.09928761  0.54050569
   0.65518049  0.10686062  0.21386372
   0.58989501  0.16928454  0.88139619
   0.50607946  0.21979693  0.54992212
   0.06350009  0.95740949  0.55406441
   0.14299901  0.97167173  0.19798603
   0.21142215  0.03159719  0.89401431
   0.28428538  0.09228897  0.55089062
   0.35817890  0.14382626  0.23073463
   0.42201718  0.15646079  0.88476087
   0.84011179  0.90419031  0.88342324
   0.78984004  0.96473003  0.55416348
   0.69803765  0.97723266  0.22418943
   0.62427693  0.05842683  0.86713184
   0.58736623  0.09242478  0.57281251
   0.50158890  0.10543729  0.23858382
   0.13092662  0.91314663  0.91079261
   0.22074585  0.98097706  0.55337403
   0.28878858  0.00742898  0.22557835
   0.34166793  0.04051389  0.88985232
   0.44515344  0.08782544  0.57173930
   0.79009107  0.88501463  0.22841867
   0.70543925  0.92196286  0.89208270
   0.66142318  0.96800158  0.54529493
   0.56270216  0.97768366  0.23541164
   0.48761162  0.04956269  0.88689449
   0.22139167  0.87034688  0.22512393
   0.30393805  0.90648765  0.86609257
   0.37308020  0.96818081  0.57456286
   0.41426258  0.98080804  0.23919627
   0.72276720  0.84554270  0.56317043
   0.64584269  0.85897408  0.22377267
   0.55847698  0.92390294  0.88283557
   0.51667944  0.96857863  0.56264087
   0.27065782  0.84917233  0.56804112
   0.35691339  0.86430993  0.24603228
   0.43973698  0.91357270  0.88513219
   0.63408515  0.80595751  0.87153132
   0.59965203  0.84906979  0.54993793
   0.49825809  0.84294741  0.23591202
   0.36482630  0.78994639  0.89578187
   0.44013886  0.86279663  0.57855460
   0.57170210  0.74119402  0.23155134
   0.49659514  0.79785959  0.87333280
   0.41812782  0.73183006  0.24457253
   0.49462609  0.71145029  0.54670407
