 432 432   0   0
  0.1915683E+02  0.2022720E-08  0.2022720E-08  0.2022720E-08  0.5000000E-15
  1.000000000000000E-004
  CAR 
 Li                                      
      3.96793815     -3.37914191  301      0.56990842      1.00000000
     -3.379  0.0000E+00  0.0000E+00
     -3.355  0.0000E+00  0.0000E+00
     -3.330  0.0000E+00  0.0000E+00
     -3.306  0.0000E+00  0.0000E+00
     -3.281  0.0000E+00  0.0000E+00
     -3.257  0.0000E+00  0.0000E+00
     -3.232  0.0000E+00  0.0000E+00
     -3.208  0.7457E-12  0.1826E-13
     -3.183  0.3116E-08  0.7633E-10
     -3.159  0.3526E-05  0.8642E-07
     -3.134  0.1093E-02  0.2684E-04
     -3.110  0.9416E-01  0.2333E-02
     -3.085  0.2305E+01  0.5879E-01
     -3.061  0.1647E+02  0.4622E+00
     -3.036  0.3523E+02  0.1325E+01
     -3.012  0.2285E+02  0.1884E+01
     -2.987  0.4515E+01  0.1995E+01
     -2.963  0.2298E+01  0.2051E+01
     -2.938  0.2286E+02  0.2611E+01
     -2.914  0.8194E+02  0.4618E+01
     -2.889  0.9629E+02  0.6976E+01
     -2.865  0.3707E+02  0.7884E+01
     -2.840  0.4953E+01  0.8005E+01
     -2.816  0.8048E+01  0.8202E+01
     -2.791  0.5012E+02  0.9430E+01
     -2.767  0.1026E+03  0.1194E+02
     -2.742  0.6834E+02  0.1362E+02
     -2.718  0.1481E+02  0.1398E+02
     -2.693  0.4133E+01  0.1408E+02
     -2.669  0.3131E+02  0.1485E+02
     -2.644  0.1069E+03  0.1746E+02
     -2.620  0.1269E+03  0.2057E+02
     -2.595  0.5130E+02  0.2183E+02
     -2.571  0.8055E+01  0.2203E+02
     -2.546  0.1908E+02  0.2249E+02
     -2.522  0.9713E+02  0.2487E+02
     -2.497  0.1885E+03  0.2949E+02
     -2.473  0.1410E+03  0.3294E+02
     -2.449  0.3944E+02  0.3391E+02
     -2.424  0.6045E+01  0.3405E+02
     -2.400  0.2285E+02  0.3461E+02
     -2.375  0.7777E+02  0.3652E+02
     -2.351  0.9407E+02  0.3882E+02
     -2.326  0.4135E+02  0.3983E+02
     -2.302  0.8042E+01  0.4003E+02
     -2.277  0.2125E+02  0.4055E+02
     -2.253  0.9747E+02  0.4294E+02
     -2.228  0.1792E+03  0.4733E+02
     -2.204  0.1402E+03  0.5076E+02
     -2.179  0.4569E+02  0.5188E+02
     -2.155  0.1707E+02  0.5230E+02
     -2.130  0.7759E+02  0.5420E+02
     -2.106  0.2046E+03  0.5921E+02
     -2.081  0.2497E+03  0.6532E+02
     -2.057  0.1483E+03  0.6896E+02
     -2.032  0.3894E+02  0.6991E+02
     -2.008  0.9515E+01  0.7014E+02
     -1.983  0.4107E+02  0.7115E+02
     -1.959  0.9726E+02  0.7353E+02
     -1.934  0.7802E+02  0.7544E+02
     -1.910  0.2151E+02  0.7597E+02
     -1.885  0.1238E+02  0.7627E+02
     -1.861  0.6848E+02  0.7795E+02
     -1.836  0.1758E+03  0.8225E+02
     -1.812  0.1980E+03  0.8710E+02
     -1.787  0.9776E+02  0.8950E+02
     -1.763  0.2142E+02  0.9002E+02
     -1.738  0.2883E+02  0.9073E+02
     -1.714  0.1260E+03  0.9381E+02
     -1.689  0.2446E+03  0.9980E+02
     -1.665  0.2225E+03  0.1053E+03
     -1.640  0.9448E+02  0.1076E+03
     -1.616  0.1924E+02  0.1080E+03
     -1.591  0.3009E+02  0.1088E+03
     -1.567  0.1163E+03  0.1116E+03
     -1.542  0.1836E+03  0.1161E+03
     -1.518  0.1217E+03  0.1191E+03
     -1.493  0.3834E+02  0.1200E+03
     -1.469  0.4711E+02  0.1212E+03
     -1.444  0.1502E+03  0.1249E+03
     -1.420  0.2475E+03  0.1309E+03
     -1.395  0.2033E+03  0.1359E+03
     -1.371  0.7486E+02  0.1377E+03
     -1.346  0.2212E+02  0.1383E+03
     -1.322  0.8068E+02  0.1403E+03
     -1.297  0.2191E+03  0.1456E+03
     -1.273  0.2592E+03  0.1520E+03
     -1.248  0.1341E+03  0.1553E+03
     -1.224  0.2938E+02  0.1560E+03
     -1.200  0.2038E+02  0.1565E+03
     -1.175  0.8949E+02  0.1587E+03
     -1.151  0.1752E+03  0.1630E+03
     -1.126  0.1470E+03  0.1666E+03
     -1.102  0.5167E+02  0.1678E+03
     -1.077  0.1096E+02  0.1681E+03
     -1.053  0.3657E+02  0.1690E+03
     -1.028  0.1149E+03  0.1718E+03
     -1.004  0.1632E+03  0.1758E+03
     -0.979  0.1254E+03  0.1789E+03
     -0.955  0.6732E+02  0.1805E+03
     -0.930  0.1225E+03  0.1835E+03
     -0.906  0.2450E+03  0.1895E+03
     -0.881  0.3147E+03  0.1972E+03
     -0.857  0.2962E+03  0.2045E+03
     -0.832  0.1731E+03  0.2087E+03
     -0.808  0.7208E+02  0.2105E+03
     -0.783  0.1225E+03  0.2135E+03
     -0.759  0.2254E+03  0.2190E+03
     -0.734  0.2019E+03  0.2240E+03
     -0.710  0.1148E+03  0.2268E+03
     -0.685  0.4505E+02  0.2279E+03
     -0.661  0.3293E+02  0.2287E+03
     -0.636  0.1147E+03  0.2315E+03
     -0.612  0.2114E+03  0.2367E+03
     -0.587  0.1627E+03  0.2406E+03
     -0.563  0.5433E+02  0.2420E+03
     -0.538  0.5014E+02  0.2432E+03
     -0.514  0.1662E+03  0.2473E+03
     -0.489  0.2844E+03  0.2542E+03
     -0.465  0.2747E+03  0.2610E+03
     -0.440  0.1716E+03  0.2652E+03
     -0.416  0.1056E+03  0.2678E+03
     -0.391  0.9987E+02  0.2702E+03
     -0.367  0.5868E+02  0.2716E+03
     -0.342  0.1521E+02  0.2720E+03
     -0.318  0.2172E+02  0.2725E+03
     -0.293  0.1042E+03  0.2751E+03
     -0.269  0.2271E+03  0.2807E+03
     -0.244  0.2642E+03  0.2871E+03
     -0.220  0.2136E+03  0.2924E+03
     -0.195  0.1413E+03  0.2958E+03
     -0.171  0.1300E+03  0.2990E+03
     -0.146  0.1784E+03  0.3034E+03
     -0.122  0.2065E+03  0.3084E+03
     -0.097  0.2178E+03  0.3138E+03
     -0.073  0.2207E+03  0.3192E+03
     -0.048  0.2325E+03  0.3249E+03
     -0.024  0.2011E+03  0.3298E+03
      0.001  0.1188E+03  0.3327E+03
      0.025  0.1102E+03  0.3354E+03
      0.049  0.1130E+03  0.3382E+03
      0.074  0.1179E+03  0.3410E+03
      0.098  0.1207E+03  0.3440E+03
      0.123  0.1542E+03  0.3478E+03
      0.147  0.2486E+03  0.3539E+03
      0.172  0.3104E+03  0.3615E+03
      0.196  0.3291E+03  0.3695E+03
      0.221  0.2662E+03  0.3761E+03
      0.245  0.1343E+03  0.3793E+03
      0.270  0.7145E+02  0.3811E+03
      0.294  0.1458E+03  0.3847E+03
      0.319  0.2456E+03  0.3907E+03
      0.343  0.2630E+03  0.3971E+03
      0.368  0.1915E+03  0.4018E+03
      0.392  0.8879E+02  0.4040E+03
      0.417  0.7204E+02  0.4057E+03
      0.441  0.1171E+03  0.4086E+03
      0.466  0.1503E+03  0.4123E+03
      0.490  0.1945E+03  0.4171E+03
      0.515  0.2048E+03  0.4221E+03
      0.539  0.1799E+03  0.4265E+03
      0.564  0.1782E+03  0.4308E+03
      0.588  0.2003E+03  0.4357E+03
      0.613  0.2302E+03  0.4414E+03
      0.637  0.2637E+03  0.4478E+03
      0.662  0.2648E+03  0.4543E+03
      0.686  0.2106E+03  0.4595E+03
      0.711  0.1497E+03  0.4631E+03
      0.735  0.1185E+03  0.4661E+03
      0.760  0.1383E+03  0.4694E+03
      0.784  0.1932E+03  0.4742E+03
      0.809  0.2268E+03  0.4797E+03
      0.833  0.2182E+03  0.4851E+03
      0.858  0.2197E+03  0.4904E+03
      0.882  0.2462E+03  0.4965E+03
      0.907  0.2768E+03  0.5033E+03
      0.931  0.2939E+03  0.5105E+03
      0.956  0.2960E+03  0.5177E+03
      0.980  0.2750E+03  0.5244E+03
      1.005  0.2204E+03  0.5298E+03
      1.029  0.1934E+03  0.5346E+03
      1.054  0.2181E+03  0.5399E+03
      1.078  0.2402E+03  0.5458E+03
      1.103  0.2517E+03  0.5520E+03
      1.127  0.2490E+03  0.5581E+03
      1.152  0.2427E+03  0.5640E+03
      1.176  0.2220E+03  0.5694E+03
      1.201  0.1919E+03  0.5741E+03
      1.225  0.1998E+03  0.5790E+03
      1.250  0.2490E+03  0.5851E+03
      1.274  0.2717E+03  0.5918E+03
      1.298  0.2717E+03  0.5984E+03
      1.323  0.2638E+03  0.6049E+03
      1.347  0.2421E+03  0.6108E+03
      1.372  0.2166E+03  0.6161E+03
      1.396  0.1767E+03  0.6205E+03
      1.421  0.1489E+03  0.6241E+03
      1.445  0.1682E+03  0.6282E+03
      1.470  0.1944E+03  0.6330E+03
      1.494  0.2012E+03  0.6379E+03
      1.519  0.2029E+03  0.6429E+03
      1.543  0.1826E+03  0.6473E+03
      1.568  0.1249E+03  0.6504E+03
      1.592  0.5812E+02  0.6518E+03
      1.617  0.4733E+02  0.6530E+03
      1.641  0.1153E+03  0.6558E+03
      1.666  0.1662E+03  0.6599E+03
      1.690  0.1335E+03  0.6632E+03
      1.715  0.9977E+02  0.6656E+03
      1.739  0.1341E+03  0.6689E+03
      1.764  0.1718E+03  0.6731E+03
      1.788  0.1879E+03  0.6777E+03
      1.813  0.2005E+03  0.6826E+03
      1.837  0.2008E+03  0.6875E+03
      1.862  0.1599E+03  0.6914E+03
      1.886  0.8891E+02  0.6936E+03
      1.911  0.6533E+02  0.6952E+03
      1.935  0.1226E+03  0.6982E+03
      1.960  0.1721E+03  0.7024E+03
      1.984  0.1761E+03  0.7067E+03
      2.009  0.1741E+03  0.7110E+03
      2.033  0.1895E+03  0.7156E+03
      2.058  0.1982E+03  0.7205E+03
      2.082  0.1749E+03  0.7248E+03
      2.107  0.1788E+03  0.7292E+03
      2.131  0.2117E+03  0.7343E+03
      2.156  0.2276E+03  0.7399E+03
      2.180  0.2056E+03  0.7450E+03
      2.205  0.1657E+03  0.7490E+03
      2.229  0.1378E+03  0.7524E+03
      2.254  0.1378E+03  0.7558E+03
      2.278  0.1525E+03  0.7595E+03
      2.303  0.1655E+03  0.7636E+03
      2.327  0.1699E+03  0.7677E+03
      2.352  0.1655E+03  0.7718E+03
      2.376  0.1511E+03  0.7755E+03
      2.401  0.1316E+03  0.7787E+03
      2.425  0.1152E+03  0.7815E+03
      2.450  0.7914E+02  0.7835E+03
      2.474  0.5307E+02  0.7848E+03
      2.499  0.7340E+02  0.7865E+03
      2.523  0.1051E+03  0.7891E+03
      2.548  0.1196E+03  0.7921E+03
      2.572  0.1012E+03  0.7945E+03
      2.596  0.4914E+02  0.7957E+03
      2.621  0.1015E+02  0.7960E+03
      2.645  0.2015E+01  0.7960E+03
      2.670  0.1514E+02  0.7964E+03
      2.694  0.6403E+02  0.7980E+03
      2.719  0.9900E+02  0.8004E+03
      2.743  0.5463E+02  0.8017E+03
      2.768  0.1027E+02  0.8020E+03
      2.792  0.6228E+00  0.8020E+03
      2.817  0.1180E-01  0.8020E+03
      2.841  0.2313E-01  0.8020E+03
      2.866  0.8184E+00  0.8020E+03
      2.890  0.9555E+01  0.8023E+03
      2.915  0.4222E+02  0.8033E+03
      2.939  0.8561E+02  0.8054E+03
      2.964  0.1068E+03  0.8080E+03
      2.988  0.1137E+03  0.8108E+03
      3.013  0.1051E+03  0.8134E+03
      3.037  0.9125E+02  0.8156E+03
      3.062  0.7007E+02  0.8173E+03
      3.086  0.5273E+02  0.8186E+03
      3.111  0.7789E+02  0.8205E+03
      3.135  0.1170E+03  0.8234E+03
      3.160  0.1382E+03  0.8268E+03
      3.184  0.1504E+03  0.8304E+03
      3.209  0.1506E+03  0.8341E+03
      3.233  0.1494E+03  0.8378E+03
      3.258  0.1323E+03  0.8410E+03
      3.282  0.9449E+02  0.8433E+03
      3.307  0.7350E+02  0.8451E+03
      3.331  0.6182E+02  0.8467E+03
      3.356  0.3892E+02  0.8476E+03
      3.380  0.1649E+02  0.8480E+03
      3.405  0.1779E+02  0.8485E+03
      3.429  0.4084E+02  0.8495E+03
      3.454  0.5921E+02  0.8509E+03
      3.478  0.6677E+02  0.8525E+03
      3.503  0.8563E+02  0.8546E+03
      3.527  0.1030E+03  0.8572E+03
      3.552  0.1080E+03  0.8598E+03
      3.576  0.7425E+02  0.8616E+03
      3.601  0.4480E+02  0.8627E+03
      3.625  0.6097E+02  0.8642E+03
      3.650  0.5380E+02  0.8655E+03
      3.674  0.1743E+02  0.8660E+03
      3.699  0.1855E+01  0.8660E+03
      3.723  0.6104E-01  0.8660E+03
      3.748  0.5952E-03  0.8660E+03
      3.772  0.1667E-05  0.8660E+03
      3.797  0.1313E-08  0.8660E+03
      3.821  0.2833E-12  0.8660E+03
      3.845  0.0000E+00  0.8660E+03
      3.870  0.0000E+00  0.8660E+03
      3.894  0.0000E+00  0.8660E+03
      3.919  0.0000E+00  0.8660E+03
      3.943  0.0000E+00  0.8660E+03
      3.968  0.0000E+00  0.8660E+03
