       N       E                     dE             d eps       ncg     rms          rms(c)
DAV:   1    -0.246273701560E+03   -0.24627E+03   -0.10639E+05  3464   0.661E+02
DAV:   2    -0.771917085572E+03   -0.52564E+03   -0.48092E+03  3996   0.685E+01
DAV:   3    -0.807563106969E+03   -0.35646E+02   -0.32463E+02  4320   0.142E+01
DAV:   4    -0.808700331968E+03   -0.11372E+01   -0.11216E+01  3896   0.279E+00
DAV:   5    -0.808724989042E+03   -0.24657E-01   -0.24633E-01  4048   0.440E-01    0.682E+00
DAV:   6    -0.806211370631E+03    0.25136E+01   -0.54638E+00  3792   0.341E+00    0.528E+00
DAV:   7    -0.803129034744E+03    0.30823E+01   -0.44998E+00  3896   0.315E+00    0.328E+00
DAV:   8    -0.802006923492E+03    0.11221E+01   -0.19759E+00  3840   0.154E+00    0.177E+00
DAV:   9    -0.801816343876E+03    0.19058E+00   -0.10388E+00  3760   0.867E-01    0.101E+00
DAV:  10    -0.801818711344E+03   -0.23675E-02   -0.19608E-01  3992   0.501E-01    0.755E-01
DAV:  11    -0.801763317979E+03    0.55393E-01   -0.79182E-02  3912   0.364E-01    0.403E-01
DAV:  12    -0.801757183578E+03    0.61344E-02   -0.23369E-02  3736   0.142E-01    0.157E-01
DAV:  13    -0.801757295726E+03   -0.11215E-03   -0.53703E-03  3832   0.850E-02    0.107E-01
DAV:  14    -0.801756541176E+03    0.75455E-03   -0.16694E-03  3808   0.582E-02    0.658E-02
DAV:  15    -0.801756135822E+03    0.40535E-03   -0.63956E-04  3824   0.310E-02    0.296E-02
DAV:  16    -0.801756059810E+03    0.76012E-04   -0.35577E-04  3672   0.160E-02    0.106E-02
DAV:  17    -0.801756048732E+03    0.11078E-04   -0.44070E-05  3328   0.683E-03    0.697E-03
DAV:  18    -0.801756041755E+03    0.69768E-05   -0.94776E-06  2160   0.427E-03
   1 F= -.80175604E+03 E0= -.80171264E+03  d E =-.867981E-01
