Li                                      
           1
    20.227200    0.000000    0.000000
     0.000000   20.227200    0.000000
     0.000000    0.000000   20.227200
   Li
   432
Direct configuration=     1
   0.99261471  0.00482373  0.01979832
   0.90739113  0.09064300  0.09015446
   0.84176264  0.17020463  0.16440107
   0.77115526  0.25727749  0.25919888
   0.67327075  0.34701837  0.33407661
   0.57364544  0.42350969  0.41699581
   0.49060404  0.49629792  0.50526852
   0.39555864  0.59736257  0.58407111
   0.32452911  0.68843275  0.66545639
   0.24556692  0.75650445  0.76328652
   0.16310942  0.84197331  0.84093628
   0.07439649  0.92397801  0.91643113
   0.08450944  0.91212612  0.09800579
   0.98929665  0.99588201  0.16441184
   0.91249005  0.07450923  0.26134978
   0.83661877  0.16610489  0.33179119
   0.74525171  0.26737980  0.42580092
   0.66762880  0.33554990  0.50011940
   0.58109659  0.41381611  0.59591507
   0.49510906  0.50223446  0.65321844
   0.40258610  0.58519983  0.73674159
   0.34334959  0.66014566  0.83619966
   0.24642305  0.74554496  0.91785516
   0.16350682  0.84209194  0.99291329
   0.16160079  0.82656535  0.17487269
   0.09930055  0.92242887  0.24314786
   0.99609553  0.00809442  0.32382407
   0.91640434  0.08081602  0.42021634
   0.84450460  0.17355905  0.49289470
   0.74226779  0.23965901  0.58278152
   0.67295403  0.34184497  0.66875267
   0.57366844  0.40659860  0.73536234
   0.50338809  0.50831890  0.82556142
   0.42043404  0.57065452  0.90985300
   0.33231922  0.67196609  0.01238527
   0.23125110  0.73697005  0.07709403
   0.24827260  0.74187577  0.25833068
   0.16779545  0.83144642  0.32865962
   0.08240184  0.92122937  0.39218627
   0.99569360  0.00088328  0.48331537
   0.90591695  0.07595581  0.57532422
   0.84731058  0.17634888  0.65806752
   0.75835668  0.24572564  0.74896485
   0.66397914  0.33852161  0.81422127
   0.58396709  0.40793912  0.91026853
   0.51343468  0.49945097  0.00210637
   0.43015185  0.56932675  0.07551306
   0.34523468  0.66631724  0.16791328
   0.34549915  0.66343321  0.32845227
   0.26208895  0.74586031  0.41482550
   0.16954474  0.84203987  0.49089367
   0.08598575  0.91160048  0.58384130
   0.00910421  0.00412472  0.67560003
   0.91873086  0.09081847  0.74233135
   0.82742869  0.17008834  0.83568324
   0.74314497  0.24993858  0.91357174
   0.65968139  0.32956923  0.98929698
   0.58670741  0.40632130  0.08784028
   0.50737411  0.49408401  0.17174978
   0.42264158  0.59080101  0.25255165
   0.42841065  0.59530025  0.41543302
   0.32893946  0.66878533  0.50095689
   0.23247633  0.74719298  0.58516446
   0.19234617  0.86147339  0.68861525
   0.07143269  0.91777033  0.75986298
   0.99765582  0.00924997  0.83506268
   0.91102446  0.06164156  0.93490087
   0.83002786  0.16001758  0.00778560
   0.74472873  0.25360900  0.05742812
   0.66406485  0.32866031  0.17465388
   0.59569971  0.41500004  0.24806452
   0.49657770  0.50699244  0.32089656
   0.07240121  0.08810292  0.92267494
   0.97809476  0.16522776  0.00085475
   0.90627256  0.25341191  0.07436493
   0.83200670  0.33641222  0.15976516
   0.76240708  0.40827441  0.24109572
   0.67622641  0.48848637  0.33458645
   0.59190837  0.57413349  0.41619838
   0.51063841  0.66420094  0.51626890
   0.41256599  0.76137498  0.58052645
   0.33054637  0.83592621  0.68114326
   0.25670160  0.92677920  0.77046158
   0.16925140  0.00258858  0.83304590
   0.17316336  0.00843915  0.99752143
   0.09934668  0.08812618  0.09465547
   0.98751064  0.16149996  0.16781652
   0.93323528  0.25311625  0.24264642
   0.84214215  0.34170305  0.33594103
   0.76915398  0.40679737  0.42052145
   0.66943749  0.49098875  0.51213201
   0.57762488  0.56104537  0.56741200
   0.49808329  0.65915813  0.66683896
   0.42308945  0.75368564  0.76421560
   0.33855483  0.82594393  0.83380212
   0.26332779  0.91472016  0.90766418
   0.25479222  0.92251449  0.07868702
   0.17953480  0.99724001  0.16392340
   0.09239617  0.09750727  0.23061904
   0.00680931  0.15056493  0.34140902
   0.91764157  0.25925767  0.41317034
   0.83606450  0.33865861  0.51355743
   0.75095950  0.41281267  0.59507625
   0.67470706  0.49695171  0.65935897
   0.58179614  0.57504728  0.73702846
   0.50449279  0.65741097  0.82221265
   0.43843857  0.73879378  0.92333747
   0.34435054  0.82645240  0.00202831
   0.32307162  0.81595618  0.17351728
   0.25432820  0.91828624  0.23200305
   0.17467585  0.00520098  0.32792375
   0.08567766  0.07500813  0.40592227
   0.99765226  0.15870464  0.50401440
   0.92025025  0.23592846  0.57681260
   0.82690919  0.31845752  0.66837153
   0.76926969  0.42598410  0.74949509
   0.66694822  0.49402274  0.82249296
   0.57617648  0.57550480  0.92773965
   0.49029325  0.67362525  0.00051140
   0.42221303  0.74461573  0.09886044
   0.42034618  0.74255904  0.25438954
   0.34787141  0.83128731  0.33315509
   0.25586958  0.92762889  0.40539443
   0.17197166  0.01035001  0.49092785
   0.09479331  0.08618295  0.56882166
   0.98808802  0.17250347  0.66927421
   0.90112174  0.25351009  0.75702544
   0.82692383  0.32704464  0.83623576
   0.75227672  0.41670272  0.90239550
   0.66995372  0.49433498  0.00475327
   0.58547088  0.57709129  0.08817486
   0.49651530  0.65933490  0.16987249
   0.50851780  0.67199065  0.34023648
   0.41559887  0.75099857  0.43554736
   0.31764511  0.84538038  0.50679489
   0.25893878  0.92823976  0.58360800
   0.16046397  0.99627584  0.67206553
   0.07806937  0.10051711  0.74955539
   0.98285577  0.17412630  0.84350256
   0.91024124  0.23721111  0.91787301
   0.83452919  0.32667656  0.97942483
   0.75012413  0.39438724  0.06266605
   0.68884757  0.48605486  0.15527794
   0.59404858  0.57126539  0.24610529
   0.17021980  0.17431906  0.84647687
   0.09601885  0.24228619  0.93104417
   0.98449652  0.34085278  0.99170462
   0.90229569  0.41363072  0.06829283
   0.81263828  0.49164302  0.15946529
   0.74210251  0.58777643  0.24284197
   0.67710654  0.65895907  0.33531411
   0.58535888  0.74810816  0.41373203
   0.50322884  0.82694589  0.50496185
   0.41735073  0.91342591  0.59883586
   0.34525052  0.01311301  0.67067335
   0.23937758  0.08931450  0.74236796
   0.25308376  0.08424913  0.91857999
   0.17814819  0.15847951  0.99587612
   0.06193176  0.24079248  0.07493219
   0.99953312  0.35007274  0.16130555
   0.90978290  0.41411709  0.26026272
   0.82899099  0.50153102  0.33756867
   0.74515451  0.56848972  0.42137024
   0.67550276  0.66644310  0.50717630
   0.58182126  0.74921718  0.59149822
   0.51553350  0.83679766  0.67569882
   0.40613796  0.92432710  0.75770299
   0.34724921  0.01017776  0.83703842
   0.34838684  0.99779244  0.98626325
   0.25918605  0.08686902  0.07965230
   0.16218736  0.18152147  0.14190611
   0.08009465  0.24363232  0.23573445
   0.99348307  0.33670467  0.33082706
   0.92014989  0.42141281  0.42680132
   0.82708728  0.50345809  0.50142296
   0.74617502  0.56777325  0.58513814
   0.66223661  0.66578992  0.66779513
   0.58324677  0.74830615  0.73796011
   0.51346016  0.82865796  0.82280691
   0.42169158  0.89073683  0.90144034
   0.41919830  0.90673777  0.09746270
   0.34356721  0.00645494  0.16620534
   0.25284190  0.08831283  0.24876179
   0.16552802  0.15705567  0.32706930
   0.08895259  0.24677158  0.40215020
   0.00574162  0.32971310  0.50758551
   0.90265693  0.40948034  0.58517997
   0.83824419  0.49747405  0.66069793
   0.74870627  0.57773425  0.72929195
   0.66752202  0.65765137  0.84056905
   0.57066574  0.74456682  0.89885546
   0.50481553  0.83346108  0.01253541
   0.49637564  0.83234362  0.18388652
   0.42231093  0.91860798  0.24289028
   0.33597008  0.99103081  0.32301414
   0.27175917  0.07621250  0.41025615
   0.18701244  0.16166636  0.49918240
   0.08166467  0.23698220  0.58751583
   0.01059629  0.33960481  0.66478929
   0.91810335  0.41586782  0.75284015
   0.83681655  0.50939199  0.82140415
   0.75362200  0.58187064  0.92377036
   0.64742598  0.67907918  0.00569052
   0.57035679  0.74068376  0.09654201
   0.57901654  0.72943871  0.26107198
   0.50421839  0.84121033  0.33138869
   0.42702524  0.91242077  0.42654118
   0.33080091  0.00222309  0.49770120
   0.26007013  0.07497308  0.57768161
   0.16891880  0.16413694  0.67145433
   0.08582732  0.24187278  0.76068796
   0.00121670  0.32499458  0.83188562
   0.91552548  0.42318650  0.90698657
   0.82087160  0.49616240  0.99098098
   0.74487527  0.59115558  0.08250654
   0.65564145  0.67374745  0.17588292
   0.24663035  0.24301476  0.75930206
   0.15864416  0.32286628  0.83130579
   0.08957062  0.42724816  0.90961836
   0.98466660  0.50757285  0.00321367
   0.90764970  0.58054559  0.08462306
   0.83764517  0.67287920  0.16009225
   0.75047747  0.74115172  0.25750180
   0.66775430  0.82447842  0.32444868
   0.59112876  0.92685470  0.41569803
   0.50664338  0.00417050  0.49192963
   0.41878132  0.07873000  0.57566289
   0.33117514  0.16213639  0.63994907
   0.33527225  0.16556190  0.84172224
   0.25861069  0.25824270  0.91380878
   0.15192998  0.33849036  0.01804219
   0.07964892  0.42441173  0.08106570
   0.99359449  0.50027819  0.17217345
   0.90493164  0.59220491  0.23997535
   0.82831022  0.64736802  0.34316881
   0.74686889  0.76042165  0.41877821
   0.66413181  0.82404790  0.50368795
   0.59501612  0.91869292  0.58040736
   0.49720791  0.00480649  0.66299890
   0.44010651  0.09403615  0.75135522
   0.41790014  0.08190536  0.91789355
   0.32798135  0.14694625  0.00197901
   0.24084891  0.24891434  0.07330596
   0.15622711  0.33089780  0.16538527
   0.08347311  0.42488585  0.24693446
   0.99473208  0.50419559  0.32775811
   0.92216658  0.57034367  0.42784533
   0.82710199  0.68150780  0.50768026
   0.74907120  0.74444740  0.59661681
   0.68260835  0.84267119  0.66387471
   0.58573494  0.93507363  0.75108448
   0.49186098  0.98989894  0.84640879
   0.48199746  0.00077034  0.00809772
   0.41991612  0.07451491  0.09497341
   0.34480776  0.17470744  0.15001193
   0.24737921  0.26718851  0.25017630
   0.15191901  0.34186499  0.33463953
   0.06944769  0.43574643  0.40782832
   0.98661179  0.49263247  0.50941998
   0.91305885  0.59367080  0.58935746
   0.80372788  0.67095774  0.67032773
   0.73645535  0.74336952  0.75587967
   0.66848770  0.84545760  0.82501824
   0.58788925  0.92204186  0.91350779
   0.58507810  0.91106462  0.09244822
   0.50487928  0.01213017  0.16332868
   0.42613871  0.07715729  0.25010460
   0.33502357  0.16009048  0.32321974
   0.24560929  0.25306779  0.41071950
   0.16037037  0.35308502  0.48708074
   0.10569918  0.42405673  0.58105304
   0.01387756  0.50719918  0.66580739
   0.91428562  0.58239397  0.73864643
   0.82192927  0.66642062  0.83195746
   0.74174940  0.75127875  0.92657910
   0.64746662  0.83608424  0.99067300
   0.66013336  0.82389757  0.17908204
   0.57086157  0.92495191  0.24220280
   0.49112792  0.99591954  0.33262107
   0.43055673  0.09032812  0.41139478
   0.33255566  0.17342460  0.48914148
   0.24621566  0.25244911  0.58199436
   0.15940242  0.32797567  0.66712336
   0.10045191  0.41345632  0.74733625
   0.00755136  0.50306239  0.81912133
   0.91862713  0.59288116  0.91004185
   0.82103589  0.66118322  0.01473619
   0.73037617  0.74312699  0.08022693
   0.33434418  0.32576005  0.68910383
   0.25046086  0.41109992  0.75447272
   0.16209290  0.50193402  0.84894116
   0.06483683  0.58734989  0.92198354
   0.97947860  0.66951531  0.00098820
   0.91833523  0.75507705  0.08506224
   0.80954443  0.82565105  0.14725342
   0.74607022  0.90249868  0.24797643
   0.67663890  0.98771813  0.33650915
   0.58864734  0.08651800  0.40930499
   0.51111103  0.17316987  0.50245123
   0.40595430  0.24391913  0.57184656
   0.41047522  0.23646908  0.74725941
   0.33752113  0.34139417  0.84051942
   0.23434721  0.40957501  0.91555642
   0.16444470  0.52030682  0.99403485
   0.07170895  0.58481520  0.08481199
   0.99642346  0.67211508  0.16844087
   0.91325910  0.74835904  0.24750631
   0.82850445  0.82195002  0.33932470
   0.75648265  0.89796081  0.41894883
   0.67762399  0.00701831  0.49228403
   0.58414381  0.06850937  0.57657624
   0.49659888  0.17128805  0.64519905
   0.50304159  0.17210014  0.83054120
   0.42442042  0.23848533  0.92656765
   0.34162639  0.32616774  0.99696107
   0.25472425  0.41886625  0.09776274
   0.16116844  0.51233041  0.17361642
   0.07993950  0.59299146  0.25596565
   0.99789968  0.67204359  0.33525706
   0.91908778  0.74314690  0.40690913
   0.82771788  0.83136177  0.51054563
   0.76590901  0.93010740  0.56304247
   0.68179684  0.99313535  0.67583597
   0.57199304  0.09169173  0.74787044
   0.57203336  0.08891043  0.90006219
   0.50896955  0.15410996  0.00284069
   0.41844815  0.24544199  0.07233311
   0.34159054  0.31966259  0.15843045
   0.24057796  0.41206230  0.25600392
   0.16710362  0.51902825  0.34330893
   0.05686756  0.58449905  0.41306093
   0.99220801  0.66808143  0.50982647
   0.90862304  0.74527451  0.59199425
   0.83958209  0.83731797  0.66382667
   0.76179848  0.92115378  0.74627819
   0.66664072  0.01048591  0.83325577
   0.65029550  0.99681115  0.00996014
   0.59097191  0.08354498  0.08663016
   0.50073059  0.17833278  0.17423633
   0.40222764  0.24879925  0.25077371
   0.33112735  0.34474258  0.32795864
   0.24545858  0.42521175  0.41784698
   0.16802361  0.50683245  0.50066081
   0.09606295  0.59014106  0.57995166
   0.00889437  0.67206583  0.66972649
   0.90826943  0.74684750  0.74445538
   0.82546202  0.82400808  0.82016828
   0.74440309  0.90609097  0.91390936
   0.73007804  0.91111958  0.08625038
   0.66167207  0.99483444  0.17603314
   0.61054670  0.08342262  0.26124455
   0.50540505  0.17299694  0.33199836
   0.42139929  0.25752023  0.41431971
   0.33500239  0.32872204  0.49663732
   0.25210038  0.42000344  0.59149129
   0.16856701  0.51022363  0.67416221
   0.08841707  0.60123045  0.73442889
   0.99852585  0.68999591  0.82634047
   0.90112805  0.75389352  0.91854939
   0.82451885  0.83016308  0.00623452
   0.39989939  0.40511760  0.59202605
   0.31166802  0.50518741  0.67128303
   0.25048397  0.58654277  0.77240630
   0.15438221  0.66282126  0.83817470
   0.07604391  0.74808208  0.93104418
   0.98503242  0.83881310  0.00426742
   0.91452512  0.89845203  0.09742950
   0.83653484  0.99804454  0.17693300
   0.75981405  0.07725063  0.24528477
   0.68954631  0.17551546  0.34159602
   0.59634821  0.26417095  0.41635672
   0.49567842  0.33921532  0.51041537
   0.49773871  0.32571516  0.66083981
   0.40661734  0.42689247  0.72725456
   0.34730777  0.48373607  0.83436015
   0.25424648  0.58172483  0.91686137
   0.16357766  0.65669714  0.00460163
   0.07112084  0.75480536  0.08708474
   0.99097749  0.82962576  0.17311307
   0.89670205  0.90674788  0.24480525
   0.81774390  0.99594220  0.33215884
   0.75744100  0.08859998  0.42933603
   0.66692569  0.16975804  0.51394905
   0.58853073  0.25731430  0.59861152
   0.57120070  0.25706854  0.74281044
   0.49559090  0.34262766  0.81269608
   0.43589335  0.40838098  0.91825541
   0.34373778  0.49834175  0.00961681
   0.25170765  0.57742378  0.08395715
   0.16536134  0.66081668  0.17277244
   0.07498637  0.75317492  0.25715382
   0.99832622  0.84374396  0.30946238
   0.91527805  0.90765694  0.41016099
   0.83061619  0.00289352  0.49116833
   0.75924561  0.08762063  0.58767937
   0.67162910  0.15563865  0.67807727
   0.67231643  0.16860030  0.82626748
   0.58154713  0.25771988  0.90454808
   0.50029020  0.32110115  0.00102470
   0.42668455  0.41199489  0.08402785
   0.35210271  0.49698389  0.17716957
   0.25431317  0.58375060  0.26046008
   0.16047598  0.66114037  0.33247660
   0.08711851  0.74966678  0.41917879
   0.00130632  0.82680660  0.50176801
   0.92066759  0.92743464  0.58653581
   0.83357710  0.01047945  0.67270097
   0.75314373  0.09088001  0.75081682
   0.75550427  0.08068273  0.91892862
   0.66606067  0.17691455  0.99087078
   0.58240467  0.23957174  0.09286781
   0.49651510  0.32445253  0.17456197
   0.41630270  0.40380531  0.25203694
   0.34613800  0.50504453  0.34381372
   0.26019555  0.60178363  0.42034377
   0.15018029  0.68347481  0.48049641
   0.10853402  0.77227546  0.59177805
   0.98972622  0.82942483  0.66979248
   0.92438163  0.91429691  0.75528986
   0.83105113  0.00478991  0.84105390
   0.83991444  0.97696203  0.99761609
   0.74874503  0.06752521  0.08444902
   0.68168819  0.17571666  0.16506494
   0.59855781  0.24303223  0.25219431
   0.50158517  0.33103378  0.31144120
   0.41909648  0.41335107  0.40807580
   0.33352946  0.49683461  0.49391857
   0.23381222  0.59471731  0.58491162
   0.18765178  0.68457308  0.67241574
   0.08943529  0.75465756  0.74525634
   0.00244075  0.81666527  0.83408430
   0.91576252  0.90841977  0.92199836
