 432 432   0   0
  0.2035379E+02  0.2064000E-08  0.2064000E-08  0.2064000E-08  0.5000000E-15
  1.000000000000000E-004
  CAR 
 Li                                      
      3.56867278     -3.44186010  301      0.39380500      1.00000000
     -3.442  0.0000E+00  0.0000E+00
     -3.418  0.0000E+00  0.0000E+00
     -3.395  0.0000E+00  0.0000E+00
     -3.372  0.0000E+00  0.0000E+00
     -3.348  0.0000E+00  0.0000E+00
     -3.325  0.0000E+00  0.0000E+00
     -3.302  0.0000E+00  0.0000E+00
     -3.278  0.1104E-10  0.2579E-12
     -3.255  0.2221E-07  0.5193E-09
     -3.232  0.1365E-04  0.3195E-06
     -3.208  0.2585E-02  0.6073E-04
     -3.185  0.1529E+00  0.3633E-02
     -3.161  0.2874E+01  0.7080E-01
     -3.138  0.1754E+02  0.4807E+00
     -3.115  0.3541E+02  0.1308E+01
     -3.091  0.2387E+02  0.1866E+01
     -3.068  0.5478E+01  0.1994E+01
     -3.045  0.3612E+01  0.2078E+01
     -3.021  0.2621E+02  0.2691E+01
     -2.998  0.7859E+02  0.4527E+01
     -2.974  0.9308E+02  0.6703E+01
     -2.951  0.4567E+02  0.7770E+01
     -2.928  0.9854E+01  0.8000E+01
     -2.904  0.1032E+02  0.8241E+01
     -2.881  0.4763E+02  0.9354E+01
     -2.858  0.9252E+02  0.1152E+02
     -2.834  0.7585E+02  0.1329E+02
     -2.811  0.2674E+02  0.1391E+02
     -2.788  0.7256E+01  0.1408E+02
     -2.764  0.2635E+02  0.1470E+02
     -2.741  0.8488E+02  0.1668E+02
     -2.717  0.1225E+03  0.1954E+02
     -2.694  0.7959E+02  0.2140E+02
     -2.671  0.2389E+02  0.2196E+02
     -2.647  0.1637E+02  0.2234E+02
     -2.624  0.6713E+02  0.2391E+02
     -2.601  0.1461E+03  0.2733E+02
     -2.577  0.1604E+03  0.3107E+02
     -2.554  0.9433E+02  0.3328E+02
     -2.530  0.2819E+02  0.3394E+02
     -2.507  0.1393E+02  0.3426E+02
     -2.484  0.5113E+02  0.3546E+02
     -2.460  0.9675E+02  0.3772E+02
     -2.437  0.7343E+02  0.3943E+02
     -2.414  0.2234E+02  0.3996E+02
     -2.390  0.1079E+02  0.4021E+02
     -2.367  0.4785E+02  0.4133E+02
     -2.344  0.1265E+03  0.4428E+02
     -2.320  0.1701E+03  0.4826E+02
     -2.297  0.1167E+03  0.5099E+02
     -2.273  0.4261E+02  0.5198E+02
     -2.250  0.4112E+02  0.5295E+02
     -2.227  0.1166E+03  0.5567E+02
     -2.203  0.1994E+03  0.6033E+02
     -2.180  0.2141E+03  0.6533E+02
     -2.157  0.1409E+03  0.6862E+02
     -2.133  0.5084E+02  0.6981E+02
     -2.110  0.1991E+02  0.7028E+02
     -2.086  0.5183E+02  0.7149E+02
     -2.063  0.9063E+02  0.7361E+02
     -2.040  0.7163E+02  0.7528E+02
     -2.016  0.2817E+02  0.7594E+02
     -1.993  0.2289E+02  0.7647E+02
     -1.970  0.8148E+02  0.7838E+02
     -1.946  0.1671E+03  0.8228E+02
     -1.923  0.1839E+03  0.8658E+02
     -1.900  0.1099E+03  0.8915E+02
     -1.876  0.3788E+02  0.9003E+02
     -1.853  0.4436E+02  0.9107E+02
     -1.829  0.1252E+03  0.9399E+02
     -1.806  0.2006E+03  0.9868E+02
     -1.783  0.2066E+03  0.1035E+03
     -1.759  0.1377E+03  0.1067E+03
     -1.736  0.5032E+02  0.1079E+03
     -1.713  0.3401E+02  0.1087E+03
     -1.689  0.9712E+02  0.1110E+03
     -1.666  0.1602E+03  0.1147E+03
     -1.642  0.1418E+03  0.1180E+03
     -1.619  0.7364E+02  0.1197E+03
     -1.596  0.5797E+02  0.1211E+03
     -1.572  0.1289E+03  0.1241E+03
     -1.549  0.2009E+03  0.1288E+03
     -1.526  0.2040E+03  0.1336E+03
     -1.502  0.1340E+03  0.1367E+03
     -1.479  0.5390E+02  0.1380E+03
     -1.456  0.5473E+02  0.1392E+03
     -1.432  0.1481E+03  0.1427E+03
     -1.409  0.2270E+03  0.1480E+03
     -1.385  0.1997E+03  0.1527E+03
     -1.362  0.1086E+03  0.1552E+03
     -1.339  0.4054E+02  0.1562E+03
     -1.315  0.5553E+02  0.1575E+03
     -1.292  0.1203E+03  0.1603E+03
     -1.269  0.1513E+03  0.1638E+03
     -1.245  0.1178E+03  0.1666E+03
     -1.222  0.5654E+02  0.1679E+03
     -1.198  0.4104E+02  0.1688E+03
     -1.175  0.8412E+02  0.1708E+03
     -1.152  0.1287E+03  0.1738E+03
     -1.128  0.1369E+03  0.1770E+03
     -1.105  0.9880E+02  0.1793E+03
     -1.082  0.8125E+02  0.1812E+03
     -1.058  0.1626E+03  0.1850E+03
     -1.035  0.2709E+03  0.1914E+03
     -1.012  0.3023E+03  0.1984E+03
     -0.988  0.2586E+03  0.2045E+03
     -0.965  0.1677E+03  0.2084E+03
     -0.941  0.1012E+03  0.2107E+03
     -0.918  0.1344E+03  0.2139E+03
     -0.895  0.2020E+03  0.2186E+03
     -0.871  0.2039E+03  0.2234E+03
     -0.848  0.1364E+03  0.2266E+03
     -0.825  0.5895E+02  0.2279E+03
     -0.801  0.5097E+02  0.2291E+03
     -0.778  0.1158E+03  0.2318E+03
     -0.754  0.1731E+03  0.2359E+03
     -0.731  0.1564E+03  0.2395E+03
     -0.708  0.9469E+02  0.2417E+03
     -0.684  0.9142E+02  0.2439E+03
     -0.661  0.1694E+03  0.2478E+03
     -0.638  0.2376E+03  0.2534E+03
     -0.614  0.2507E+03  0.2592E+03
     -0.591  0.1883E+03  0.2636E+03
     -0.568  0.1106E+03  0.2662E+03
     -0.544  0.9841E+02  0.2685E+03
     -0.521  0.9377E+02  0.2707E+03
     -0.497  0.4836E+02  0.2719E+03
     -0.474  0.3605E+02  0.2727E+03
     -0.451  0.1004E+03  0.2750E+03
     -0.427  0.1919E+03  0.2795E+03
     -0.404  0.2369E+03  0.2851E+03
     -0.381  0.2282E+03  0.2904E+03
     -0.357  0.1907E+03  0.2949E+03
     -0.334  0.1543E+03  0.2985E+03
     -0.310  0.1548E+03  0.3021E+03
     -0.287  0.1908E+03  0.3065E+03
     -0.264  0.2292E+03  0.3119E+03
     -0.240  0.2340E+03  0.3174E+03
     -0.217  0.2255E+03  0.3226E+03
     -0.194  0.2082E+03  0.3275E+03
     -0.170  0.1565E+03  0.3311E+03
     -0.147  0.1230E+03  0.3340E+03
     -0.124  0.1376E+03  0.3372E+03
     -0.100  0.1488E+03  0.3407E+03
     -0.077  0.1333E+03  0.3438E+03
     -0.053  0.1422E+03  0.3472E+03
     -0.030  0.1942E+03  0.3517E+03
     -0.007  0.2318E+03  0.3571E+03
      0.017  0.2447E+03  0.3628E+03
      0.040  0.2503E+03  0.3687E+03
      0.063  0.2378E+03  0.3742E+03
      0.087  0.1835E+03  0.3785E+03
      0.110  0.1484E+03  0.3820E+03
      0.134  0.1859E+03  0.3863E+03
      0.157  0.2268E+03  0.3916E+03
      0.180  0.2240E+03  0.3969E+03
      0.204  0.1791E+03  0.4011E+03
      0.227  0.1228E+03  0.4039E+03
      0.250  0.1048E+03  0.4064E+03
      0.274  0.1299E+03  0.4094E+03
      0.297  0.1716E+03  0.4134E+03
      0.320  0.2025E+03  0.4182E+03
      0.344  0.2046E+03  0.4229E+03
      0.367  0.1880E+03  0.4273E+03
      0.391  0.1755E+03  0.4314E+03
      0.414  0.1822E+03  0.4357E+03
      0.437  0.2003E+03  0.4404E+03
      0.461  0.2167E+03  0.4454E+03
      0.484  0.2196E+03  0.4506E+03
      0.507  0.2108E+03  0.4555E+03
      0.531  0.1908E+03  0.4599E+03
      0.554  0.1678E+03  0.4639E+03
      0.578  0.1700E+03  0.4678E+03
      0.601  0.1940E+03  0.4724E+03
      0.624  0.2126E+03  0.4773E+03
      0.648  0.2243E+03  0.4826E+03
      0.671  0.2278E+03  0.4879E+03
      0.694  0.2305E+03  0.4933E+03
      0.718  0.2373E+03  0.4988E+03
      0.741  0.2539E+03  0.5048E+03
      0.764  0.2669E+03  0.5110E+03
      0.788  0.2636E+03  0.5172E+03
      0.811  0.2571E+03  0.5232E+03
      0.835  0.2513E+03  0.5291E+03
      0.858  0.2432E+03  0.5347E+03
      0.881  0.2372E+03  0.5403E+03
      0.905  0.2376E+03  0.5458E+03
      0.928  0.2355E+03  0.5513E+03
      0.951  0.2319E+03  0.5568E+03
      0.975  0.2283E+03  0.5621E+03
      0.998  0.2222E+03  0.5673E+03
      1.022  0.2186E+03  0.5724E+03
      1.045  0.2218E+03  0.5776E+03
      1.068  0.2251E+03  0.5828E+03
      1.092  0.2292E+03  0.5882E+03
      1.115  0.2317E+03  0.5936E+03
      1.138  0.2319E+03  0.5990E+03
      1.162  0.2316E+03  0.6044E+03
      1.185  0.2216E+03  0.6096E+03
      1.208  0.2064E+03  0.6144E+03
      1.232  0.1794E+03  0.6186E+03
      1.255  0.1621E+03  0.6224E+03
      1.279  0.1704E+03  0.6264E+03
      1.302  0.1811E+03  0.6306E+03
      1.325  0.1927E+03  0.6351E+03
      1.349  0.1999E+03  0.6398E+03
      1.372  0.1884E+03  0.6442E+03
      1.395  0.1561E+03  0.6479E+03
      1.419  0.1232E+03  0.6507E+03
      1.442  0.1108E+03  0.6533E+03
      1.466  0.1301E+03  0.6564E+03
      1.489  0.1437E+03  0.6597E+03
      1.512  0.1371E+03  0.6629E+03
      1.536  0.1397E+03  0.6662E+03
      1.559  0.1511E+03  0.6697E+03
      1.582  0.1589E+03  0.6734E+03
      1.606  0.1720E+03  0.6775E+03
      1.629  0.1779E+03  0.6816E+03
      1.652  0.1730E+03  0.6857E+03
      1.676  0.1578E+03  0.6893E+03
      1.699  0.1515E+03  0.6929E+03
      1.723  0.1551E+03  0.6965E+03
      1.746  0.1585E+03  0.7002E+03
      1.769  0.1683E+03  0.7041E+03
      1.793  0.1825E+03  0.7084E+03
      1.816  0.2003E+03  0.7131E+03
      1.839  0.1993E+03  0.7178E+03
      1.863  0.1858E+03  0.7221E+03
      1.886  0.1770E+03  0.7262E+03
      1.910  0.1810E+03  0.7305E+03
      1.933  0.1900E+03  0.7349E+03
      1.956  0.1905E+03  0.7394E+03
      1.980  0.1892E+03  0.7438E+03
      2.003  0.1808E+03  0.7480E+03
      2.026  0.1589E+03  0.7517E+03
      2.050  0.1467E+03  0.7551E+03
      2.073  0.1527E+03  0.7587E+03
      2.096  0.1506E+03  0.7622E+03
      2.120  0.1393E+03  0.7655E+03
      2.143  0.1286E+03  0.7685E+03
      2.167  0.1212E+03  0.7713E+03
      2.190  0.1220E+03  0.7742E+03
      2.213  0.1211E+03  0.7770E+03
      2.237  0.1108E+03  0.7796E+03
      2.260  0.1032E+03  0.7820E+03
      2.283  0.1085E+03  0.7845E+03
      2.307  0.1132E+03  0.7872E+03
      2.330  0.1071E+03  0.7897E+03
      2.354  0.9911E+02  0.7920E+03
      2.377  0.8903E+02  0.7941E+03
      2.400  0.5817E+02  0.7954E+03
      2.424  0.2108E+02  0.7959E+03
      2.447  0.9699E+01  0.7962E+03
      2.470  0.3355E+02  0.7969E+03
      2.494  0.7229E+02  0.7986E+03
      2.517  0.8083E+02  0.8005E+03
      2.540  0.4847E+02  0.8017E+03
      2.564  0.1331E+02  0.8020E+03
      2.587  0.3017E+01  0.8020E+03
      2.611  0.1347E+02  0.8024E+03
      2.634  0.4530E+02  0.8034E+03
      2.657  0.7694E+02  0.8052E+03
      2.681  0.8907E+02  0.8073E+03
      2.704  0.9211E+02  0.8094E+03
      2.727  0.9590E+02  0.8117E+03
      2.751  0.9754E+02  0.8140E+03
      2.774  0.1057E+03  0.8164E+03
      2.798  0.1189E+03  0.8192E+03
      2.821  0.1266E+03  0.8222E+03
      2.844  0.1331E+03  0.8253E+03
      2.868  0.1422E+03  0.8286E+03
      2.891  0.1471E+03  0.8320E+03
      2.914  0.1364E+03  0.8352E+03
      2.938  0.1212E+03  0.8381E+03
      2.961  0.1125E+03  0.8407E+03
      2.984  0.1100E+03  0.8433E+03
      3.008  0.9509E+02  0.8455E+03
      3.031  0.7050E+02  0.8471E+03
      3.055  0.5891E+02  0.8485E+03
      3.078  0.5733E+02  0.8499E+03
      3.101  0.5864E+02  0.8512E+03
      3.125  0.7780E+02  0.8530E+03
      3.148  0.1015E+03  0.8554E+03
      3.171  0.1069E+03  0.8579E+03
      3.195  0.1104E+03  0.8605E+03
      3.218  0.1064E+03  0.8630E+03
      3.242  0.7838E+02  0.8648E+03
      3.265  0.3899E+02  0.8657E+03
      3.288  0.1075E+02  0.8660E+03
      3.312  0.1280E+01  0.8660E+03
      3.335  0.5609E-01  0.8660E+03
      3.358  0.8365E-03  0.8660E+03
      3.382  0.4069E-05  0.8660E+03
      3.405  0.6284E-08  0.8660E+03
      3.428  0.3024E-11  0.8660E+03
      3.452  0.0000E+00  0.8660E+03
      3.475  0.0000E+00  0.8660E+03
      3.499  0.0000E+00  0.8660E+03
      3.522  0.0000E+00  0.8660E+03
      3.545  0.0000E+00  0.8660E+03
      3.569  0.0000E+00  0.8660E+03
