 running on   64 total cores
 distrk:  each k-point on   32 cores,    2 groups
 distr:  one band on   32 cores,    1 groups
 vasp.6.2.1 16May21 (build Nov 23 2021 15:40:41) complex                        
  
 POSCAR found type information on POSCAR Li
 POSCAR found :  1 types and     432 ions
 scaLAPACK will be used
 -----------------------------------------------------------------------------
|                                                                             |
|           W    W    AA    RRRRR   N    N  II  N    N   GGGG   !!!           |
|           W    W   A  A   R    R  NN   N  II  NN   N  G    G  !!!           |
|           W    W  A    A  R    R  N N  N  II  N N  N  G       !!!           |
|           W WW W  AAAAAA  RRRRR   N  N N  II  N  N N  G  GGG   !            |
|           WW  WW  A    A  R   R   N   NN  II  N   NN  G    G                |
|           W    W  A    A  R    R  N    N  II  N    N   GGGG   !!!           |
|                                                                             |
|     For optimal performance we recommend to set                             |
|       NCORE = 2 up to number-of-cores-per-socket                            |
|     NCORE specifies how many cores store one orbital (NPAR=cpu/NCORE).      |
|     This setting can greatly improve the performance of VASP for DFT.       |
|     The default, NCORE=1 might be grossly inefficient on modern             |
|     multi-core architectures or massively parallel machines. Do your        |
|     own testing! More info at https://www.vasp.at/wiki/index.php/NCORE      |
|     Unfortunately you need to use the default for GW and RPA                |
|     calculations (for HF NCORE is supported but not extensively tested      |
|     yet).                                                                   |
|                                                                             |
 -----------------------------------------------------------------------------

 -----------------------------------------------------------------------------
|                                                                             |
|               ----> ADVICE to this user running VASP <----                  |
|                                                                             |
|     You have a (more or less) 'large supercell' and for larger cells it     |
|     might be more efficient to use real-space projection operators.         |
|     Therefore, try LREAL= Auto in the INCAR file.                           |
|     Mind: If you want to do very accurate calculations, keep the            |
|     reciprocal projection scheme (i.e. LREAL=.FALSE.).                      |
|                                                                             |
 -----------------------------------------------------------------------------

 LDA part: xc-table for Pade appr. of Perdew
 POSCAR found type information on POSCAR Li
 POSCAR found :  1 types and     432 ions
 POSCAR, INCAR and KPOINTS ok, starting setup
 FFT: planning ...
 WAVECAR not read
 entering main loop
       N       E                     dE             d eps       ncg     rms          rms(c)
DAV:   1    -0.241993533386E+03   -0.24199E+03   -0.10480E+05  3464   0.655E+02
DAV:   2    -0.759780705659E+03   -0.51779E+03   -0.47295E+03  3996   0.672E+01
DAV:   3    -0.796503147004E+03   -0.36722E+02   -0.33543E+02  4384   0.142E+01
DAV:   4    -0.797728530914E+03   -0.12254E+01   -0.12088E+01  3976   0.285E+00
DAV:   5    -0.797756615511E+03   -0.28085E-01   -0.28048E-01  4120   0.457E-01    0.871E+00
DAV:   6    -0.789278265235E+03    0.84784E+01   -0.94072E+00  3888   0.349E+00    0.481E+00
DAV:   7    -0.789028451770E+03    0.24981E+00   -0.60507E+00  4032   0.328E+00    0.423E+00
DAV:   8    -0.786779182761E+03    0.22493E+01   -0.33711E+00  3976   0.229E+00    0.215E+00
DAV:   9    -0.786420555648E+03    0.35863E+00   -0.17437E+00  3856   0.112E+00    0.108E+00
DAV:  10    -0.786417444825E+03    0.31108E-02   -0.49516E-01  3824   0.610E-01    0.687E-01
DAV:  11    -0.786396824380E+03    0.20620E-01   -0.96847E-02  3984   0.375E-01    0.494E-01
DAV:  12    -0.786380446071E+03    0.16378E-01   -0.21915E-02  3904   0.179E-01    0.232E-01
DAV:  13    -0.786380251570E+03    0.19450E-03   -0.10049E-02  3936   0.104E-01    0.122E-01
DAV:  14    -0.786379624593E+03    0.62698E-03   -0.36450E-03  3936   0.755E-02    0.789E-02
DAV:  15    -0.786379067991E+03    0.55660E-03   -0.10299E-03  3904   0.408E-02    0.413E-02
DAV:  16    -0.786378951371E+03    0.11662E-03   -0.42774E-04  3736   0.194E-02    0.161E-02
DAV:  17    -0.786378956421E+03   -0.50497E-05   -0.77690E-05  4096   0.113E-02
   1 F= -.78637896E+03 E0= -.78633913E+03  d E =-.796447E-01
