Li                                      
           1
    20.640000    0.000000    0.000000
     0.000000   20.640000    0.000000
     0.000000    0.000000   20.640000
   Li
   432
Direct configuration=     1
   0.99249132  0.00281827  0.99143599
   0.90948337  0.10905895  0.08027978
   0.82922398  0.18707634  0.18522763
   0.76486779  0.25302293  0.22464656
   0.66818351  0.32229655  0.31986831
   0.57398116  0.39142584  0.41367506
   0.50976765  0.50745851  0.49220722
   0.42359887  0.60132770  0.59645994
   0.31830387  0.67162820  0.64108649
   0.22970937  0.77554036  0.74596596
   0.15546687  0.83282783  0.82345315
   0.07551177  0.92243975  0.89675478
   0.08136326  0.92361758  0.07949585
   0.01512641  0.01268774  0.17799668
   0.92149777  0.08042730  0.26359773
   0.85579112  0.17526203  0.34589181
   0.74777535  0.26193990  0.40609637
   0.66440237  0.32721363  0.48789318
   0.58473134  0.42657289  0.57366793
   0.51964537  0.49759084  0.65264460
   0.39999403  0.56567078  0.72581267
   0.32202428  0.67820776  0.82817056
   0.24036187  0.74711484  0.91482963
   0.14309082  0.84267932  0.99656228
   0.19873299  0.82869898  0.14644033
   0.09258346  0.93406508  0.24718453
   0.99784596  0.01222422  0.34218500
   0.93042871  0.08513969  0.43699089
   0.81865366  0.17009415  0.49142096
   0.73752002  0.25769061  0.59255903
   0.66497045  0.35027348  0.64877246
   0.55546525  0.43419447  0.76690551
   0.50146261  0.50541796  0.83922249
   0.41259854  0.60481983  0.90777635
   0.31457411  0.67448301  0.98921530
   0.25652631  0.74509993  0.05048913
   0.25247729  0.73699091  0.22853323
   0.17528784  0.83525732  0.32304634
   0.06913337  0.92291394  0.40462713
   0.98692292  0.98001093  0.49894264
   0.92029618  0.09005435  0.59016409
   0.81736269  0.15907241  0.66208660
   0.74070508  0.24198049  0.75136857
   0.64845055  0.34757692  0.85284777
   0.60485886  0.41617338  0.90935793
   0.49561814  0.50820527  0.99613279
   0.38451260  0.60166407  0.05746280
   0.33255869  0.66518289  0.17320122
   0.32520598  0.67074062  0.30239451
   0.25223371  0.73694621  0.44116772
   0.14499210  0.86371922  0.47937320
   0.05865849  0.91691416  0.57797507
   0.98801629  0.99040309  0.65560351
   0.91572350  0.07979950  0.75574511
   0.82538629  0.17064076  0.82976073
   0.76108999  0.27005534  0.93792414
   0.65440034  0.32605211  0.00263293
   0.57354047  0.41302717  0.10860901
   0.49823116  0.50935812  0.16042531
   0.41962150  0.58355223  0.24662943
   0.41746147  0.59264530  0.40150186
   0.32909123  0.66847311  0.49388188
   0.25022845  0.75879962  0.56564829
   0.16069913  0.82830594  0.66118878
   0.05955355  0.91237071  0.74828822
   0.99711105  0.00155039  0.83927534
   0.89826318  0.09045739  0.92616074
   0.83845857  0.16779371  0.99208720
   0.76707705  0.26661774  0.08243661
   0.65594623  0.32320178  0.18285487
   0.59257032  0.41605989  0.24190762
   0.49251559  0.52149905  0.31822854
   0.07761195  0.08864771  0.89837679
   0.01149975  0.17515846  0.99765672
   0.93314162  0.25870248  0.10264584
   0.84592223  0.35658110  0.16936843
   0.78039352  0.41525871  0.25267659
   0.67808023  0.50154912  0.32643938
   0.59191372  0.58326159  0.41889831
   0.50059863  0.65594684  0.49864411
   0.42397382  0.74758186  0.57859673
   0.33715190  0.82656808  0.67099494
   0.25072100  0.89136954  0.73868531
   0.16648568  0.99832084  0.80978044
   0.16299656  0.02240685  0.98733164
   0.10268988  0.09692712  0.08519723
   0.99918122  0.18416580  0.17639440
   0.93645125  0.25805724  0.25032300
   0.85360204  0.31623063  0.34273322
   0.75471437  0.40617580  0.40940436
   0.66184859  0.51733121  0.49525812
   0.57855963  0.57661561  0.58813378
   0.50384575  0.66609921  0.66471127
   0.41342543  0.74699491  0.73539265
   0.33903693  0.83868592  0.85430923
   0.23584656  0.92251398  0.91585402
   0.24757381  0.91915057  0.06644225
   0.17606047  0.00708579  0.15738904
   0.09297597  0.08351049  0.24357729
   0.01982272  0.18576829  0.33427379
   0.93430872  0.24865188  0.41141053
   0.82630348  0.31016799  0.49701441
   0.74320237  0.41358707  0.57368728
   0.68087999  0.49510103  0.68321387
   0.58632142  0.57358606  0.76113021
   0.50544572  0.66347891  0.82801457
   0.39857825  0.72639133  0.94063384
   0.33378638  0.86503735  0.98691830
   0.35005941  0.82333291  0.14712407
   0.26231007  0.90760190  0.23335707
   0.17494816  0.00011393  0.31778799
   0.09853139  0.07277617  0.42587037
   0.97852004  0.16419786  0.50476837
   0.90505705  0.25958984  0.58351802
   0.83511836  0.33249021  0.67223214
   0.74190204  0.40347608  0.75567371
   0.69206586  0.49244968  0.82852690
   0.58215719  0.58398292  0.93926895
   0.53113280  0.66259851  0.99795671
   0.39556862  0.73222836  0.05152302
   0.43605686  0.76018245  0.24837532
   0.34252397  0.83029007  0.31398094
   0.25046450  0.90761853  0.38465808
   0.15196589  0.97053515  0.50194798
   0.07569314  0.08782749  0.57777443
   0.97678880  0.17399919  0.67672293
   0.90692975  0.24864171  0.76702358
   0.85241421  0.34617599  0.84712293
   0.75878533  0.40474493  0.93565827
   0.66687088  0.48983914  0.98973241
   0.58507020  0.55972217  0.06744798
   0.47835464  0.65813930  0.13723314
   0.50099531  0.68074706  0.31726024
   0.42409848  0.76742702  0.43311269
   0.34442068  0.83503640  0.51451248
   0.22743763  0.91837487  0.56970713
   0.15329009  0.97882051  0.66352306
   0.06283895  0.08725984  0.73750113
   0.99383410  0.16498935  0.83100567
   0.91348868  0.26466485  0.90935659
   0.85192998  0.33553730  0.00874134
   0.74831370  0.40848602  0.08373963
   0.67633807  0.47381282  0.19485534
   0.58715021  0.59035104  0.26298471
   0.15616839  0.17917033  0.82906504
   0.08292375  0.26691633  0.92964681
   0.98513928  0.32058644  0.99507985
   0.94483912  0.44209449  0.08346040
   0.83189497  0.49151452  0.15536779
   0.75446981  0.59277651  0.26759837
   0.64153693  0.67456501  0.34174589
   0.58876014  0.78294659  0.41279917
   0.50476749  0.84675681  0.51941895
   0.41373055  0.92278198  0.59349776
   0.31708467  0.99047457  0.66887801
   0.24381128  0.09085072  0.74762782
   0.24309840  0.08799410  0.89655492
   0.17464590  0.16548804  0.00270529
   0.08922548  0.24726715  0.08368526
   0.00123129  0.34484514  0.18270839
   0.91232967  0.41258441  0.25131934
   0.83305935  0.49277966  0.35032144
   0.74583925  0.59222780  0.40398166
   0.64548886  0.65531785  0.49492222
   0.58292025  0.75008256  0.58203925
   0.49919391  0.83095076  0.66150020
   0.43070671  0.89975564  0.73826336
   0.34251587  0.99141749  0.82880190
   0.31582676  0.99949054  0.98837123
   0.26824446  0.10031269  0.07212556
   0.17095072  0.16638471  0.16528429
   0.09928063  0.28176078  0.26287659
   0.98426455  0.35510603  0.32352674
   0.91249835  0.42073610  0.43166976
   0.82349697  0.49946594  0.47949540
   0.75428561  0.60026984  0.58412771
   0.65801650  0.66163337  0.66633352
   0.60154472  0.74775066  0.74011229
   0.49780224  0.81620897  0.85523495
   0.42598340  0.92008829  0.93289799
   0.41619006  0.92938390  0.08270893
   0.30882248  0.99614303  0.16279446
   0.25976706  0.09758143  0.24235205
   0.16716436  0.16906664  0.36081981
   0.06792294  0.26733178  0.44162309
   0.98941443  0.33269504  0.52373650
   0.89880803  0.42372269  0.56527418
   0.81817173  0.50501558  0.66139553
   0.73873426  0.59771718  0.73721224
   0.66853108  0.66064931  0.84270587
   0.58999795  0.74987315  0.92648525
   0.47371198  0.82633306  0.00264911
   0.50084867  0.81781574  0.14568795
   0.42803170  0.93367438  0.24620865
   0.33875993  0.99087609  0.32971965
   0.24649204  0.06007161  0.43701039
   0.17590524  0.17169201  0.51248912
   0.06860253  0.24073921  0.60182832
   0.96809940  0.34808846  0.67465494
   0.90055806  0.43245040  0.75550183
   0.82455895  0.51217336  0.83791403
   0.73282764  0.58018657  0.94622368
   0.66406323  0.68058862  0.01018355
   0.58185182  0.74459398  0.08728737
   0.57980290  0.75531745  0.25071624
   0.49402651  0.84522801  0.32991899
   0.40437220  0.91948740  0.41660812
   0.34367127  0.99567439  0.51026530
   0.24075654  0.06869876  0.59541830
   0.15941434  0.17140328  0.65609262
   0.06901239  0.24880150  0.74092561
   0.99104326  0.35678045  0.84430990
   0.94235286  0.43978365  0.92473525
   0.82924972  0.50618312  0.02367476
   0.73184443  0.58109941  0.08799189
   0.66579515  0.66523807  0.16655203
   0.26418376  0.23189470  0.72743129
   0.15798960  0.31620184  0.84395071
   0.08874517  0.41169130  0.93464044
   0.00641724  0.50250233  0.98793449
   0.90755365  0.57850307  0.07614552
   0.81643212  0.65045086  0.18576363
   0.74348534  0.75478988  0.25128281
   0.65548379  0.85032967  0.33402538
   0.56400720  0.91399988  0.39943543
   0.48103344  0.97661457  0.51229520
   0.43252803  0.08475834  0.61056398
   0.34150679  0.15384774  0.66161373
   0.33712820  0.16493368  0.82128158
   0.24415861  0.24717282  0.90797466
   0.15704031  0.33420284  0.00381929
   0.08761515  0.41520182  0.08269467
   0.01417783  0.52874002  0.20214551
   0.91471748  0.58807727  0.26427784
   0.83141248  0.67312665  0.34032820
   0.73819915  0.75115223  0.43576517
   0.65811043  0.84252672  0.50124935
   0.57897614  0.91606759  0.59658155
   0.50393633  0.99856190  0.67724679
   0.42186819  0.07811615  0.75129042
   0.41744060  0.09127855  0.89921462
   0.32447737  0.16807273  0.97957650
   0.24311487  0.25175885  0.08133265
   0.17787196  0.34570646  0.16796628
   0.11027851  0.41815355  0.26607339
   0.00956658  0.48756521  0.34165337
   0.93090022  0.56381413  0.41605182
   0.83168764  0.65091497  0.48481136
   0.74699126  0.73921104  0.58194797
   0.65542596  0.83389471  0.66599995
   0.57043864  0.90081047  0.73798947
   0.51600854  0.99750073  0.84880278
   0.49386430  0.01382271  0.01094114
   0.38548513  0.08299509  0.09399103
   0.34298465  0.17823193  0.15523935
   0.26330633  0.24148487  0.26096986
   0.21075295  0.33764728  0.33370933
   0.08875787  0.38534205  0.42047071
   0.02577204  0.49350443  0.49362652
   0.91862133  0.57200773  0.57117262
   0.82480348  0.65413800  0.66589920
   0.74100877  0.76976311  0.76069904
   0.66801216  0.83614495  0.84527534
   0.56942134  0.91127751  0.93668585
   0.57275077  0.91936068  0.06917482
   0.50467049  0.99435792  0.17989222
   0.43655216  0.07402030  0.22740032
   0.35067903  0.13324155  0.35173676
   0.27497061  0.24317773  0.42764031
   0.18168027  0.32697862  0.51997034
   0.08971108  0.40521405  0.56997181
   0.00523415  0.48042997  0.65454405
   0.91129053  0.60438037  0.76570347
   0.83005540  0.66343926  0.85603171
   0.75019323  0.76924871  0.90568288
   0.67576416  0.83221029  0.01773428
   0.66970773  0.84424447  0.17537403
   0.57965339  0.90536484  0.23439472
   0.49752496  0.00144285  0.32468835
   0.43026255  0.06198383  0.42870207
   0.35437675  0.15324355  0.50062064
   0.27987450  0.23133613  0.58648707
   0.15913251  0.31766097  0.67539806
   0.08965522  0.40496939  0.73963496
   0.01256281  0.50643045  0.83360292
   0.91378769  0.57790314  0.93024480
   0.82717746  0.67820701  0.99774360
   0.76917616  0.74563235  0.09057704
   0.34602482  0.33254350  0.66407265
   0.25872394  0.40536603  0.74733800
   0.16234508  0.48305082  0.81434388
   0.08242455  0.59087253  0.91544109
   0.98471297  0.67822396  0.98640783
   0.91072687  0.74997467  0.10852342
   0.81129461  0.83114040  0.16950715
   0.76237942  0.93291669  0.25667011
   0.65816274  0.00506276  0.32793478
   0.57166709  0.08785096  0.42196792
   0.49752581  0.16135191  0.50439933
   0.43513816  0.24587098  0.60647088
   0.43526791  0.24090578  0.73270107
   0.33779820  0.32358089  0.83542146
   0.24820836  0.42763700  0.89650411
   0.16495380  0.49181202  0.97674438
   0.08447396  0.60042886  0.07175843
   0.00949010  0.67539330  0.16732162
   0.91950216  0.74310850  0.26535166
   0.83556678  0.82296842  0.32713416
   0.75047688  0.89658598  0.40749808
   0.64941635  0.97741028  0.48964809
   0.58465772  0.05736417  0.55543054
   0.53472346  0.16293735  0.66680339
   0.50056136  0.15821978  0.81626209
   0.41235084  0.25148710  0.91583342
   0.30643247  0.35061786  0.99520000
   0.25181247  0.43871991  0.08245406
   0.16706742  0.50840716  0.13517290
   0.08816107  0.59086188  0.26381150
   0.02306579  0.66305859  0.33729481
   0.90871426  0.75847714  0.43184711
   0.83212767  0.83649537  0.50538558
   0.73734404  0.93652267  0.59841889
   0.65212748  0.00000197  0.65923258
   0.58232968  0.08146035  0.78459376
   0.57846900  0.06208251  0.91770410
   0.47889001  0.17142134  0.99107006
   0.40225056  0.25406786  0.09013519
   0.33307770  0.33874265  0.16389797
   0.27556692  0.43126573  0.23804044
   0.15140118  0.50979101  0.32727413
   0.08764256  0.58128010  0.41367581
   0.00628971  0.66710310  0.50074490
   0.91816522  0.74862487  0.58751845
   0.81791084  0.82774476  0.66006158
   0.75127313  0.91542267  0.75690409
   0.66351138  0.98320736  0.85263748
   0.68590513  0.00025102  0.01174893
   0.57592923  0.08979545  0.07612024
   0.48772623  0.15580630  0.16803690
   0.40782094  0.24609110  0.26113657
   0.35200885  0.33038826  0.33237976
   0.24335836  0.41470563  0.41017408
   0.17939112  0.49379238  0.48609456
   0.07709088  0.57985033  0.57866676
   0.99196163  0.66091758  0.69046148
   0.90708699  0.75335187  0.75544081
   0.83129183  0.84906655  0.81695940
   0.75982338  0.92346362  0.89346426
   0.74798702  0.94071031  0.10062194
   0.65798176  0.99994363  0.16584623
   0.59426753  0.10230411  0.24109568
   0.49916533  0.15231433  0.33882647
   0.41945507  0.23525780  0.41892997
   0.35339258  0.33150265  0.51414446
   0.23660561  0.41135553  0.58045014
   0.14925602  0.49311846  0.65266213
   0.09699157  0.57786810  0.73319270
   0.99770815  0.66939143  0.83376995
   0.89926627  0.76639036  0.90825886
   0.83339307  0.84864970  0.00987298
   0.43720975  0.41034600  0.58619650
   0.32900351  0.46777860  0.66585141
   0.24810600  0.56645591  0.74297389
   0.15401463  0.67879198  0.82326207
   0.06989822  0.76552349  0.90921755
   0.98725283  0.83944787  0.00525515
   0.91173658  0.93018636  0.10464374
   0.84505214  0.01824988  0.17434516
   0.77848231  0.07838228  0.26808259
   0.69315006  0.15618488  0.33468569
   0.57309417  0.25548378  0.39974137
   0.49120565  0.33149556  0.48267563
   0.52481549  0.33486291  0.65075052
   0.45263341  0.37836598  0.76242676
   0.35620417  0.47105734  0.81869335
   0.25052077  0.58213895  0.90870471
   0.14608314  0.66601940  0.98976476
   0.08365693  0.75308507  0.08356035
   0.00139275  0.83676423  0.18390346
   0.91901999  0.90655143  0.26858540
   0.83547939  0.01281370  0.35051602
   0.74297608  0.07083405  0.41957860
   0.64049633  0.16969078  0.49074369
   0.58135446  0.24706040  0.57561726
   0.59284107  0.24803907  0.75380369
   0.51972596  0.31614277  0.86190506
   0.43228868  0.40676782  0.92125978
   0.33332218  0.49048421  0.98767698
   0.26032189  0.58600196  0.08853354
   0.15895813  0.66157097  0.14043596
   0.08927846  0.75814560  0.23849114
   0.01312336  0.83420442  0.35067733
   0.91176692  0.89866770  0.42150704
   0.84562112  0.98585051  0.51488291
   0.71843914  0.08970801  0.58050342
   0.64028450  0.17301990  0.66485165
   0.68348978  0.16829088  0.84423131
   0.59426184  0.21339865  0.94233128
   0.49771687  0.33359214  0.01008927
   0.41411640  0.41841066  0.07526298
   0.35164589  0.49192025  0.15837415
   0.25333284  0.57935633  0.23829030
   0.19245168  0.68476170  0.32280970
   0.10759909  0.74798492  0.40804680
   0.01538688  0.81127732  0.50844585
   0.90381713  0.90816341  0.59965780
   0.84233231  0.00088110  0.67613631
   0.73468512  0.06414564  0.73446947
   0.75478950  0.07766450  0.92386143
   0.69286351  0.15933871  0.02448679
   0.57707546  0.23017410  0.10249352
   0.49484868  0.31564275  0.18799806
   0.43223861  0.41838725  0.24805542
   0.32649022  0.49874766  0.32234639
   0.24291766  0.58663865  0.41616347
   0.13955820  0.66791904  0.50474237
   0.08369864  0.74318151  0.58107597
   0.00345233  0.82333247  0.66583035
   0.92308668  0.91379796  0.73177487
   0.85057355  0.01298424  0.83497244
   0.84733876  0.00427654  0.00617388
   0.78147073  0.08366566  0.09933838
   0.68675543  0.17610788  0.17181911
   0.56280161  0.22960317  0.25746699
   0.47682075  0.31632952  0.33418834
   0.41417308  0.43195801  0.41342034
   0.34763819  0.50210378  0.49738437
   0.25436667  0.58470309  0.55415777
   0.17747456  0.67122942  0.68365620
   0.06739032  0.75194542  0.74062038
   0.99202909  0.81899639  0.81080529
   0.89614469  0.91779040  0.92283760
