 432 432   0   0
  0.2356206E+02  0.2167200E-08  0.2167200E-08  0.2167200E-08  0.5000000E-15
  1.000000000000000E-004
  CAR 
 Li                                      
      2.77297136     -3.58806224  301      0.01713295      1.00000000
     -3.588  0.0000E+00  0.0000E+00
     -3.567  0.0000E+00  0.0000E+00
     -3.546  0.0000E+00  0.0000E+00
     -3.524  0.0000E+00  0.0000E+00
     -3.503  0.0000E+00  0.0000E+00
     -3.482  0.0000E+00  0.0000E+00
     -3.461  0.1571E-13  0.3331E-15
     -3.440  0.3988E-10  0.8460E-12
     -3.418  0.3560E-07  0.7557E-09
     -3.397  0.1196E-04  0.2544E-06
     -3.376  0.1523E-02  0.3254E-04
     -3.355  0.7405E-01  0.1603E-02
     -3.334  0.1391E+01  0.3109E-01
     -3.312  0.1021E+02  0.2475E+00
     -3.291  0.2961E+02  0.8754E+00
     -3.270  0.3420E+02  0.1601E+01
     -3.249  0.1582E+02  0.1936E+01
     -3.228  0.4327E+01  0.2028E+01
     -3.206  0.1266E+02  0.2296E+01
     -3.185  0.4769E+02  0.3308E+01
     -3.164  0.8762E+02  0.5165E+01
     -3.143  0.8252E+02  0.6915E+01
     -3.122  0.4052E+02  0.7774E+01
     -3.100  0.1240E+02  0.8037E+01
     -3.079  0.1931E+02  0.8447E+01
     -3.058  0.5752E+02  0.9666E+01
     -3.037  0.9057E+02  0.1159E+02
     -3.016  0.7482E+02  0.1317E+02
     -2.994  0.3291E+02  0.1387E+02
     -2.973  0.1572E+02  0.1420E+02
     -2.952  0.3797E+02  0.1501E+02
     -2.931  0.8204E+02  0.1675E+02
     -2.910  0.1086E+03  0.1905E+02
     -2.888  0.8852E+02  0.2093E+02
     -2.867  0.4371E+02  0.2185E+02
     -2.846  0.3028E+02  0.2250E+02
     -2.825  0.6809E+02  0.2394E+02
     -2.804  0.1198E+03  0.2648E+02
     -2.782  0.1398E+03  0.2944E+02
     -2.761  0.1176E+03  0.3194E+02
     -2.740  0.6884E+02  0.3340E+02
     -2.719  0.3213E+02  0.3408E+02
     -2.698  0.3731E+02  0.3487E+02
     -2.676  0.7051E+02  0.3636E+02
     -2.655  0.8683E+02  0.3821E+02
     -2.634  0.6111E+02  0.3950E+02
     -2.613  0.3164E+02  0.4017E+02
     -2.592  0.4502E+02  0.4113E+02
     -2.570  0.9364E+02  0.4311E+02
     -2.549  0.1343E+03  0.4596E+02
     -2.528  0.1312E+03  0.4874E+02
     -2.507  0.9577E+02  0.5077E+02
     -2.485  0.6712E+02  0.5220E+02
     -2.464  0.8378E+02  0.5397E+02
     -2.443  0.1338E+03  0.5681E+02
     -2.422  0.1715E+03  0.6045E+02
     -2.401  0.1778E+03  0.6422E+02
     -2.379  0.1458E+03  0.6731E+02
     -2.358  0.8888E+02  0.6919E+02
     -2.337  0.4441E+02  0.7013E+02
     -2.316  0.5003E+02  0.7120E+02
     -2.295  0.8296E+02  0.7295E+02
     -2.273  0.8518E+02  0.7476E+02
     -2.252  0.5124E+02  0.7585E+02
     -2.231  0.4174E+02  0.7673E+02
     -2.210  0.8264E+02  0.7848E+02
     -2.189  0.1324E+03  0.8129E+02
     -2.167  0.1584E+03  0.8465E+02
     -2.146  0.1423E+03  0.8767E+02
     -2.125  0.9286E+02  0.8964E+02
     -2.104  0.7021E+02  0.9112E+02
     -2.083  0.1018E+03  0.9328E+02
     -2.061  0.1474E+03  0.9641E+02
     -2.040  0.1729E+03  0.1001E+03
     -2.019  0.1700E+03  0.1037E+03
     -1.998  0.1271E+03  0.1064E+03
     -1.977  0.7916E+02  0.1081E+03
     -1.955  0.7667E+02  0.1097E+03
     -1.934  0.1143E+03  0.1121E+03
     -1.913  0.1465E+03  0.1152E+03
     -1.892  0.1347E+03  0.1181E+03
     -1.871  0.1026E+03  0.1202E+03
     -1.849  0.1005E+03  0.1224E+03
     -1.828  0.1331E+03  0.1252E+03
     -1.807  0.1621E+03  0.1286E+03
     -1.786  0.1616E+03  0.1321E+03
     -1.765  0.1430E+03  0.1351E+03
     -1.743  0.1094E+03  0.1374E+03
     -1.722  0.9296E+02  0.1394E+03
     -1.701  0.1263E+03  0.1421E+03
     -1.680  0.1711E+03  0.1457E+03
     -1.659  0.1900E+03  0.1497E+03
     -1.637  0.1632E+03  0.1532E+03
     -1.616  0.1073E+03  0.1555E+03
     -1.595  0.7698E+02  0.1571E+03
     -1.574  0.9968E+02  0.1592E+03
     -1.553  0.1322E+03  0.1620E+03
     -1.531  0.1346E+03  0.1649E+03
     -1.510  0.1040E+03  0.1671E+03
     -1.489  0.7543E+02  0.1687E+03
     -1.468  0.8285E+02  0.1704E+03
     -1.447  0.1115E+03  0.1728E+03
     -1.425  0.1295E+03  0.1755E+03
     -1.404  0.1297E+03  0.1783E+03
     -1.383  0.1239E+03  0.1809E+03
     -1.362  0.1466E+03  0.1840E+03
     -1.340  0.1966E+03  0.1882E+03
     -1.319  0.2346E+03  0.1932E+03
     -1.298  0.2424E+03  0.1983E+03
     -1.277  0.2274E+03  0.2031E+03
     -1.256  0.1918E+03  0.2072E+03
     -1.234  0.1555E+03  0.2105E+03
     -1.213  0.1562E+03  0.2138E+03
     -1.192  0.1788E+03  0.2176E+03
     -1.171  0.1822E+03  0.2214E+03
     -1.150  0.1580E+03  0.2248E+03
     -1.128  0.1147E+03  0.2272E+03
     -1.107  0.9634E+02  0.2293E+03
     -1.086  0.1226E+03  0.2319E+03
     -1.065  0.1490E+03  0.2350E+03
     -1.044  0.1499E+03  0.2382E+03
     -1.022  0.1311E+03  0.2410E+03
     -1.001  0.1251E+03  0.2436E+03
     -0.980  0.1547E+03  0.2469E+03
     -0.959  0.1948E+03  0.2511E+03
     -0.938  0.2180E+03  0.2557E+03
     -0.916  0.2083E+03  0.2601E+03
     -0.895  0.1693E+03  0.2637E+03
     -0.874  0.1266E+03  0.2664E+03
     -0.853  0.1069E+03  0.2686E+03
     -0.832  0.9239E+02  0.2706E+03
     -0.810  0.7654E+02  0.2722E+03
     -0.789  0.9637E+02  0.2743E+03
     -0.768  0.1479E+03  0.2774E+03
     -0.747  0.1902E+03  0.2814E+03
     -0.726  0.2184E+03  0.2861E+03
     -0.704  0.2283E+03  0.2909E+03
     -0.683  0.2138E+03  0.2954E+03
     -0.662  0.1917E+03  0.2995E+03
     -0.641  0.1791E+03  0.3033E+03
     -0.620  0.1948E+03  0.3074E+03
     -0.598  0.2315E+03  0.3123E+03
     -0.577  0.2479E+03  0.3176E+03
     -0.556  0.2343E+03  0.3226E+03
     -0.535  0.2120E+03  0.3271E+03
     -0.514  0.1826E+03  0.3309E+03
     -0.492  0.1592E+03  0.3343E+03
     -0.471  0.1564E+03  0.3376E+03
     -0.450  0.1587E+03  0.3410E+03
     -0.429  0.1523E+03  0.3442E+03
     -0.408  0.1542E+03  0.3475E+03
     -0.386  0.1770E+03  0.3512E+03
     -0.365  0.2086E+03  0.3557E+03
     -0.344  0.2304E+03  0.3605E+03
     -0.323  0.2306E+03  0.3654E+03
     -0.302  0.2207E+03  0.3701E+03
     -0.280  0.2108E+03  0.3746E+03
     -0.259  0.2093E+03  0.3790E+03
     -0.238  0.2104E+03  0.3835E+03
     -0.217  0.2049E+03  0.3878E+03
     -0.196  0.1987E+03  0.3920E+03
     -0.174  0.1976E+03  0.3962E+03
     -0.153  0.1864E+03  0.4002E+03
     -0.132  0.1661E+03  0.4037E+03
     -0.111  0.1520E+03  0.4069E+03
     -0.089  0.1614E+03  0.4103E+03
     -0.068  0.1884E+03  0.4143E+03
     -0.047  0.2071E+03  0.4187E+03
     -0.026  0.2068E+03  0.4231E+03
     -0.005  0.2022E+03  0.4274E+03
      0.017  0.2106E+03  0.4319E+03
      0.038  0.2155E+03  0.4364E+03
      0.059  0.2011E+03  0.4407E+03
      0.080  0.1887E+03  0.4447E+03
      0.101  0.1980E+03  0.4489E+03
      0.123  0.2094E+03  0.4533E+03
      0.144  0.2063E+03  0.4577E+03
      0.165  0.2009E+03  0.4620E+03
      0.186  0.2112E+03  0.4665E+03
      0.207  0.2167E+03  0.4710E+03
      0.229  0.2103E+03  0.4755E+03
      0.250  0.2155E+03  0.4801E+03
      0.271  0.2312E+03  0.4850E+03
      0.292  0.2417E+03  0.4901E+03
      0.313  0.2418E+03  0.4952E+03
      0.335  0.2392E+03  0.5003E+03
      0.356  0.2419E+03  0.5054E+03
      0.377  0.2535E+03  0.5108E+03
      0.398  0.2581E+03  0.5163E+03
      0.419  0.2448E+03  0.5215E+03
      0.441  0.2364E+03  0.5265E+03
      0.462  0.2402E+03  0.5316E+03
      0.483  0.2411E+03  0.5367E+03
      0.504  0.2392E+03  0.5418E+03
      0.525  0.2343E+03  0.5467E+03
      0.547  0.2258E+03  0.5515E+03
      0.568  0.2218E+03  0.5562E+03
      0.589  0.2214E+03  0.5609E+03
      0.610  0.2274E+03  0.5657E+03
      0.631  0.2371E+03  0.5708E+03
      0.653  0.2414E+03  0.5759E+03
      0.674  0.2372E+03  0.5809E+03
      0.695  0.2259E+03  0.5857E+03
      0.716  0.2163E+03  0.5903E+03
      0.737  0.2121E+03  0.5948E+03
      0.759  0.2173E+03  0.5994E+03
      0.780  0.2250E+03  0.6042E+03
      0.801  0.2205E+03  0.6088E+03
      0.822  0.2073E+03  0.6132E+03
      0.843  0.1992E+03  0.6175E+03
      0.865  0.1939E+03  0.6216E+03
      0.886  0.1900E+03  0.6256E+03
      0.907  0.1882E+03  0.6296E+03
      0.928  0.1897E+03  0.6336E+03
      0.949  0.1900E+03  0.6376E+03
      0.971  0.1883E+03  0.6416E+03
      0.992  0.1794E+03  0.6454E+03
      1.013  0.1715E+03  0.6491E+03
      1.034  0.1734E+03  0.6528E+03
      1.055  0.1756E+03  0.6565E+03
      1.077  0.1779E+03  0.6603E+03
      1.098  0.1758E+03  0.6640E+03
      1.119  0.1696E+03  0.6676E+03
      1.140  0.1726E+03  0.6712E+03
      1.162  0.1847E+03  0.6752E+03
      1.183  0.1946E+03  0.6793E+03
      1.204  0.1957E+03  0.6834E+03
      1.225  0.1891E+03  0.6874E+03
      1.246  0.1840E+03  0.6913E+03
      1.268  0.1850E+03  0.6953E+03
      1.289  0.1903E+03  0.6993E+03
      1.310  0.1945E+03  0.7034E+03
      1.331  0.1872E+03  0.7074E+03
      1.352  0.1750E+03  0.7111E+03
      1.374  0.1690E+03  0.7147E+03
      1.395  0.1784E+03  0.7185E+03
      1.416  0.1921E+03  0.7225E+03
      1.437  0.1947E+03  0.7267E+03
      1.458  0.1960E+03  0.7308E+03
      1.480  0.1940E+03  0.7349E+03
      1.501  0.1816E+03  0.7388E+03
      1.522  0.1711E+03  0.7424E+03
      1.543  0.1735E+03  0.7461E+03
      1.564  0.1808E+03  0.7499E+03
      1.586  0.1792E+03  0.7537E+03
      1.607  0.1659E+03  0.7572E+03
      1.628  0.1578E+03  0.7606E+03
      1.649  0.1609E+03  0.7640E+03
      1.670  0.1507E+03  0.7672E+03
      1.692  0.1314E+03  0.7700E+03
      1.713  0.1220E+03  0.7726E+03
      1.734  0.1255E+03  0.7752E+03
      1.755  0.1331E+03  0.7781E+03
      1.776  0.1298E+03  0.7808E+03
      1.798  0.1245E+03  0.7834E+03
      1.819  0.1204E+03  0.7860E+03
      1.840  0.1167E+03  0.7885E+03
      1.861  0.1079E+03  0.7908E+03
      1.882  0.9213E+02  0.7927E+03
      1.904  0.7700E+02  0.7943E+03
      1.925  0.6156E+02  0.7957E+03
      1.946  0.5074E+02  0.7967E+03
      1.967  0.6463E+02  0.7981E+03
      1.988  0.9213E+02  0.8001E+03
      2.010  0.1043E+03  0.8023E+03
      2.031  0.9356E+02  0.8042E+03
      2.052  0.8392E+02  0.8060E+03
      2.073  0.9797E+02  0.8081E+03
      2.094  0.1189E+03  0.8106E+03
      2.116  0.1165E+03  0.8131E+03
      2.137  0.1086E+03  0.8154E+03
      2.158  0.1226E+03  0.8180E+03
      2.179  0.1355E+03  0.8209E+03
      2.200  0.1380E+03  0.8238E+03
      2.222  0.1491E+03  0.8270E+03
      2.243  0.1592E+03  0.8303E+03
      2.264  0.1603E+03  0.8337E+03
      2.285  0.1669E+03  0.8373E+03
      2.306  0.1684E+03  0.8408E+03
      2.328  0.1522E+03  0.8441E+03
      2.349  0.1479E+03  0.8472E+03
      2.370  0.1587E+03  0.8506E+03
      2.391  0.1675E+03  0.8541E+03
      2.413  0.1689E+03  0.8577E+03
      2.434  0.1580E+03  0.8610E+03
      2.455  0.1227E+03  0.8636E+03
      2.476  0.7320E+02  0.8652E+03
      2.497  0.2995E+02  0.8658E+03
      2.519  0.6894E+01  0.8660E+03
      2.540  0.7554E+00  0.8660E+03
      2.561  0.3560E-01  0.8660E+03
      2.582  0.6803E-03  0.8660E+03
      2.603  0.5090E-05  0.8660E+03
      2.625  0.1461E-07  0.8660E+03
      2.646  0.1590E-10  0.8660E+03
      2.667  0.7854E-14  0.8660E+03
      2.688  0.0000E+00  0.8660E+03
      2.709  0.0000E+00  0.8660E+03
      2.731  0.0000E+00  0.8660E+03
      2.752  0.0000E+00  0.8660E+03
      2.773  0.0000E+00  0.8660E+03
