 running on   64 total cores
 distrk:  each k-point on   32 cores,    2 groups
 distr:  one band on   32 cores,    1 groups
 vasp.6.2.1 16May21 (build Nov 23 2021 15:40:41) complex                        
  
 POSCAR found type information on POSCAR Li
 POSCAR found :  1 types and     432 ions
 scaLAPACK will be used
 -----------------------------------------------------------------------------
|                                                                             |
|           W    W    AA    RRRRR   N    N  II  N    N   GGGG   !!!           |
|           W    W   A  A   R    R  NN   N  II  NN   N  G    G  !!!           |
|           W    W  A    A  R    R  N N  N  II  N N  N  G       !!!           |
|           W WW W  AAAAAA  RRRRR   N  N N  II  N  N N  G  GGG   !            |
|           WW  WW  A    A  R   R   N   NN  II  N   NN  G    G                |
|           W    W  A    A  R    R  N    N  II  N    N   GGGG   !!!           |
|                                                                             |
|     For optimal performance we recommend to set                             |
|       NCORE = 2 up to number-of-cores-per-socket                            |
|     NCORE specifies how many cores store one orbital (NPAR=cpu/NCORE).      |
|     This setting can greatly improve the performance of VASP for DFT.       |
|     The default, NCORE=1 might be grossly inefficient on modern             |
|     multi-core architectures or massively parallel machines. Do your        |
|     own testing! More info at https://www.vasp.at/wiki/index.php/NCORE      |
|     Unfortunately you need to use the default for GW and RPA                |
|     calculations (for HF NCORE is supported but not extensively tested      |
|     yet).                                                                   |
|                                                                             |
 -----------------------------------------------------------------------------

 -----------------------------------------------------------------------------
|                                                                             |
|               ----> ADVICE to this user running VASP <----                  |
|                                                                             |
|     You have a (more or less) 'large supercell' and for larger cells it     |
|     might be more efficient to use real-space projection operators.         |
|     Therefore, try LREAL= Auto in the INCAR file.                           |
|     Mind: If you want to do very accurate calculations, keep the            |
|     reciprocal projection scheme (i.e. LREAL=.FALSE.).                      |
|                                                                             |
 -----------------------------------------------------------------------------

 LDA part: xc-table for Pade appr. of Perdew
 POSCAR found type information on POSCAR Li
 POSCAR found :  1 types and     432 ions
 POSCAR, INCAR and KPOINTS ok, starting setup
 FFT: planning ...
 WAVECAR not read
 entering main loop
       N       E                     dE             d eps       ncg     rms          rms(c)
DAV:   1    -0.252599896810E+03   -0.25260E+03   -0.10052E+05  3464   0.641E+02
DAV:   2    -0.739090751558E+03   -0.48649E+03   -0.44399E+03  3980   0.635E+01
DAV:   3    -0.776101400639E+03   -0.37011E+02   -0.34033E+02  4496   0.138E+01
DAV:   4    -0.777430713630E+03   -0.13293E+01   -0.13110E+01  4072   0.288E+00
DAV:   5    -0.777463315829E+03   -0.32602E-01   -0.32549E-01  4256   0.471E-01    0.102E+01
DAV:   6    -0.766569532201E+03    0.10894E+02   -0.13149E+01  4080   0.440E+00    0.633E+00
DAV:   7    -0.764541235582E+03    0.20283E+01   -0.10389E+01  4136   0.447E+00    0.510E+00
DAV:   8    -0.760968934033E+03    0.35723E+01   -0.63662E+00  4088   0.274E+00    0.230E+00
DAV:   9    -0.760695946540E+03    0.27299E+00   -0.33958E+00  3872   0.145E+00    0.124E+00
DAV:  10    -0.760767801995E+03   -0.71855E-01   -0.71374E-01  4096   0.896E-01    0.108E+00
DAV:  11    -0.760638630645E+03    0.12917E+00   -0.26400E-01  4064   0.568E-01    0.537E-01
DAV:  12    -0.760633456868E+03    0.51738E-02   -0.82072E-02  3832   0.230E-01    0.260E-01
DAV:  13    -0.760635528356E+03   -0.20715E-02   -0.15784E-02  4224   0.147E-01    0.193E-01
DAV:  14    -0.760631757672E+03    0.37707E-02   -0.60370E-03  4088   0.102E-01    0.972E-02
DAV:  15    -0.760631299372E+03    0.45830E-03   -0.21510E-03  3952   0.488E-02    0.507E-02
DAV:  16    -0.760631296904E+03    0.24680E-05   -0.86902E-04  3944   0.301E-02    0.305E-02
DAV:  17    -0.760631203818E+03    0.93086E-04   -0.28680E-04  4024   0.191E-02    0.176E-02
DAV:  18    -0.760631183945E+03    0.19873E-04   -0.73894E-05  3840   0.833E-03    0.803E-03
DAV:  19    -0.760631180747E+03    0.31977E-05   -0.18288E-05  2560   0.461E-03
   1 F= -.76063118E+03 E0= -.76058255E+03  d E =-.972605E-01
