Li                                      
           1
    21.672000    0.000000    0.000000
     0.000000   21.672000    0.000000
     0.000000    0.000000   21.672000
   Li
   432
Direct configuration=     1
   0.98677552  0.98604258  0.97099742
   0.92573752  0.10473640  0.06581525
   0.83972475  0.16745052  0.14422054
   0.76525761  0.26286752  0.27867395
   0.68483957  0.34003319  0.35805624
   0.57234600  0.41722592  0.40765133
   0.50349198  0.48265357  0.50368524
   0.40954573  0.59307092  0.58749464
   0.34984472  0.65471578  0.65480275
   0.23790516  0.73188180  0.76072146
   0.17536256  0.82029049  0.82801593
   0.08060123  0.91175055  0.91846379
   0.05527098  0.87883597  0.05829762
   0.00451566  0.00938275  0.16355783
   0.90807724  0.08119779  0.25692775
   0.83755310  0.17113890  0.31305475
   0.75636653  0.23273841  0.44456594
   0.68518802  0.34204987  0.50589389
   0.58812746  0.40914622  0.59696992
   0.47038101  0.48138781  0.63517738
   0.39827253  0.54932873  0.74733905
   0.33714532  0.63850613  0.81230706
   0.23742482  0.71797124  0.89401921
   0.16798937  0.83689494  0.96427689
   0.17195149  0.87534948  0.16725299
   0.09265761  0.91096723  0.23249716
   0.98736922  0.00836414  0.33020669
   0.90933961  0.09743131  0.40957314
   0.80719330  0.18735869  0.51635049
   0.71502392  0.24841239  0.59504487
   0.67487853  0.32744346  0.68747843
   0.56802685  0.44715044  0.74736992
   0.48461424  0.49715669  0.82609433
   0.43061074  0.56948898  0.89282783
   0.34336965  0.64123314  0.99838838
   0.21939204  0.77381585  0.08631807
   0.23654755  0.75444228  0.24189012
   0.17758929  0.82484470  0.35911897
   0.04759601  0.90583170  0.39968234
   0.97690157  0.99924549  0.48545463
   0.92488736  0.06222990  0.58857811
   0.83405509  0.17445409  0.64053920
   0.76288257  0.26781920  0.72451685
   0.65933790  0.32851985  0.81439603
   0.58298638  0.42851584  0.92308898
   0.49018067  0.50515483  0.01665286
   0.41188510  0.58653409  0.10227684
   0.32090943  0.66807651  0.16733702
   0.32053963  0.67030770  0.31902254
   0.26421645  0.74409438  0.42320810
   0.18354776  0.83556241  0.52772309
   0.04418370  0.92578174  0.58243805
   0.98661265  0.99327105  0.71361612
   0.94710510  0.09980082  0.74781625
   0.82599515  0.16607863  0.82036592
   0.73092110  0.25878444  0.90232168
   0.69790530  0.31207757  0.01276110
   0.61126894  0.40200742  0.06592805
   0.50941587  0.50889014  0.19296013
   0.42270614  0.59590112  0.24187137
   0.44030792  0.61904474  0.39546107
   0.32213836  0.65956980  0.47621705
   0.26347377  0.73153261  0.61008174
   0.18552389  0.86439245  0.67624387
   0.08387598  0.90806446  0.76980829
   0.98845627  0.97276008  0.82144850
   0.93308197  0.12022912  0.90707475
   0.82418546  0.19212021  0.99422916
   0.76570165  0.28386925  0.11398593
   0.68587603  0.32919078  0.16605233
   0.60734372  0.38651409  0.22271983
   0.50120895  0.47387094  0.34141730
   0.07510898  0.07750046  0.89415024
   0.02643042  0.18503105  0.99202641
   0.94216483  0.23249700  0.09777590
   0.85508967  0.31666768  0.16980498
   0.79662788  0.40055592  0.23920540
   0.67518432  0.47691532  0.32782572
   0.59285992  0.60632329  0.41756707
   0.51223699  0.67600716  0.51249353
   0.41830467  0.73548402  0.59904211
   0.33070140  0.80211682  0.67176986
   0.27856523  0.90311919  0.74247061
   0.17794179  0.95999117  0.83200961
   0.18452702  0.98745022  0.00608244
   0.06993483  0.07098511  0.07030451
   0.01288711  0.14950451  0.19250887
   0.91155183  0.23241521  0.26227576
   0.85217194  0.31918154  0.34590440
   0.74412749  0.42585477  0.42059948
   0.67620705  0.48302638  0.47703023
   0.59263625  0.56703457  0.57422915
   0.49465626  0.64962151  0.66712543
   0.41957013  0.72758687  0.77147173
   0.34856124  0.82310095  0.85313494
   0.25329224  0.89519043  0.91311940
   0.28258685  0.90531501  0.06767035
   0.17256531  0.97880995  0.14786760
   0.09225995  0.06781338  0.25589253
   0.01976993  0.16264421  0.32313344
   0.90813233  0.23205819  0.40787092
   0.85821490  0.31303095  0.49125665
   0.78465455  0.40893994  0.57554892
   0.70352476  0.49148822  0.63652526
   0.58428851  0.56841437  0.71768873
   0.51137144  0.63880584  0.84376750
   0.41605551  0.72478102  0.92242541
   0.34047748  0.83087032  0.97900965
   0.32703685  0.83967408  0.15498038
   0.23772822  0.89027509  0.24557475
   0.13295563  0.97767127  0.35398702
   0.07030045  0.06189001  0.42052732
   0.97212032  0.18175812  0.50737837
   0.93844689  0.28306642  0.59002416
   0.82869973  0.35217677  0.67108479
   0.74010206  0.42019400  0.74482129
   0.66728198  0.49371791  0.82898563
   0.58421088  0.54937062  0.89992531
   0.52293113  0.67376633  0.01043855
   0.40761077  0.74634168  0.10656107
   0.41421104  0.75160207  0.22334826
   0.36288339  0.80296502  0.32854889
   0.27070924  0.90331798  0.41529376
   0.14411361  0.96425816  0.51861748
   0.07011164  0.05962776  0.58048843
   0.00893845  0.17212625  0.63277180
   0.89911954  0.26950648  0.74256489
   0.82980635  0.35196369  0.83165311
   0.74385499  0.41656507  0.92782678
   0.67184262  0.49779441  0.02402937
   0.61001145  0.56683548  0.08263313
   0.51984660  0.62376176  0.15192594
   0.52109598  0.67981660  0.32102439
   0.42414412  0.74967981  0.39604373
   0.35275070  0.81442304  0.50259777
   0.25574188  0.90788423  0.56207830
   0.17464074  0.98589356  0.68226328
   0.10831898  0.06189777  0.73501663
   0.02457369  0.15621947  0.78180483
   0.93500028  0.24315883  0.89899781
   0.85266307  0.32774894  0.99281635
   0.75894768  0.41599950  0.06764177
   0.67589221  0.51639070  0.17028579
   0.59082448  0.57221504  0.27030842
   0.17567420  0.16213638  0.83314662
   0.09027710  0.21793735  0.89141830
   0.99918010  0.31193255  0.99478626
   0.91971233  0.41233265  0.09634434
   0.84440020  0.50156767  0.19366062
   0.76586818  0.59222242  0.24690854
   0.67463999  0.67516700  0.34626610
   0.56921383  0.73686018  0.42999481
   0.52515274  0.80695786  0.51050535
   0.40571277  0.89968930  0.58591445
   0.34560226  0.99922169  0.68264191
   0.27426835  0.08084305  0.76842817
   0.25015073  0.07301767  0.90673618
   0.15884814  0.15070811  0.99682386
   0.09886265  0.24879729  0.10878454
   0.01455137  0.30822557  0.17020748
   0.94148856  0.39524083  0.27079832
   0.83030915  0.51350325  0.35613883
   0.74650692  0.59464289  0.42689202
   0.65261050  0.63465430  0.49805734
   0.58326923  0.70355970  0.61203982
   0.48026563  0.80584093  0.68346815
   0.43836413  0.91420456  0.78962063
   0.34237662  0.02146072  0.82815945
   0.31305682  0.00960717  0.98904164
   0.26999795  0.09065366  0.07235860
   0.18919346  0.15830876  0.16288316
   0.10056278  0.24125258  0.27273399
   0.00487003  0.31875960  0.34029978
   0.94917864  0.40614503  0.43572121
   0.83421795  0.51861553  0.49135220
   0.76015252  0.58704749  0.56549093
   0.69665327  0.64295328  0.67348150
   0.59687606  0.73428326  0.74351352
   0.51918597  0.82877500  0.83108575
   0.42712664  0.92415473  0.91074566
   0.42607995  0.94799607  0.05586396
   0.32332181  0.99715711  0.18863571
   0.22846872  0.06483821  0.28423514
   0.15850595  0.15705467  0.35556610
   0.08193815  0.23897107  0.40744535
   0.00629655  0.31887204  0.46893790
   0.93955812  0.41574145  0.57328269
   0.84127407  0.51250800  0.65562123
   0.72888525  0.59183183  0.73547296
   0.64686597  0.63640743  0.83866586
   0.57441269  0.76288601  0.91343465
   0.50328776  0.83547892  0.99480090
   0.50665715  0.82882180  0.15429130
   0.43092362  0.90649187  0.21874517
   0.35992384  0.97619407  0.33239186
   0.25943797  0.05390558  0.42528834
   0.17082963  0.15890453  0.49947354
   0.10116051  0.25426977  0.56272663
   0.03070217  0.30602933  0.68018589
   0.92943588  0.43207672  0.71752723
   0.84570198  0.52753217  0.83143408
   0.72678194  0.57105319  0.92318357
   0.66759703  0.65641787  0.99716758
   0.60214401  0.74925693  0.09453192
   0.61403572  0.77334228  0.19907693
   0.51503424  0.81078883  0.30600181
   0.45026245  0.90239591  0.44241218
   0.38432454  0.00981882  0.48147026
   0.23592030  0.04696441  0.58087419
   0.19091047  0.15008709  0.66600753
   0.11688436  0.23956963  0.75642528
   0.00678899  0.34322466  0.80953818
   0.93492978  0.41492666  0.91407140
   0.86539678  0.49261446  0.99276345
   0.76675514  0.57274416  0.05749713
   0.67700300  0.65877720  0.18080467
   0.25528372  0.24592524  0.76316090
   0.16832586  0.32685325  0.83555923
   0.05657431  0.40031515  0.94336516
   0.98099254  0.49181527  0.00635078
   0.91947356  0.57659778  0.10456021
   0.82293948  0.68862625  0.16948228
   0.74014876  0.75124592  0.25641342
   0.65722217  0.83554597  0.35067513
   0.56419511  0.92375630  0.39192133
   0.49801832  0.99039010  0.52125977
   0.40777734  0.09332224  0.60388174
   0.31422050  0.16501628  0.70228711
   0.32725933  0.17096564  0.85776960
   0.21864345  0.25632313  0.95259735
   0.12282498  0.33775085  0.01938495
   0.06021365  0.41443654  0.08072290
   0.01493544  0.50606236  0.20176788
   0.91853004  0.62760179  0.26059971
   0.83182895  0.65545273  0.35979890
   0.71813369  0.74663832  0.43025872
   0.64024455  0.82720780  0.52487409
   0.56389496  0.91481370  0.60442329
   0.48912798  0.01579380  0.69156845
   0.41205932  0.07474136  0.76174350
   0.41418702  0.09912856  0.93386005
   0.34637668  0.13242834  0.97613615
   0.23562215  0.23932362  0.08367169
   0.15954989  0.31369537  0.17610740
   0.09514089  0.38961541  0.26507095
   0.99011230  0.47345696  0.33801769
   0.92087262  0.59731110  0.42063840
   0.83579609  0.69082199  0.48237792
   0.73178713  0.74296314  0.56008495
   0.65949346  0.81304855  0.67255540
   0.60031812  0.92175197  0.73057203
   0.52527513  0.03002631  0.81708492
   0.48937233  0.03892919  0.99126395
   0.41606739  0.07665891  0.10530766
   0.31257724  0.16615546  0.19248457
   0.21913807  0.27196342  0.27153966
   0.18150352  0.34720655  0.35741183
   0.08314523  0.41285752  0.43108332
   0.97621825  0.48017867  0.51913895
   0.91683322  0.59714656  0.57466943
   0.78659875  0.71652135  0.66272320
   0.73669266  0.79108454  0.77916082
   0.67002106  0.85061711  0.84728184
   0.58279740  0.92938783  0.90956441
   0.60393895  0.96274909  0.05331403
   0.48769436  0.00731501  0.15165227
   0.42870177  0.06748630  0.22539334
   0.32359390  0.13935324  0.31756234
   0.25215263  0.21936679  0.40997578
   0.17640571  0.29660900  0.47307648
   0.08360590  0.37333981  0.58180440
   0.01013893  0.48228632  0.64887750
   0.89450462  0.63662401  0.73035504
   0.77895391  0.65958395  0.84482207
   0.73915338  0.72660080  0.92656074
   0.66436060  0.86385820  0.99108695
   0.69157475  0.87426860  0.12650349
   0.60759314  0.93000400  0.22794390
   0.51313138  0.97119405  0.30249066
   0.44213781  0.07037186  0.41372207
   0.34291340  0.16037153  0.52630107
   0.26680118  0.24433134  0.57783933
   0.15804900  0.31093995  0.68397228
   0.09115702  0.42414792  0.71686804
   0.01003853  0.49909459  0.80507194
   0.92244633  0.58385987  0.90216359
   0.84036039  0.66023885  0.00154523
   0.72643992  0.74437801  0.06351552
   0.34223714  0.31847754  0.68247521
   0.24133667  0.42128615  0.76903381
   0.11130903  0.49374792  0.81567274
   0.09026456  0.57820429  0.93058539
   0.99202899  0.67432199  0.01033219
   0.93884072  0.77223207  0.08251000
   0.80742220  0.83847748  0.17854649
   0.73291929  0.91868791  0.26429264
   0.66757245  0.03355953  0.33632741
   0.59283516  0.09510424  0.44214776
   0.48945482  0.18568720  0.51311302
   0.39497831  0.24422038  0.56062806
   0.39017427  0.26129714  0.78127848
   0.30706444  0.35346475  0.85203255
   0.22598239  0.42323834  0.94979376
   0.13708234  0.50319664  0.99186795
   0.08778805  0.57930541  0.06553891
   0.00593126  0.67717974  0.16550775
   0.91079698  0.77039652  0.23958343
   0.82161597  0.82123791  0.35490560
   0.72848013  0.93277281  0.41428572
   0.65239333  0.00773985  0.50721490
   0.58320985  0.08925050  0.59246312
   0.47759025  0.18384510  0.68173980
   0.50908596  0.18341178  0.81305247
   0.42427902  0.26212691  0.91650363
   0.33949829  0.34441542  0.02209629
   0.25064181  0.41955564  0.08162490
   0.15693788  0.51220381  0.17096128
   0.07926203  0.59805805  0.28815386
   0.01118312  0.71599058  0.36072569
   0.91587349  0.76128968  0.42433850
   0.78263434  0.84278057  0.51534603
   0.72536170  0.92437815  0.57585837
   0.68456333  0.00297656  0.68614297
   0.59780767  0.11975629  0.73595116
   0.60483154  0.11667032  0.90518418
   0.50642857  0.16468484  0.02027077
   0.37039185  0.24458462  0.06820262
   0.31388650  0.33482597  0.16802769
   0.25620694  0.40758260  0.26501692
   0.15237383  0.51316180  0.35818826
   0.06372243  0.60512941  0.41954745
   0.99294979  0.69585308  0.53845147
   0.88767537  0.77277601  0.61458322
   0.80027544  0.84247811  0.67810196
   0.75196665  0.93853607  0.75774841
   0.68050795  0.04823063  0.82413916
   0.70459662  0.02067960  0.98047404
   0.60433506  0.06635998  0.08859944
   0.48258876  0.17680262  0.15010169
   0.40143154  0.25606058  0.25619723
   0.34849100  0.33392374  0.35458044
   0.23908633  0.40070125  0.40100131
   0.17269053  0.49580329  0.49167757
   0.08013422  0.56705923  0.57817066
   0.00946185  0.70488731  0.66118825
   0.88478303  0.73519972  0.76396095
   0.83374763  0.83956365  0.86048462
   0.75893340  0.91914172  0.91220847
   0.76541573  0.92522070  0.03949752
   0.68819197  0.01378830  0.16446237
   0.56217218  0.06419986  0.21988883
   0.51276623  0.15040906  0.32567078
   0.42929384  0.26210101  0.41867609
   0.31607938  0.33170862  0.48161425
   0.26389988  0.40547530  0.56999146
   0.17977767  0.50678790  0.64961346
   0.06392825  0.57335058  0.71002335
   0.99867116  0.65048603  0.83007046
   0.88694439  0.73014807  0.91823370
   0.80666553  0.82332738  0.97992633
   0.38936722  0.39304882  0.57176435
   0.30602294  0.49301868  0.66955899
   0.25189954  0.58455408  0.75637570
   0.12787830  0.64631570  0.81842441
   0.07632821  0.75117523  0.90400606
   0.97717816  0.81226419  0.97234508
   0.92880280  0.93856388  0.08050918
   0.83653420  0.99571933  0.17081656
   0.76269742  0.10717318  0.25229082
   0.67163571  0.17679606  0.29184117
   0.60517609  0.26548480  0.43312705
   0.49995698  0.34896342  0.48396981
   0.48103303  0.35667712  0.66103612
   0.39132342  0.42835782  0.77054664
   0.30592711  0.50702734  0.85004792
   0.22784565  0.57941599  0.88885616
   0.15678740  0.66647724  0.98018468
   0.09815897  0.78000632  0.09809396
   0.98981823  0.83847945  0.16259944
   0.90866009  0.92829106  0.26145421
   0.81552074  0.99054491  0.35523653
   0.74337828  0.10700109  0.44502945
   0.65745993  0.18555088  0.52539155
   0.58538965  0.28820265  0.60108764
   0.56012950  0.25900035  0.73181022
   0.50491929  0.34643654  0.83938315
   0.39822023  0.42434101  0.89870454
   0.29886496  0.52448116  0.02183277
   0.23633226  0.58978810  0.10231524
   0.15262532  0.69070605  0.14774148
   0.09108589  0.77965173  0.26541999
   0.99146784  0.83490649  0.31506789
   0.89181824  0.90195025  0.40656633
   0.85970318  0.01188934  0.50663489
   0.74500595  0.07475467  0.57487663
   0.66803332  0.15662643  0.65934153
   0.64840313  0.20942729  0.81805040
   0.57325267  0.25461560  0.92833303
   0.49373967  0.35118052  0.00524227
   0.41469050  0.45034440  0.07730726
   0.31690239  0.51932205  0.17297303
   0.21670678  0.60514994  0.25378766
   0.13735210  0.70043221  0.35598902
   0.06654804  0.76077453  0.44964339
   0.96120894  0.83744143  0.50777249
   0.91114074  0.91735928  0.58461748
   0.83561626  0.02412612  0.69833923
   0.75874838  0.08890240  0.74275215
   0.76270817  0.09649745  0.91169126
   0.68666024  0.16834257  0.01059415
   0.58522580  0.26253549  0.09723379
   0.46097504  0.33590519  0.14906200
   0.41884573  0.44839782  0.24175890
   0.32643894  0.50196014  0.32531586
   0.23555310  0.59431751  0.39959569
   0.17100460  0.68254248  0.47569772
   0.10970324  0.78488381  0.57937335
   0.99257432  0.83588163  0.70781769
   0.91140755  0.91849793  0.75665356
   0.83475379  0.02847190  0.84147577
   0.87220470  0.01854986  0.97628120
   0.77522464  0.07576240  0.05257582
   0.65315767  0.17672811  0.16119577
   0.56451501  0.26568156  0.22983400
   0.50018575  0.32764674  0.32559212
   0.40534646  0.40766253  0.40323552
   0.34638826  0.49383598  0.49392982
   0.27738333  0.58213630  0.55110212
   0.18216255  0.66529285  0.67631813
   0.10863516  0.75029589  0.76320179
   0.00179292  0.80766404  0.83780066
   0.90885978  0.90859813  0.89805965
