 504 504   0   0
  0.2106490E+02  0.2170700E-08  0.2148436E-08  0.2276500E-08  0.5000000E-15
  1.000000000000000E-004
  CAR 
 Li                                      
      3.34711763     -3.48622155  301      0.30559859      1.00000000
     -3.486  0.0000E+00  0.0000E+00
     -3.463  0.0000E+00  0.0000E+00
     -3.441  0.0000E+00  0.0000E+00
     -3.418  0.0000E+00  0.0000E+00
     -3.395  0.0000E+00  0.0000E+00
     -3.372  0.0000E+00  0.0000E+00
     -3.350  0.9748E-14  0.2220E-15
     -3.327  0.4328E-10  0.9861E-12
     -3.304  0.6021E-07  0.1372E-08
     -3.281  0.2715E-04  0.6198E-06
     -3.258  0.4005E-02  0.9184E-04
     -3.236  0.1956E+00  0.4548E-02
     -3.213  0.3215E+01  0.7778E-01
     -3.190  0.1811E+02  0.4902E+00
     -3.167  0.3550E+02  0.1299E+01
     -3.145  0.2445E+02  0.1856E+01
     -3.122  0.6805E+01  0.2011E+01
     -3.099  0.1110E+02  0.2263E+01
     -3.076  0.4782E+02  0.3353E+01
     -3.053  0.9258E+02  0.5461E+01
     -3.031  0.7886E+02  0.7258E+01
     -3.008  0.2888E+02  0.7916E+01
     -2.985  0.1138E+02  0.8175E+01
     -2.962  0.3985E+02  0.9083E+01
     -2.940  0.8813E+02  0.1109E+02
     -2.917  0.8530E+02  0.1303E+02
     -2.894  0.3765E+02  0.1389E+02
     -2.871  0.2053E+02  0.1436E+02
     -2.848  0.4912E+02  0.1548E+02
     -2.826  0.9261E+02  0.1759E+02
     -2.803  0.1091E+03  0.2007E+02
     -2.780  0.6723E+02  0.2160E+02
     -2.757  0.3207E+02  0.2233E+02
     -2.735  0.6527E+02  0.2382E+02
     -2.712  0.1311E+03  0.2681E+02
     -2.689  0.1574E+03  0.3039E+02
     -2.666  0.1119E+03  0.3294E+02
     -2.643  0.4269E+02  0.3391E+02
     -2.621  0.2677E+02  0.3452E+02
     -2.598  0.6567E+02  0.3602E+02
     -2.575  0.9414E+02  0.3816E+02
     -2.552  0.6731E+02  0.3970E+02
     -2.530  0.4416E+02  0.4070E+02
     -2.507  0.6062E+02  0.4208E+02
     -2.484  0.8939E+02  0.4412E+02
     -2.461  0.1189E+03  0.4683E+02
     -2.438  0.1302E+03  0.4979E+02
     -2.416  0.1088E+03  0.5227E+02
     -2.393  0.9989E+02  0.5455E+02
     -2.370  0.1219E+03  0.5732E+02
     -2.347  0.1689E+03  0.6117E+02
     -2.325  0.1911E+03  0.6552E+02
     -2.302  0.1400E+03  0.6871E+02
     -2.279  0.7799E+02  0.7049E+02
     -2.256  0.5023E+02  0.7163E+02
     -2.233  0.4624E+02  0.7269E+02
     -2.211  0.6687E+02  0.7421E+02
     -2.188  0.6707E+02  0.7574E+02
     -2.165  0.6673E+02  0.7726E+02
     -2.142  0.1026E+03  0.7959E+02
     -2.120  0.1399E+03  0.8278E+02
     -2.097  0.1543E+03  0.8630E+02
     -2.074  0.1394E+03  0.8947E+02
     -2.051  0.1116E+03  0.9201E+02
     -2.028  0.1061E+03  0.9443E+02
     -2.006  0.1260E+03  0.9730E+02
     -1.983  0.1676E+03  0.1011E+03
     -1.960  0.2081E+03  0.1059E+03
     -1.937  0.1730E+03  0.1098E+03
     -1.915  0.7988E+02  0.1116E+03
     -1.892  0.3079E+02  0.1123E+03
     -1.869  0.6369E+02  0.1138E+03
     -1.846  0.1269E+03  0.1167E+03
     -1.823  0.1453E+03  0.1200E+03
     -1.801  0.1318E+03  0.1230E+03
     -1.778  0.1440E+03  0.1263E+03
     -1.755  0.1615E+03  0.1299E+03
     -1.732  0.1743E+03  0.1339E+03
     -1.710  0.1824E+03  0.1381E+03
     -1.687  0.1502E+03  0.1415E+03
     -1.664  0.1148E+03  0.1441E+03
     -1.641  0.1240E+03  0.1469E+03
     -1.618  0.1524E+03  0.1504E+03
     -1.596  0.1739E+03  0.1543E+03
     -1.573  0.1562E+03  0.1579E+03
     -1.550  0.1124E+03  0.1605E+03
     -1.527  0.9260E+02  0.1626E+03
     -1.505  0.1042E+03  0.1650E+03
     -1.482  0.1099E+03  0.1675E+03
     -1.459  0.9798E+02  0.1697E+03
     -1.436  0.1102E+03  0.1722E+03
     -1.413  0.1452E+03  0.1755E+03
     -1.391  0.1470E+03  0.1789E+03
     -1.368  0.1395E+03  0.1820E+03
     -1.345  0.1607E+03  0.1857E+03
     -1.322  0.1751E+03  0.1897E+03
     -1.300  0.1677E+03  0.1935E+03
     -1.277  0.1778E+03  0.1975E+03
     -1.254  0.2105E+03  0.2023E+03
     -1.231  0.2393E+03  0.2078E+03
     -1.208  0.2297E+03  0.2130E+03
     -1.186  0.1963E+03  0.2175E+03
     -1.163  0.1750E+03  0.2215E+03
     -1.140  0.1634E+03  0.2252E+03
     -1.117  0.1445E+03  0.2285E+03
     -1.095  0.1125E+03  0.2311E+03
     -1.072  0.9114E+02  0.2331E+03
     -1.049  0.1274E+03  0.2360E+03
     -1.026  0.1672E+03  0.2398E+03
     -1.003  0.1555E+03  0.2434E+03
     -0.981  0.1415E+03  0.2466E+03
     -0.958  0.1604E+03  0.2503E+03
     -0.935  0.1882E+03  0.2545E+03
     -0.912  0.2113E+03  0.2594E+03
     -0.890  0.1979E+03  0.2639E+03
     -0.867  0.1609E+03  0.2675E+03
     -0.844  0.1289E+03  0.2705E+03
     -0.821  0.1202E+03  0.2732E+03
     -0.798  0.1616E+03  0.2769E+03
     -0.776  0.1774E+03  0.2809E+03
     -0.753  0.1433E+03  0.2842E+03
     -0.730  0.1396E+03  0.2874E+03
     -0.707  0.1673E+03  0.2912E+03
     -0.685  0.1990E+03  0.2957E+03
     -0.662  0.2348E+03  0.3011E+03
     -0.639  0.2399E+03  0.3065E+03
     -0.616  0.2183E+03  0.3115E+03
     -0.593  0.2045E+03  0.3162E+03
     -0.571  0.2150E+03  0.3211E+03
     -0.548  0.2366E+03  0.3264E+03
     -0.525  0.2327E+03  0.3317E+03
     -0.502  0.2108E+03  0.3365E+03
     -0.480  0.1691E+03  0.3404E+03
     -0.457  0.1334E+03  0.3434E+03
     -0.434  0.1530E+03  0.3469E+03
     -0.411  0.1876E+03  0.3512E+03
     -0.388  0.1800E+03  0.3553E+03
     -0.366  0.1498E+03  0.3587E+03
     -0.343  0.1655E+03  0.3625E+03
     -0.320  0.2014E+03  0.3671E+03
     -0.297  0.2019E+03  0.3717E+03
     -0.275  0.1892E+03  0.3760E+03
     -0.252  0.1918E+03  0.3803E+03
     -0.229  0.1988E+03  0.3849E+03
     -0.206  0.2106E+03  0.3897E+03
     -0.183  0.2386E+03  0.3951E+03
     -0.161  0.2755E+03  0.4014E+03
     -0.138  0.2911E+03  0.4080E+03
     -0.115  0.2635E+03  0.4140E+03
     -0.092  0.2064E+03  0.4187E+03
     -0.070  0.1811E+03  0.4228E+03
     -0.047  0.1998E+03  0.4274E+03
     -0.024  0.2105E+03  0.4322E+03
     -0.001  0.2066E+03  0.4369E+03
      0.022  0.2096E+03  0.4417E+03
      0.044  0.2133E+03  0.4465E+03
      0.067  0.2077E+03  0.4513E+03
      0.090  0.1912E+03  0.4556E+03
      0.113  0.1784E+03  0.4597E+03
      0.135  0.1835E+03  0.4639E+03
      0.158  0.1925E+03  0.4682E+03
      0.181  0.1878E+03  0.4725E+03
      0.204  0.1891E+03  0.4768E+03
      0.227  0.2189E+03  0.4818E+03
      0.249  0.2576E+03  0.4877E+03
      0.272  0.2821E+03  0.4941E+03
      0.295  0.2945E+03  0.5008E+03
      0.318  0.2990E+03  0.5076E+03
      0.340  0.3041E+03  0.5145E+03
      0.363  0.3044E+03  0.5215E+03
      0.386  0.2984E+03  0.5283E+03
      0.409  0.3049E+03  0.5352E+03
      0.432  0.3128E+03  0.5423E+03
      0.454  0.2986E+03  0.5491E+03
      0.477  0.2766E+03  0.5554E+03
      0.500  0.2470E+03  0.5611E+03
      0.523  0.2263E+03  0.5662E+03
      0.545  0.2372E+03  0.5716E+03
      0.568  0.2536E+03  0.5774E+03
      0.591  0.2473E+03  0.5830E+03
      0.614  0.2231E+03  0.5881E+03
      0.637  0.1985E+03  0.5926E+03
      0.659  0.2033E+03  0.5973E+03
      0.682  0.2173E+03  0.6022E+03
      0.705  0.2213E+03  0.6073E+03
      0.728  0.2189E+03  0.6122E+03
      0.750  0.2099E+03  0.6170E+03
      0.773  0.1996E+03  0.6216E+03
      0.796  0.2002E+03  0.6261E+03
      0.819  0.1964E+03  0.6306E+03
      0.842  0.1943E+03  0.6350E+03
      0.864  0.2110E+03  0.6398E+03
      0.887  0.2313E+03  0.6451E+03
      0.910  0.2516E+03  0.6508E+03
      0.933  0.2660E+03  0.6569E+03
      0.955  0.2619E+03  0.6629E+03
      0.978  0.2488E+03  0.6685E+03
      1.001  0.2446E+03  0.6741E+03
      1.024  0.2545E+03  0.6799E+03
      1.047  0.2518E+03  0.6856E+03
      1.069  0.2283E+03  0.6908E+03
      1.092  0.2147E+03  0.6957E+03
      1.115  0.2244E+03  0.7008E+03
      1.138  0.2336E+03  0.7062E+03
      1.160  0.2343E+03  0.7115E+03
      1.183  0.2390E+03  0.7169E+03
      1.206  0.2483E+03  0.7226E+03
      1.229  0.2369E+03  0.7280E+03
      1.252  0.2092E+03  0.7328E+03
      1.274  0.1910E+03  0.7371E+03
      1.297  0.1852E+03  0.7413E+03
      1.320  0.1927E+03  0.7457E+03
      1.343  0.2086E+03  0.7505E+03
      1.365  0.2193E+03  0.7555E+03
      1.388  0.2287E+03  0.7607E+03
      1.411  0.2348E+03  0.7660E+03
      1.434  0.2306E+03  0.7713E+03
      1.457  0.2236E+03  0.7764E+03
      1.479  0.2303E+03  0.7816E+03
      1.502  0.2375E+03  0.7870E+03
      1.525  0.2241E+03  0.7921E+03
      1.548  0.2081E+03  0.7969E+03
      1.570  0.2126E+03  0.8017E+03
      1.593  0.2267E+03  0.8069E+03
      1.616  0.2367E+03  0.8123E+03
      1.639  0.2497E+03  0.8179E+03
      1.662  0.2531E+03  0.8237E+03
      1.684  0.2440E+03  0.8293E+03
      1.707  0.2261E+03  0.8344E+03
      1.730  0.2105E+03  0.8392E+03
      1.753  0.2013E+03  0.8438E+03
      1.775  0.2008E+03  0.8484E+03
      1.798  0.2076E+03  0.8531E+03
      1.821  0.2043E+03  0.8578E+03
      1.844  0.1932E+03  0.8622E+03
      1.867  0.1836E+03  0.8663E+03
      1.889  0.1822E+03  0.8705E+03
      1.912  0.1887E+03  0.8748E+03
      1.935  0.1945E+03  0.8792E+03
      1.958  0.1911E+03  0.8836E+03
      1.980  0.1913E+03  0.8879E+03
      2.003  0.1941E+03  0.8924E+03
      2.026  0.1865E+03  0.8966E+03
      2.049  0.1747E+03  0.9006E+03
      2.072  0.1551E+03  0.9041E+03
      2.094  0.1492E+03  0.9075E+03
      2.117  0.1554E+03  0.9110E+03
      2.140  0.1432E+03  0.9143E+03
      2.163  0.1339E+03  0.9174E+03
      2.185  0.1497E+03  0.9208E+03
      2.208  0.1734E+03  0.9247E+03
      2.231  0.1748E+03  0.9287E+03
      2.254  0.1575E+03  0.9323E+03
      2.277  0.1439E+03  0.9356E+03
      2.299  0.1361E+03  0.9387E+03
      2.322  0.1336E+03  0.9417E+03
      2.345  0.1312E+03  0.9447E+03
      2.368  0.1389E+03  0.9479E+03
      2.390  0.1492E+03  0.9513E+03
      2.413  0.1513E+03  0.9547E+03
      2.436  0.1479E+03  0.9581E+03
      2.459  0.1410E+03  0.9613E+03
      2.482  0.1367E+03  0.9644E+03
      2.504  0.1339E+03  0.9675E+03
      2.527  0.1309E+03  0.9704E+03
      2.550  0.1329E+03  0.9735E+03
      2.573  0.1293E+03  0.9764E+03
      2.595  0.1288E+03  0.9793E+03
      2.618  0.1317E+03  0.9823E+03
      2.641  0.1209E+03  0.9851E+03
      2.664  0.1165E+03  0.9877E+03
      2.687  0.1238E+03  0.9906E+03
      2.709  0.1255E+03  0.9934E+03
      2.732  0.1208E+03  0.9962E+03
      2.755  0.1134E+03  0.9988E+03
      2.778  0.1005E+03  0.1001E+04
      2.800  0.7786E+02  0.1003E+04
      2.823  0.5064E+02  0.1004E+04
      2.846  0.3935E+02  0.1005E+04
      2.869  0.3582E+02  0.1006E+04
      2.892  0.3031E+02  0.1006E+04
      2.914  0.3430E+02  0.1007E+04
      2.937  0.2650E+02  0.1008E+04
      2.960  0.9771E+01  0.1008E+04
      2.983  0.6830E+01  0.1008E+04
      3.005  0.1943E+02  0.1009E+04
      3.028  0.3021E+02  0.1009E+04
      3.051  0.2283E+02  0.1010E+04
      3.074  0.7987E+01  0.1010E+04
      3.097  0.1151E+01  0.1010E+04
      3.119  0.6209E-01  0.1010E+04
      3.142  0.1182E-02  0.1010E+04
      3.165  0.7673E-05  0.1010E+04
      3.188  0.1659E-07  0.1010E+04
      3.210  0.1176E-10  0.1010E+04
      3.233  0.2437E-14  0.1010E+04
      3.256  0.0000E+00  0.1010E+04
      3.279  0.0000E+00  0.1010E+04
      3.302  0.0000E+00  0.1010E+04
      3.324  0.0000E+00  0.1010E+04
      3.347  0.0000E+00  0.1010E+04
