       N       E                     dE             d eps       ncg     rms          rms(c)
DAV:   1    -0.317829317475E+03   -0.31783E+03   -0.12100E+05  4040   0.652E+02
DAV:   2    -0.902028017260E+03   -0.58420E+03   -0.53581E+03  4636   0.661E+01
DAV:   3    -0.943089000165E+03   -0.41061E+02   -0.37371E+02  5160   0.138E+01
DAV:   4    -0.944506740878E+03   -0.14177E+01   -0.13937E+01  4672   0.279E+00
DAV:   5    -0.944538449903E+03   -0.31709E-01   -0.31649E-01  4808   0.448E-01    0.698E+00
DAV:   6    -0.942320152518E+03    0.22183E+01   -0.59821E+00  4568   0.319E+00    0.559E+00
DAV:   7    -0.939631984077E+03    0.26882E+01   -0.49515E+00  4624   0.304E+00    0.405E+00
DAV:   8    -0.937851975279E+03    0.17800E+01   -0.26284E+00  4552   0.183E+00    0.233E+00
DAV:   9    -0.937671792307E+03    0.18018E+00   -0.15008E+00  4560   0.117E+00    0.172E+00
DAV:  10    -0.937413885934E+03    0.25791E+00   -0.74435E-01  4560   0.874E-01    0.104E+00
DAV:  11    -0.937352700945E+03    0.61185E-01   -0.24206E-01  4488   0.428E-01    0.581E-01
DAV:  12    -0.937357545006E+03   -0.48441E-02   -0.69021E-02  4608   0.295E-01    0.504E-01
DAV:  13    -0.937334015618E+03    0.23529E-01   -0.31472E-02  4592   0.206E-01    0.249E-01
DAV:  14    -0.937332355269E+03    0.16603E-02   -0.10546E-02  4528   0.106E-01    0.146E-01
DAV:  15    -0.937332547165E+03   -0.19190E-03   -0.49804E-03  4568   0.827E-02    0.120E-01
DAV:  16    -0.937330791022E+03    0.17561E-02   -0.21569E-03  4528   0.539E-02    0.493E-02
DAV:  17    -0.937330968038E+03   -0.17702E-03   -0.57352E-04  4640   0.298E-02    0.489E-02
DAV:  18    -0.937330634028E+03    0.33401E-03   -0.42181E-04  4552   0.243E-02    0.187E-02
DAV:  19    -0.937330612499E+03    0.21529E-04   -0.13153E-04  4496   0.114E-02    0.123E-02
DAV:  20    -0.937330607578E+03    0.49211E-05   -0.47941E-05  4152   0.790E-03
   1 F= -.93733061E+03 E0= -.93726339E+03  d E =-.134439E+00
