Li                                      
           1
   -10.853500   18.798813    0.000000
   -18.606000  -10.742179    0.000000
     0.000000    0.000000   22.765000
   Li
   504
Direct configuration=     1
   0.02247212  0.00898982  0.99308353
   0.92963802  0.01885598  0.68134674
   0.84222412  0.09321145  0.33449832
   0.78971366  0.11930172  0.00226549
   0.70894302  0.16175675  0.65856534
   0.65464662  0.22722926  0.33435654
   0.57377125  0.24526709  0.01240109
   0.50235383  0.28966481  0.66375653
   0.42847953  0.34025619  0.34409693
   0.34480018  0.36844266  0.00281889
   0.29828271  0.40996269  0.67434412
   0.22193212  0.46363273  0.32729729
   0.06825093  0.04235174  0.67274739
   0.99534364  0.09332767  0.32285683
   0.92852602  0.12656905  0.00320994
   0.85459054  0.16385253  0.67471064
   0.78739362  0.21419205  0.33694613
   0.71740097  0.23522479  0.00269594
   0.63860385  0.28929275  0.66522476
   0.57815291  0.33913606  0.33130386
   0.49665841  0.37248593  0.00156362
   0.42291184  0.41495507  0.67036245
   0.36610110  0.46119697  0.33334233
   0.27942046  0.49614102  0.00617844
   0.15689985  0.08402903  0.32483907
   0.08896378  0.11211724  0.01250202
   0.98749016  0.16518559  0.66855234
   0.92554014  0.20960905  0.34732042
   0.86486159  0.25348418  0.00522122
   0.77981229  0.29516543  0.66834874
   0.72329446  0.34323705  0.34145898
   0.64717074  0.37041051  0.99587584
   0.56905332  0.40856383  0.66637875
   0.50080004  0.45894166  0.33466389
   0.42629342  0.48438325  0.98749173
   0.35608993  0.53313680  0.67398936
   0.23186357  0.11857020  0.00707423
   0.12288557  0.17235596  0.66963876
   0.08151101  0.18000800  0.33406869
   0.00569049  0.24759872  0.99654390
   0.92190119  0.29255963  0.66814660
   0.87629976  0.33715038  0.33020930
   0.78298910  0.37371492  0.99806265
   0.70712225  0.42408029  0.66481441
   0.63928232  0.45956619  0.33976178
   0.57188413  0.50078052  0.98987105
   0.50419554  0.54401885  0.66077193
   0.42497124  0.58933349  0.33953247
   0.28221083  0.16311855  0.66823142
   0.22866704  0.22256814  0.34044293
   0.14707169  0.24906764  0.00431136
   0.05383444  0.29290495  0.67152984
   0.01858842  0.32798544  0.33221951
   0.93710678  0.37484597  0.98669092
   0.85433128  0.41833937  0.66249488
   0.77867957  0.44508753  0.34144401
   0.71366253  0.50172991  0.98380922
   0.62980840  0.55157331  0.66385593
   0.56037259  0.58806264  0.33668007
   0.49055326  0.62336791  0.97398281
   0.37114412  0.20927586  0.33356913
   0.28224766  0.24658198  0.99489418
   0.20282150  0.28829093  0.65988619
   0.13624815  0.33619148  0.32781887
   0.08198714  0.37158144  0.00856671
   0.99248980  0.42401267  0.67416114
   0.94218581  0.46367010  0.32406062
   0.86429238  0.48570858  0.99486462
   0.79008026  0.54899248  0.66018035
   0.72135523  0.57038056  0.34187007
   0.63665295  0.63627874  0.00030928
   0.55721480  0.68169050  0.66303713
   0.43643277  0.24713925  0.99558816
   0.36351021  0.29279082  0.66577736
   0.28985087  0.34215249  0.32814914
   0.21202298  0.36910377  0.00566890
   0.14811188  0.43119981  0.65901933
   0.07600272  0.46686673  0.31825473
   0.00616502  0.49307859  0.01001433
   0.92591837  0.55457223  0.66846463
   0.86053971  0.58667717  0.32429046
   0.77367761  0.61014074  0.00655690
   0.70444138  0.66097031  0.65718047
   0.63031652  0.70494378  0.34012964
   0.14641605  0.52400450  0.00629687
   0.08027360  0.53322891  0.65887004
   0.00080623  0.60014078  0.32512411
   0.91118791  0.61792478  0.00054279
   0.85035747  0.67776367  0.66800430
   0.77779089  0.70674244  0.32618027
   0.71280534  0.74880071  0.99338635
   0.22183789  0.53999611  0.66333231
   0.13681148  0.59914167  0.32476127
   0.05437723  0.63922981  0.99933948
   0.99306502  0.66053642  0.67262720
   0.91844356  0.72245594  0.32733791
   0.84981999  0.74511741  0.99929286
   0.77111657  0.79560378  0.67075393
   0.27750515  0.59214687  0.32727392
   0.21730728  0.62594555  0.99981413
   0.12958674  0.64591375  0.67760420
   0.05984970  0.70235602  0.32678896
   0.99479690  0.75717066  0.00355363
   0.91563848  0.79099631  0.67426951
   0.85417395  0.84778047  0.32699238
   0.36490715  0.61813886  0.00201970
   0.27598027  0.63932395  0.68665635
   0.22439280  0.71336006  0.32637930
   0.14016641  0.74830988  0.99765732
   0.06838432  0.78310608  0.67223446
   0.99522643  0.84311129  0.33414811
   0.91792068  0.88409103  0.99021909
   0.41280237  0.67336717  0.66120681
   0.35598580  0.70321754  0.33020379
   0.28794019  0.75052947  0.00339980
   0.20352579  0.78139012  0.66930125
   0.13885890  0.83301313  0.34528181
   0.06129340  0.87782748  0.98896795
   0.99300592  0.91449178  0.67480931
   0.91267117  0.97125491  0.32761062
   0.86327539  0.99949416  0.00708469
   0.77985150  0.04061828  0.68513411
   0.70738746  0.08503735  0.34585247
   0.64935494  0.12897892  0.00536547
   0.57523763  0.16882705  0.67509248
   0.49886733  0.21154570  0.33729874
   0.06874031  0.96648335  0.33392837
   0.15576887  0.98949803  0.99123340
   0.20424160  0.05072262  0.66624570
   0.29512108  0.08913148  0.32738175
   0.36444210  0.13209460  0.00922419
   0.42490168  0.16000495  0.67308227
   0.84254367  0.91475772  0.67076029
   0.77121381  0.96321618  0.32403495
   0.70897542  0.99435245  0.00530021
   0.63106678  0.04125832  0.66900762
   0.58169800  0.09922059  0.34079230
   0.48624940  0.12387135  0.00579944
   0.14263210  0.91451663  0.65973893
   0.21563485  0.95683070  0.34742437
   0.29385869  0.00251119  0.99917433
   0.36179793  0.04304855  0.66836165
   0.43674775  0.08877016  0.33069383
   0.78181153  0.86466444  0.99231305
   0.68969722  0.92094854  0.66878109
   0.64654724  0.96162137  0.33062790
   0.57568542  0.00445522  0.99546771
   0.49956052  0.05105838  0.66069487
   0.20776737  0.88266867  0.00837526
   0.27974625  0.91588559  0.65939288
   0.34669165  0.94882938  0.34519220
   0.43623505  0.00770440  0.01296036
   0.70070372  0.83098583  0.32871345
   0.64183168  0.86605366  0.99679220
   0.56371529  0.91645191  0.66706813
   0.49192992  0.96934966  0.33282890
   0.28394408  0.83245391  0.33597048
   0.35040449  0.88133209  0.99385935
   0.40892242  0.91822996  0.67270752
   0.62748339  0.79893583  0.67574921
   0.55402423  0.83765498  0.32401002
   0.50401790  0.88003735  0.00372785
   0.34478726  0.78963520  0.66614642
   0.42640353  0.84507659  0.33680902
   0.56894277  0.74864623  0.98765232
   0.48243839  0.78842773  0.65557085
   0.42747891  0.74660567  0.98966416
   0.48564524  0.70512596  0.33007777
   0.00448349  0.98822296  0.78474844
   0.92095429  0.04631545  0.43451929
   0.85692438  0.08910286  0.11435769
   0.79225330  0.12369329  0.77695133
   0.70668681  0.17232751  0.45143143
   0.63949355  0.20706661  0.12000041
   0.57383694  0.23941701  0.77117006
   0.50844794  0.30770921  0.44246115
   0.42671590  0.34432299  0.09899804
   0.34387803  0.37688778  0.78874539
   0.28251312  0.40557371  0.45219813
   0.22433446  0.46572820  0.12233085
   0.07646188  0.05830914  0.43404654
   0.99924254  0.08520103  0.12540799
   0.93745221  0.11908110  0.77266292
   0.84318331  0.16903322  0.44730279
   0.80059990  0.20763359  0.11050634
   0.71619998  0.24673486  0.79021411
   0.64367754  0.30792128  0.44057722
   0.58745170  0.33394361  0.10824591
   0.50893929  0.35952395  0.77403919
   0.43819075  0.41875962  0.45015809
   0.36298439  0.46673566  0.10603246
   0.28527445  0.50679162  0.78186899
   0.16278010  0.07180693  0.10406364
   0.06819249  0.12404159  0.77250742
   0.00078085  0.17138794  0.44710350
   0.93698401  0.21444696  0.10808306
   0.85576211  0.24019794  0.77688646
   0.78515488  0.29710144  0.44164241
   0.72590852  0.34762025  0.10805005
   0.64417158  0.36202129  0.78263296
   0.56725140  0.43055081  0.44802835
   0.51043147  0.46177200  0.09863019
   0.44022269  0.47972901  0.76953913
   0.35133696  0.54466183  0.44892921
   0.21555009  0.12363471  0.76824095
   0.15688381  0.16311851  0.44615215
   0.07883719  0.18384189  0.11932426
   0.00640157  0.22833449  0.77154902
   0.92873548  0.29462803  0.44389445
   0.87214982  0.34552593  0.10863918
   0.77703517  0.36586821  0.76508719
   0.70110032  0.43648257  0.46350250
   0.65064503  0.46396398  0.10945148
   0.57518831  0.49537807  0.77565967
   0.50033085  0.54151806  0.45648916
   0.42694103  0.58692885  0.10213022
   0.29229961  0.16864561  0.45356630
   0.22615990  0.18867380  0.13037761
   0.14407978  0.24891416  0.77648978
   0.07069019  0.28292389  0.43807393
   0.02030272  0.33334657  0.10502171
   0.92253972  0.36223789  0.77237150
   0.86230874  0.41273183  0.43942280
   0.79233491  0.45410000  0.10841444
   0.73172939  0.49177845  0.76665515
   0.63731461  0.53897536  0.44862251
   0.57356004  0.58840371  0.09281801
   0.50271158  0.61790883  0.75832534
   0.34800022  0.21523259  0.11041621
   0.28390659  0.26730880  0.78051931
   0.22335926  0.30377544  0.45069670
   0.15615161  0.32144230  0.11683299
   0.06891115  0.36518295  0.77342948
   0.99737933  0.41598976  0.44148323
   0.92241919  0.45636304  0.11868700
   0.86250664  0.50356709  0.77711053
   0.78578534  0.54825342  0.46119813
   0.70471756  0.57709953  0.10347553
   0.64731681  0.61628327  0.76558006
   0.55600982  0.65609946  0.44828703
   0.41965485  0.25838030  0.77114433
   0.36466863  0.28895214  0.44438509
   0.29703815  0.33057270  0.11145804
   0.21114601  0.37422057  0.77331349
   0.12672326  0.41484565  0.44286290
   0.08733333  0.45899291  0.11340722
   0.99445600  0.50582310  0.78591837
   0.92938326  0.54088090  0.43204719
   0.85420710  0.57339367  0.12248317
   0.78325739  0.62079459  0.75764227
   0.70644533  0.66335948  0.42917524
   0.64579570  0.70582345  0.10494118
   0.14073605  0.51202988  0.77647568
   0.06758245  0.53274394  0.43819350
   0.99833475  0.57975617  0.10439312
   0.92876966  0.63762158  0.78812945
   0.85425852  0.67917048  0.44025350
   0.78908170  0.70174182  0.10904721
   0.71084509  0.74123229  0.77351920
   0.22477919  0.53430685  0.43594377
   0.14300723  0.60156057  0.11913954
   0.06672225  0.63117772  0.77927130
   0.98983470  0.68143591  0.44272582
   0.93295623  0.71438536  0.10664257
   0.86128962  0.74473903  0.77749883
   0.76703770  0.80086392  0.43730165
   0.28567609  0.58096165  0.09949488
   0.21119974  0.61654921  0.78994542
   0.13602703  0.66944952  0.42483891
   0.07465185  0.72647886  0.12523547
   0.01195873  0.75021524  0.78378390
   0.91403221  0.79939595  0.43576434
   0.87637170  0.84154129  0.10429768
   0.36472098  0.60889507  0.78827776
   0.28237847  0.66248249  0.43618136
   0.22288401  0.72251788  0.12051281
   0.13326362  0.74681016  0.78040502
   0.05968954  0.79414172  0.44486696
   0.00105474  0.84549737  0.10581051
   0.92798588  0.87900758  0.76844983
   0.43370808  0.65925883  0.44298736
   0.35390343  0.70316357  0.11045109
   0.28015105  0.71838565  0.77277659
   0.19837608  0.78678705  0.44333437
   0.13804557  0.83060423  0.11664736
   0.08301126  0.86239039  0.78665137
   0.99258203  0.91206064  0.43785745
   0.92890597  0.96264998  0.11161748
   0.86395056  0.98738928  0.78336872
   0.77457121  0.03640371  0.45904722
   0.72352409  0.08834060  0.11124003
   0.65087774  0.11659060  0.77877340
   0.56822817  0.17473447  0.44953788
   0.49999545  0.21221821  0.09989346
   0.07374219  0.95732210  0.11756887
   0.16512269  0.98344099  0.77496126
   0.22556317  0.05694965  0.45072269
   0.29289013  0.08173392  0.12388021
   0.36474380  0.13523019  0.78397746
   0.42651653  0.16718563  0.45193992
   0.83638851  0.92582702  0.45758781
   0.79146115  0.95065513  0.11070235
   0.70913800  0.99760725  0.78311269
   0.63628241  0.04123076  0.44041837
   0.58201030  0.08581142  0.10087233
   0.50512223  0.13294778  0.77596518
   0.12187498  0.92177144  0.44785627
   0.22849762  0.94836212  0.11134295
   0.30223884  0.00842467  0.77274944
   0.35054906  0.03895875  0.42806303
   0.44103552  0.08528539  0.11575446
   0.77407859  0.87404352  0.77851046
   0.70998818  0.91663637  0.43764744
   0.64673441  0.96223185  0.11873680
   0.57725075  0.99818196  0.78168342
   0.48822720  0.02321136  0.44188315
   0.22970640  0.86340291  0.76904583
   0.26043783  0.90518991  0.44325103
   0.36622788  0.96321519  0.12189659
   0.42620399  0.99008666  0.78149327
   0.73259030  0.82495711  0.09332854
   0.63256559  0.88435972  0.78262102
   0.57050252  0.90053308  0.44636340
   0.50606085  0.95063048  0.12230422
   0.27666354  0.83761028  0.12199941
   0.35927255  0.87758111  0.77416707
   0.42087357  0.90912268  0.44970318
   0.63882928  0.79063697  0.43829966
   0.56998163  0.82958991  0.11877709
   0.49510392  0.87681628  0.77593336
   0.34994777  0.79770434  0.45452282
   0.41843178  0.82558086  0.10044726
   0.57096776  0.73736125  0.77726474
   0.49571111  0.77840432  0.44513484
   0.43119072  0.75055036  0.77931060
   0.49144494  0.70416116  0.10219859
   0.99174718  0.99704391  0.22134086
   0.93154949  0.02447234  0.89577102
   0.85544935  0.09368683  0.56877137
   0.78828958  0.14246166  0.23818787
   0.72887327  0.15870365  0.89998962
   0.64182000  0.21503844  0.54659514
   0.57455623  0.25618667  0.22494155
   0.51077897  0.26743226  0.89204167
   0.42330940  0.33339016  0.55630107
   0.36315671  0.38445026  0.21944937
   0.28505649  0.42768405  0.90000389
   0.22897177  0.44891206  0.54277241
   0.07320569  0.03040902  0.88279273
   0.99279336  0.07571633  0.54730784
   0.91127372  0.13426415  0.22141240
   0.87167309  0.16934937  0.90358497
   0.79395344  0.21717685  0.55622785
   0.72101334  0.26973066  0.21427826
   0.64768614  0.29958613  0.88888179
   0.57695667  0.33785214  0.55614471
   0.49606021  0.38528680  0.23092634
   0.44033952  0.40759363  0.88314392
   0.37342029  0.47778564  0.56117562
   0.28066638  0.50748121  0.22420814
   0.13112032  0.07793366  0.55508408
   0.07404746  0.11667974  0.21607058
   0.00539205  0.14873035  0.88957325
   0.92277248  0.21193171  0.54016870
   0.87251329  0.25917563  0.21986481
   0.79554201  0.27825848  0.89021252
   0.71203843  0.33124173  0.55382312
   0.65773645  0.37887488  0.22465264
   0.56664242  0.41088895  0.88996247
   0.50352895  0.45999547  0.56289027
   0.43052200  0.51077710  0.22728818
   0.36149143  0.53936179  0.89816138
   0.21699425  0.11148764  0.23417413
   0.16833344  0.16697842  0.89622264
   0.06263894  0.21584653  0.56244331
   0.00268271  0.25167174  0.22026712
   0.92784698  0.29072730  0.89670367
   0.86937524  0.33764715  0.55443600
   0.79506958  0.37371513  0.22024214
   0.72095557  0.41170888  0.88631808
   0.63683086  0.46891587  0.55507585
   0.58723489  0.50878462  0.20592486
   0.50907229  0.53418551  0.86657730
   0.42693336  0.59532049  0.55710424
   0.30084042  0.15457514  0.88495406
   0.21028754  0.20849842  0.55463680
   0.16226310  0.23371760  0.23853976
   0.07619167  0.28190250  0.88947682
   0.99295613  0.35931361  0.55881188
   0.94376963  0.37041881  0.22754580
   0.85782763  0.41310213  0.87743953
   0.77895732  0.46001014  0.55170863
   0.73885155  0.48198346  0.22255468
   0.65278754  0.53504041  0.88555231
   0.57809811  0.58953875  0.56031965
   0.49905341  0.62250864  0.21661655
   0.37931904  0.22421172  0.56591233
   0.29738686  0.25713424  0.23188131
   0.22118659  0.29802183  0.89556996
   0.13098135  0.33190992  0.56422258
   0.07370368  0.36794556  0.21114680
   0.00947689  0.41728108  0.88419539
   0.92452650  0.46372071  0.55561532
   0.85189104  0.48826259  0.22199777
   0.78759646  0.54068473  0.88369721
   0.71394885  0.58513782  0.55374578
   0.63684594  0.61678219  0.21961339
   0.57974375  0.64157648  0.87614628
   0.43570958  0.25599007  0.21837908
   0.35558412  0.28829095  0.89515203
   0.28967743  0.33283894  0.55761275
   0.22003040  0.36550974  0.21105544
   0.14148314  0.41643012  0.88559828
   0.07040695  0.45955696  0.55478546
   0.99774229  0.51219165  0.21382716
   0.93800421  0.53624523  0.88541196
   0.86259441  0.58798061  0.55111509
   0.77729678  0.62660594  0.21115860
   0.70914217  0.65794872  0.88748448
   0.63382274  0.72024676  0.54747207
   0.16320459  0.50163245  0.22336365
   0.07800270  0.54704688  0.88849637
   0.00713045  0.58328829  0.54827951
   0.92924677  0.63407249  0.21009011
   0.84901183  0.66776892  0.87883042
   0.77901832  0.71207662  0.54829677
   0.70554076  0.75830392  0.21764327
   0.22401264  0.54160913  0.88416049
   0.16934687  0.57367466  0.55331546
   0.05880385  0.64132056  0.21780863
   0.99289033  0.65975482  0.89214812
   0.93089230  0.69775260  0.55967462
   0.84941924  0.76438386  0.20642716
   0.78360812  0.79028152  0.87719524
   0.29728873  0.58749972  0.55482393
   0.22095532  0.63029867  0.21250412
   0.14946253  0.66187579  0.90077400
   0.07779542  0.71240520  0.56605414
   0.00259815  0.75452307  0.21960170
   0.91671664  0.78862860  0.88685267
   0.85876315  0.82947949  0.56667868
   0.36451731  0.62241376  0.22738905
   0.29013094  0.64886381  0.88830135
   0.22785476  0.71166127  0.56843126
   0.14124614  0.75847138  0.22731402
   0.06447101  0.78156542  0.89705307
   0.99291832  0.82767804  0.55278775
   0.92773306  0.88540193  0.22787213
   0.44484529  0.65983508  0.88110171
   0.35222867  0.71322995  0.55448190
   0.28944026  0.73962730  0.23089313
   0.21644448  0.79707379  0.89135664
   0.13607392  0.83352667  0.56139895
   0.07015076  0.87173408  0.22288714
   0.99400474  0.90554404  0.88702537
   0.92455950  0.95667490  0.55419063
   0.85785315  0.01379756  0.21669491
   0.78898483  0.03802262  0.88411675
   0.71421519  0.09566736  0.55045095
   0.62971931  0.14998253  0.22386176
   0.59324258  0.16303739  0.89760763
   0.49536286  0.21904454  0.58224157
   0.06266641  0.96299525  0.55593888
   0.15560450  0.99612405  0.22813072
   0.21992198  0.03652122  0.88312867
   0.28930287  0.09222269  0.55793890
   0.35308394  0.13567112  0.23063469
   0.44243181  0.15959816  0.88055852
   0.85146339  0.92437066  0.88458621
   0.79025255  0.96250804  0.57542968
   0.71163289  0.00013184  0.22010171
   0.64120490  0.03073370  0.89333104
   0.55495901  0.09220420  0.55351769
   0.50008273  0.12013395  0.22136977
   0.14791486  0.91135175  0.88166609
   0.19774862  0.96162517  0.55798006
   0.28294243  0.97992485  0.22721070
   0.36312979  0.03099668  0.90271932
   0.43170534  0.08645279  0.55830187
   0.78096682  0.87745562  0.22822225
   0.71658251  0.91918561  0.88946655
   0.63249729  0.96302848  0.54346215
   0.57875237  0.01121369  0.21963710
   0.50103752  0.03471516  0.88530229
   0.20763857  0.86720584  0.22436064
   0.28256043  0.91723232  0.88087986
   0.35568392  0.95500417  0.54747544
   0.42052956  0.99419199  0.22534075
   0.70790340  0.84784449  0.54769042
   0.63852411  0.87751203  0.21396277
   0.56067730  0.90690576  0.89720714
   0.49273797  0.95231642  0.55425409
   0.27809166  0.84245411  0.56874973
   0.34841862  0.87959789  0.23128515
   0.42821769  0.88876319  0.88717706
   0.64264890  0.79400048  0.89048572
   0.56023023  0.82366502  0.57878149
   0.47793760  0.87069807  0.21488587
   0.34488738  0.77687215  0.88285697
   0.42489581  0.83524618  0.54614419
   0.56859117  0.75555967  0.23132482
   0.50301182  0.78115632  0.88150517
   0.41890072  0.75687013  0.23056388
   0.49060482  0.71205787  0.55456138
