       N       E                     dE             d eps       ncg     rms          rms(c)
DAV:   1    -0.261435496530E+03   -0.26144E+03   -0.12436E+05  4040   0.662E+02
DAV:   2    -0.882085624115E+03   -0.62065E+03   -0.56784E+03  4652   0.689E+01
DAV:   3    -0.925722810029E+03   -0.43637E+02   -0.39831E+02  5184   0.144E+01
DAV:   4    -0.927197348772E+03   -0.14745E+01   -0.14502E+01  4704   0.288E+00
DAV:   5    -0.927232036284E+03   -0.34688E-01   -0.34608E-01  4896   0.465E-01    0.965E+00
DAV:   6    -0.934284830308E+03   -0.70528E+01   -0.12387E+01  4856   0.613E+00    0.106E+01
DAV:   7    -0.915554720481E+03    0.18730E+02   -0.12151E+01  4792   0.527E+00    0.450E+00
DAV:   8    -0.914154687186E+03    0.14000E+01   -0.60139E+00  4568   0.229E+00    0.282E+00
DAV:   9    -0.913782712553E+03    0.37197E+00   -0.27508E+00  4568   0.153E+00    0.189E+00
DAV:  10    -0.913566890550E+03    0.21582E+00   -0.87069E-01  4680   0.994E-01    0.133E+00
DAV:  11    -0.913441287838E+03    0.12560E+00   -0.32086E-01  4568   0.529E-01    0.686E-01
DAV:  12    -0.913441581940E+03   -0.29410E-03   -0.10307E-01  4680   0.360E-01    0.573E-01
DAV:  13    -0.913413900819E+03    0.27681E-01   -0.49787E-02  4632   0.243E-01    0.273E-01
DAV:  14    -0.913413164178E+03    0.73664E-03   -0.16110E-02  4624   0.133E-01    0.181E-01
DAV:  15    -0.913411729543E+03    0.14346E-02   -0.73968E-03  4712   0.100E-01    0.129E-01
DAV:  16    -0.913410131081E+03    0.15985E-02   -0.24046E-03  4592   0.554E-02    0.564E-02
DAV:  17    -0.913410160358E+03   -0.29277E-04   -0.80261E-04  4584   0.303E-02    0.423E-02
DAV:  18    -0.913409973051E+03    0.18731E-03   -0.43345E-04  4536   0.233E-02    0.216E-02
DAV:  19    -0.913409934267E+03    0.38784E-04   -0.11596E-04  4536   0.111E-02    0.120E-02
DAV:  20    -0.913409917182E+03    0.17085E-04   -0.39936E-05  3760   0.609E-03    0.559E-03
DAV:  21    -0.913409912868E+03    0.43147E-05   -0.95387E-06  2240   0.348E-03
   1 F= -.91340991E+03 E0= -.91335096E+03  d E =-.117896E+00
