 500 500   0   0
  0.1910214E+02  0.2121700E-08  0.2121700E-08  0.2121700E-08  0.5000000E-15
  1.000000000000000E-004
  CAR 
 Li                                      
      3.75030299     -3.36116443  301      0.55472925      1.00000000
     -3.361  0.0000E+00  0.0000E+00
     -3.337  0.0000E+00  0.0000E+00
     -3.314  0.0000E+00  0.0000E+00
     -3.290  0.0000E+00  0.0000E+00
     -3.266  0.0000E+00  0.0000E+00
     -3.243  0.0000E+00  0.0000E+00
     -3.219  0.0000E+00  0.0000E+00
     -3.195  0.4948E-11  0.1173E-12
     -3.172  0.1236E-07  0.2932E-09
     -3.148  0.9106E-05  0.2161E-06
     -3.124  0.1996E-02  0.4753E-04
     -3.100  0.1321E+00  0.3178E-02
     -3.077  0.2687E+01  0.6687E-01
     -3.053  0.1720E+02  0.4746E+00
     -3.029  0.3535E+02  0.1313E+01
     -3.006  0.2359E+02  0.1872E+01
     -2.982  0.5564E+01  0.2004E+01
     -2.958  0.8280E+01  0.2200E+01
     -2.934  0.4520E+02  0.3271E+01
     -2.911  0.9564E+02  0.5538E+01
     -2.887  0.7737E+02  0.7372E+01
     -2.863  0.2407E+02  0.7943E+01
     -2.840  0.8721E+01  0.8150E+01
     -2.816  0.3827E+02  0.9057E+01
     -2.792  0.9025E+02  0.1120E+02
     -2.769  0.8362E+02  0.1318E+02
     -2.745  0.3085E+02  0.1391E+02
     -2.721  0.1205E+02  0.1420E+02
     -2.697  0.4550E+02  0.1527E+02
     -2.674  0.1066E+03  0.1780E+02
     -2.650  0.1131E+03  0.2048E+02
     -2.626  0.5412E+02  0.2177E+02
     -2.603  0.2167E+02  0.2228E+02
     -2.579  0.5901E+02  0.2368E+02
     -2.555  0.1387E+03  0.2697E+02
     -2.531  0.1666E+03  0.3091E+02
     -2.508  0.9909E+02  0.3326E+02
     -2.484  0.2902E+02  0.3395E+02
     -2.460  0.2012E+02  0.3443E+02
     -2.437  0.6878E+02  0.3606E+02
     -2.413  0.1009E+03  0.3845E+02
     -2.389  0.5433E+02  0.3974E+02
     -2.366  0.1500E+02  0.4009E+02
     -2.342  0.3723E+02  0.4098E+02
     -2.318  0.1195E+03  0.4381E+02
     -2.294  0.1756E+03  0.4797E+02
     -2.271  0.1243E+03  0.5092E+02
     -2.247  0.4999E+02  0.5210E+02
     -2.223  0.6066E+02  0.5354E+02
     -2.200  0.1478E+03  0.5704E+02
     -2.176  0.2166E+03  0.6218E+02
     -2.152  0.1957E+03  0.6682E+02
     -2.129  0.1045E+03  0.6929E+02
     -2.105  0.3406E+02  0.7010E+02
     -2.081  0.4114E+02  0.7108E+02
     -2.057  0.8564E+02  0.7311E+02
     -2.034  0.8226E+02  0.7506E+02
     -2.010  0.3585E+02  0.7591E+02
     -1.986  0.2740E+02  0.7656E+02
     -1.963  0.9540E+02  0.7882E+02
     -1.939  0.1857E+03  0.8322E+02
     -1.915  0.1795E+03  0.8747E+02
     -1.891  0.8830E+02  0.8957E+02
     -1.868  0.4217E+02  0.9057E+02
     -1.844  0.1039E+03  0.9303E+02
     -1.820  0.2035E+03  0.9786E+02
     -1.797  0.2224E+03  0.1031E+03
     -1.773  0.1458E+03  0.1066E+03
     -1.749  0.5542E+02  0.1079E+03
     -1.726  0.4111E+02  0.1089E+03
     -1.702  0.1128E+03  0.1115E+03
     -1.678  0.1744E+03  0.1157E+03
     -1.654  0.1312E+03  0.1188E+03
     -1.631  0.5892E+02  0.1202E+03
     -1.607  0.8389E+02  0.1222E+03
     -1.583  0.1868E+03  0.1266E+03
     -1.560  0.2310E+03  0.1321E+03
     -1.536  0.1690E+03  0.1361E+03
     -1.512  0.7729E+02  0.1379E+03
     -1.488  0.6778E+02  0.1395E+03
     -1.465  0.1517E+03  0.1431E+03
     -1.441  0.2219E+03  0.1484E+03
     -1.417  0.1951E+03  0.1530E+03
     -1.394  0.1014E+03  0.1554E+03
     -1.370  0.5226E+02  0.1566E+03
     -1.346  0.9832E+02  0.1590E+03
     -1.323  0.1596E+03  0.1628E+03
     -1.299  0.1400E+03  0.1661E+03
     -1.275  0.7307E+02  0.1678E+03
     -1.251  0.6135E+02  0.1693E+03
     -1.228  0.1102E+03  0.1719E+03
     -1.204  0.1327E+03  0.1750E+03
     -1.180  0.1225E+03  0.1779E+03
     -1.157  0.8089E+02  0.1798E+03
     -1.133  0.8842E+02  0.1819E+03
     -1.109  0.1950E+03  0.1866E+03
     -1.085  0.3017E+03  0.1937E+03
     -1.062  0.3214E+03  0.2013E+03
     -1.038  0.2378E+03  0.2070E+03
     -1.014  0.1269E+03  0.2100E+03
     -0.991  0.1222E+03  0.2129E+03
     -0.967  0.2008E+03  0.2176E+03
     -0.943  0.2194E+03  0.2228E+03
     -0.920  0.1542E+03  0.2265E+03
     -0.896  0.8017E+02  0.2284E+03
     -0.872  0.6470E+02  0.2299E+03
     -0.848  0.1072E+03  0.2325E+03
     -0.825  0.1764E+03  0.2367E+03
     -0.801  0.1741E+03  0.2408E+03
     -0.777  0.1497E+03  0.2443E+03
     -0.754  0.1989E+03  0.2490E+03
     -0.730  0.2364E+03  0.2546E+03
     -0.706  0.2323E+03  0.2602E+03
     -0.683  0.1702E+03  0.2642E+03
     -0.659  0.6753E+02  0.2658E+03
     -0.635  0.3048E+02  0.2665E+03
     -0.611  0.7121E+02  0.2682E+03
     -0.588  0.9710E+02  0.2705E+03
     -0.564  0.6600E+02  0.2721E+03
     -0.540  0.8308E+02  0.2740E+03
     -0.517  0.1750E+03  0.2782E+03
     -0.493  0.2567E+03  0.2843E+03
     -0.469  0.2931E+03  0.2912E+03
     -0.445  0.2900E+03  0.2981E+03
     -0.422  0.2577E+03  0.3042E+03
     -0.398  0.1999E+03  0.3089E+03
     -0.374  0.1866E+03  0.3134E+03
     -0.351  0.2376E+03  0.3190E+03
     -0.327  0.2789E+03  0.3256E+03
     -0.303  0.2476E+03  0.3315E+03
     -0.280  0.1609E+03  0.3353E+03
     -0.256  0.9931E+02  0.3376E+03
     -0.232  0.1031E+03  0.3401E+03
     -0.208  0.1410E+03  0.3434E+03
     -0.185  0.1657E+03  0.3474E+03
     -0.161  0.1818E+03  0.3517E+03
     -0.137  0.1727E+03  0.3558E+03
     -0.114  0.1641E+03  0.3597E+03
     -0.090  0.1705E+03  0.3637E+03
     -0.066  0.1686E+03  0.3677E+03
     -0.042  0.1907E+03  0.3722E+03
     -0.019  0.2325E+03  0.3777E+03
      0.005  0.2520E+03  0.3837E+03
      0.029  0.2549E+03  0.3897E+03
      0.052  0.2387E+03  0.3954E+03
      0.076  0.2148E+03  0.4005E+03
      0.100  0.2181E+03  0.4057E+03
      0.123  0.2117E+03  0.4107E+03
      0.147  0.1545E+03  0.4143E+03
      0.171  0.9979E+02  0.4167E+03
      0.195  0.1404E+03  0.4200E+03
      0.218  0.2145E+03  0.4251E+03
      0.242  0.2404E+03  0.4308E+03
      0.266  0.2423E+03  0.4366E+03
      0.289  0.2329E+03  0.4421E+03
      0.313  0.2144E+03  0.4472E+03
      0.337  0.2046E+03  0.4520E+03
      0.361  0.2042E+03  0.4569E+03
      0.384  0.1917E+03  0.4614E+03
      0.408  0.1857E+03  0.4658E+03
      0.432  0.2073E+03  0.4707E+03
      0.455  0.2287E+03  0.4761E+03
      0.479  0.2323E+03  0.4816E+03
      0.503  0.2389E+03  0.4873E+03
      0.526  0.2466E+03  0.4931E+03
      0.550  0.2428E+03  0.4989E+03
      0.574  0.2377E+03  0.5045E+03
      0.598  0.2375E+03  0.5102E+03
      0.621  0.2346E+03  0.5157E+03
      0.645  0.2287E+03  0.5211E+03
      0.669  0.2287E+03  0.5266E+03
      0.692  0.2487E+03  0.5325E+03
      0.716  0.2879E+03  0.5393E+03
      0.740  0.3114E+03  0.5467E+03
      0.763  0.3170E+03  0.5542E+03
      0.787  0.3173E+03  0.5617E+03
      0.811  0.3054E+03  0.5689E+03
      0.835  0.2832E+03  0.5757E+03
      0.858  0.2680E+03  0.5820E+03
      0.882  0.2612E+03  0.5882E+03
      0.906  0.2562E+03  0.5943E+03
      0.929  0.2494E+03  0.6002E+03
      0.953  0.2356E+03  0.6058E+03
      0.977  0.1935E+03  0.6104E+03
      1.001  0.1445E+03  0.6138E+03
      1.024  0.1117E+03  0.6164E+03
      1.048  0.1097E+03  0.6190E+03
      1.072  0.1355E+03  0.6222E+03
      1.095  0.1602E+03  0.6260E+03
      1.119  0.1732E+03  0.6302E+03
      1.143  0.1796E+03  0.6344E+03
      1.166  0.1871E+03  0.6388E+03
      1.190  0.2173E+03  0.6440E+03
      1.214  0.2495E+03  0.6499E+03
      1.238  0.2447E+03  0.6557E+03
      1.261  0.2270E+03  0.6611E+03
      1.285  0.2280E+03  0.6665E+03
      1.309  0.2453E+03  0.6723E+03
      1.332  0.2579E+03  0.6784E+03
      1.356  0.2476E+03  0.6843E+03
      1.380  0.2476E+03  0.6902E+03
      1.404  0.2529E+03  0.6962E+03
      1.427  0.2356E+03  0.7017E+03
      1.451  0.2139E+03  0.7068E+03
      1.475  0.1989E+03  0.7115E+03
      1.498  0.1892E+03  0.7160E+03
      1.522  0.1898E+03  0.7205E+03
      1.546  0.1878E+03  0.7250E+03
      1.569  0.1814E+03  0.7293E+03
      1.593  0.1972E+03  0.7339E+03
      1.617  0.2249E+03  0.7393E+03
      1.641  0.2203E+03  0.7445E+03
      1.664  0.1987E+03  0.7492E+03
      1.688  0.1874E+03  0.7536E+03
      1.712  0.1827E+03  0.7580E+03
      1.735  0.1778E+03  0.7622E+03
      1.759  0.1760E+03  0.7664E+03
      1.783  0.1626E+03  0.7702E+03
      1.807  0.1393E+03  0.7735E+03
      1.830  0.1417E+03  0.7769E+03
      1.854  0.1557E+03  0.7806E+03
      1.878  0.1655E+03  0.7845E+03
      1.901  0.1470E+03  0.7880E+03
      1.925  0.1279E+03  0.7910E+03
      1.949  0.1430E+03  0.7944E+03
      1.972  0.1551E+03  0.7981E+03
      1.996  0.1648E+03  0.8020E+03
      2.020  0.1836E+03  0.8063E+03
      2.044  0.2022E+03  0.8111E+03
      2.067  0.2146E+03  0.8162E+03
      2.091  0.2225E+03  0.8215E+03
      2.115  0.2249E+03  0.8268E+03
      2.138  0.2296E+03  0.8323E+03
      2.162  0.2274E+03  0.8377E+03
      2.186  0.2175E+03  0.8428E+03
      2.209  0.2101E+03  0.8478E+03
      2.233  0.1961E+03  0.8524E+03
      2.257  0.1759E+03  0.8566E+03
      2.281  0.1650E+03  0.8605E+03
      2.304  0.1620E+03  0.8644E+03
      2.328  0.1511E+03  0.8679E+03
      2.352  0.1416E+03  0.8713E+03
      2.375  0.1408E+03  0.8746E+03
      2.399  0.1334E+03  0.8778E+03
      2.423  0.1221E+03  0.8807E+03
      2.447  0.1270E+03  0.8837E+03
      2.470  0.1438E+03  0.8871E+03
      2.494  0.1632E+03  0.8910E+03
      2.518  0.1711E+03  0.8950E+03
      2.541  0.1577E+03  0.8988E+03
      2.565  0.1435E+03  0.9022E+03
      2.589  0.1413E+03  0.9055E+03
      2.612  0.1529E+03  0.9091E+03
      2.636  0.1503E+03  0.9127E+03
      2.660  0.1408E+03  0.9160E+03
      2.684  0.1356E+03  0.9193E+03
      2.707  0.1353E+03  0.9225E+03
      2.731  0.1395E+03  0.9258E+03
      2.755  0.1336E+03  0.9289E+03
      2.778  0.1367E+03  0.9322E+03
      2.802  0.1444E+03  0.9356E+03
      2.826  0.1430E+03  0.9390E+03
      2.850  0.1265E+03  0.9420E+03
      2.873  0.9963E+02  0.9444E+03
      2.897  0.8359E+02  0.9463E+03
      2.921  0.9655E+02  0.9486E+03
      2.944  0.1205E+03  0.9515E+03
      2.968  0.1330E+03  0.9546E+03
      2.992  0.1508E+03  0.9582E+03
      3.015  0.1636E+03  0.9621E+03
      3.039  0.1537E+03  0.9657E+03
      3.063  0.1454E+03  0.9692E+03
      3.087  0.1456E+03  0.9726E+03
      3.110  0.1514E+03  0.9762E+03
      3.134  0.1490E+03  0.9798E+03
      3.158  0.1367E+03  0.9830E+03
      3.181  0.1088E+03  0.9856E+03
      3.205  0.6661E+02  0.9872E+03
      3.229  0.2899E+02  0.9878E+03
      3.253  0.7780E+01  0.9880E+03
      3.276  0.1115E+02  0.9883E+03
      3.300  0.3101E+02  0.9890E+03
      3.324  0.5585E+02  0.9903E+03
      3.347  0.8655E+02  0.9924E+03
      3.371  0.1034E+03  0.9948E+03
      3.395  0.1110E+03  0.9975E+03
      3.418  0.1053E+03  0.1000E+04
      3.442  0.6422E+02  0.1002E+04
      3.466  0.1880E+02  0.1002E+04
      3.490  0.2182E+01  0.1002E+04
      3.513  0.8932E-01  0.1002E+04
      3.537  0.1197E-02  0.1002E+04
      3.561  0.5003E-05  0.1002E+04
      3.584  0.6345E-08  0.1002E+04
      3.608  0.2396E-11  0.1002E+04
      3.632  0.0000E+00  0.1002E+04
      3.655  0.0000E+00  0.1002E+04
      3.679  0.0000E+00  0.1002E+04
      3.703  0.0000E+00  0.1002E+04
      3.727  0.0000E+00  0.1002E+04
      3.750  0.0000E+00  0.1002E+04
