 running on   64 total cores
 distrk:  each k-point on   32 cores,    2 groups
 distr:  one band on   32 cores,    1 groups
 vasp.6.2.1 16May21 (build Nov 23 2021 15:40:41) complex                        
  
 POSCAR found type information on POSCAR Li
 POSCAR found :  1 types and     500 ions
 scaLAPACK will be used
 -----------------------------------------------------------------------------
|                                                                             |
|           W    W    AA    RRRRR   N    N  II  N    N   GGGG   !!!           |
|           W    W   A  A   R    R  NN   N  II  NN   N  G    G  !!!           |
|           W    W  A    A  R    R  N N  N  II  N N  N  G       !!!           |
|           W WW W  AAAAAA  RRRRR   N  N N  II  N  N N  G  GGG   !            |
|           WW  WW  A    A  R   R   N   NN  II  N   NN  G    G                |
|           W    W  A    A  R    R  N    N  II  N    N   GGGG   !!!           |
|                                                                             |
|     For optimal performance we recommend to set                             |
|       NCORE = 2 up to number-of-cores-per-socket                            |
|     NCORE specifies how many cores store one orbital (NPAR=cpu/NCORE).      |
|     This setting can greatly improve the performance of VASP for DFT.       |
|     The default, NCORE=1 might be grossly inefficient on modern             |
|     multi-core architectures or massively parallel machines. Do your        |
|     own testing! More info at https://www.vasp.at/wiki/index.php/NCORE      |
|     Unfortunately you need to use the default for GW and RPA                |
|     calculations (for HF NCORE is supported but not extensively tested      |
|     yet).                                                                   |
|                                                                             |
 -----------------------------------------------------------------------------

 -----------------------------------------------------------------------------
|                                                                             |
|               ----> ADVICE to this user running VASP <----                  |
|                                                                             |
|     You have a (more or less) 'large supercell' and for larger cells it     |
|     might be more efficient to use real-space projection operators.         |
|     Therefore, try LREAL= Auto in the INCAR file.                           |
|     Mind: If you want to do very accurate calculations, keep the            |
|     reciprocal projection scheme (i.e. LREAL=.FALSE.).                      |
|                                                                             |
 -----------------------------------------------------------------------------

 LDA part: xc-table for Pade appr. of Perdew
 POSCAR found type information on POSCAR Li
 POSCAR found :  1 types and     500 ions
 POSCAR, INCAR and KPOINTS ok, starting setup
 FFT: planning ...
 WAVECAR not read
 entering main loop
       N       E                     dE             d eps       ncg     rms          rms(c)
DAV:   1    -0.261095173508E+03   -0.26110E+03   -0.12348E+05  4008   0.662E+02
DAV:   2    -0.877286234836E+03   -0.61619E+03   -0.56377E+03  4612   0.689E+01
DAV:   3    -0.920573386715E+03   -0.43287E+02   -0.39459E+02  5160   0.144E+01
DAV:   4    -0.922006516701E+03   -0.14331E+01   -0.14113E+01  4672   0.287E+00
DAV:   5    -0.922039893006E+03   -0.33376E-01   -0.33315E-01  4832   0.460E-01    0.952E+00
DAV:   6    -0.922189579505E+03   -0.14969E+00   -0.11593E+01  4704   0.517E+00    0.892E+00
DAV:   7    -0.911527932453E+03    0.10662E+02   -0.11991E+01  4776   0.494E+00    0.488E+00
DAV:   8    -0.909130944370E+03    0.23970E+01   -0.52941E+00  4600   0.240E+00    0.274E+00
DAV:   9    -0.908590642191E+03    0.54030E+00   -0.25512E+00  4440   0.135E+00    0.149E+00
DAV:  10    -0.908661763873E+03   -0.71122E-01   -0.64877E-01  4808   0.882E-01    0.142E+00
DAV:  11    -0.908452293099E+03    0.20947E+00   -0.30959E-01  4624   0.578E-01    0.610E-01
DAV:  12    -0.908455010692E+03   -0.27176E-02   -0.84652E-02  4608   0.281E-01    0.441E-01
DAV:  13    -0.908442795936E+03    0.12215E-01   -0.40800E-02  4568   0.224E-01    0.276E-01
DAV:  14    -0.908438091955E+03    0.47040E-02   -0.10778E-02  4528   0.115E-01    0.138E-01
DAV:  15    -0.908437178946E+03    0.91301E-03   -0.36951E-03  4448   0.603E-02    0.694E-02
DAV:  16    -0.908437526347E+03   -0.34740E-03   -0.10881E-03  4848   0.418E-02    0.697E-02
DAV:  17    -0.908436878784E+03    0.64756E-03   -0.67441E-04  4680   0.307E-02    0.202E-02
DAV:  18    -0.908436872322E+03    0.64626E-05   -0.24038E-04  4424   0.133E-02    0.134E-02
DAV:  19    -0.908436861611E+03    0.10711E-04   -0.59167E-05  4616   0.824E-03    0.992E-03
DAV:  20    -0.908436848499E+03    0.13111E-04   -0.15077E-05  2944   0.476E-03    0.530E-03
DAV:  21    -0.908436841521E+03    0.69782E-05   -0.68067E-06  2160   0.266E-03
   1 F= -.90843684E+03 E0= -.90838321E+03  d E =-.107270E+00
