Li                                      
           1
    21.217000    0.000000    0.000000
     0.000000   21.217000    0.000000
    -0.000000   -0.000000   21.217000
   Li
   500
Direct configuration=     1
   0.99914611  0.01603131  0.01131440
   0.98679803  0.10180694  0.10426057
   0.99895382  0.19893057  0.21340152
   0.01740739  0.29951444  0.28554989
   0.01191922  0.40122615  0.41071964
   0.02805642  0.51033622  0.50923979
   0.02494448  0.60849614  0.59759284
   0.99267836  0.70072896  0.69221388
   0.98076326  0.77727558  0.80036716
   0.99541049  0.88914069  0.90859797
   0.09951622  0.00049233  0.10255006
   0.09756947  0.10103163  0.19969455
   0.11573307  0.20458761  0.29247598
   0.10852877  0.32069170  0.38616192
   0.11507601  0.40519045  0.48261188
   0.08843465  0.51312383  0.58347551
   0.09512393  0.60239327  0.70897653
   0.08611273  0.68899666  0.81164094
   0.09885979  0.78759609  0.90642110
   0.09127417  0.91707504  0.99240976
   0.19217629  0.00288446  0.21632417
   0.21592053  0.09283965  0.28635794
   0.18511169  0.19545018  0.38489758
   0.20347513  0.31255835  0.50138847
   0.19874571  0.42281433  0.59833958
   0.21317883  0.52034841  0.70205048
   0.20369173  0.62561004  0.81040971
   0.19355916  0.70758444  0.89846187
   0.21237805  0.80869039  0.98129153
   0.20471392  0.88518066  0.10706413
   0.28728493  0.99280846  0.29987996
   0.28036060  0.09949133  0.39520804
   0.29104485  0.18387717  0.48578481
   0.31336473  0.30053507  0.59366215
   0.31963060  0.38373118  0.68848329
   0.29016852  0.52083688  0.81144092
   0.31747369  0.60824019  0.90646167
   0.28393444  0.70152044  0.00511160
   0.29773354  0.80175512  0.07902422
   0.29757554  0.89819955  0.22387549
   0.40611271  0.00268369  0.40035620
   0.39671413  0.10579518  0.48287944
   0.39629475  0.19047020  0.60567460
   0.40923513  0.30502728  0.71324883
   0.38399287  0.39948659  0.81509571
   0.42113740  0.50599971  0.88139001
   0.40851682  0.61610316  0.03508526
   0.40613723  0.70498360  0.10738337
   0.38702798  0.80884654  0.19043800
   0.40792011  0.89389026  0.30562214
   0.49728471  0.02812647  0.49729873
   0.52464018  0.08082001  0.59906250
   0.49967794  0.19915361  0.71100299
   0.49518074  0.32193620  0.82008457
   0.48501868  0.41010519  0.89100041
   0.50084463  0.49796509  0.01618582
   0.50063200  0.60422374  0.11707641
   0.51242968  0.73656228  0.21501197
   0.49408027  0.80045247  0.31063658
   0.49712525  0.92774878  0.41146168
   0.60419760  0.98241131  0.62790090
   0.62048395  0.09200087  0.69897125
   0.58959057  0.20492647  0.81824325
   0.59242187  0.32951362  0.92097998
   0.58063066  0.41674960  0.99470196
   0.60111247  0.50851641  0.11502922
   0.63243457  0.60267438  0.20502157
   0.60958715  0.72506699  0.29496531
   0.58819466  0.81065183  0.41526057
   0.59526860  0.92127868  0.49446482
   0.71134020  0.00303788  0.70994511
   0.70927292  0.08509765  0.80480994
   0.67827835  0.21153614  0.90442547
   0.69486883  0.29767927  0.99157434
   0.68503388  0.42111037  0.08976341
   0.71445977  0.49345368  0.21304961
   0.71205888  0.61936306  0.30943337
   0.70354516  0.71545085  0.40733373
   0.69138711  0.80092516  0.50031025
   0.70756013  0.89830698  0.60384329
   0.81563806  0.99565238  0.77467494
   0.81158666  0.10075517  0.89997394
   0.79723377  0.18889526  0.98954461
   0.78995305  0.30414129  0.08492113
   0.80897034  0.39785061  0.20151335
   0.79944309  0.50177478  0.30174072
   0.79592917  0.60652582  0.42098906
   0.78439741  0.71109743  0.50828688
   0.78341387  0.79836745  0.59856549
   0.80669493  0.90595620  0.70412896
   0.90129554  0.01976133  0.90102812
   0.88872142  0.10827339  0.00088901
   0.91150063  0.20207896  0.09540444
   0.89867126  0.30305029  0.18576268
   0.89243183  0.39825690  0.30443975
   0.88768748  0.47598805  0.41280924
   0.89424065  0.60629007  0.51363649
   0.88588429  0.69740555  0.59373558
   0.89438662  0.79824667  0.70030831
   0.90728815  0.88663299  0.80319439
   0.09705820  0.11477611  0.01269764
   0.09399391  0.18995752  0.09511914
   0.11617565  0.30155170  0.17795694
   0.10764097  0.40571298  0.30102184
   0.11272433  0.51146244  0.38480781
   0.10290655  0.60753716  0.50174006
   0.10248677  0.71607978  0.59481707
   0.08229597  0.78566221  0.70271032
   0.07978872  0.89317501  0.80690572
   0.11373976  0.00288013  0.90891169
   0.18919477  0.10192741  0.09755073
   0.19362798  0.19006522  0.19280487
   0.18294693  0.29655771  0.30117759
   0.19885022  0.40252028  0.37538634
   0.21418003  0.51190050  0.48997065
   0.18396017  0.63463876  0.60797382
   0.17736264  0.70843769  0.69624920
   0.20017182  0.80101805  0.80250830
   0.18297250  0.90775573  0.88634770
   0.18937394  0.99058332  0.00172283
   0.30143187  0.10238944  0.19766380
   0.27572400  0.22098064  0.30153995
   0.28596531  0.27745123  0.39530084
   0.28936789  0.40909638  0.50202582
   0.31894619  0.49447335  0.62029757
   0.30246894  0.60740639  0.69704023
   0.30312225  0.71579250  0.78285375
   0.30747618  0.81163955  0.89197570
   0.28846929  0.91699698  0.97708468
   0.27622794  0.99763894  0.08403741
   0.39142349  0.08820030  0.29319144
   0.39721962  0.19182280  0.40001238
   0.38425440  0.29318053  0.49866196
   0.41904719  0.38653888  0.58058912
   0.38075525  0.49451427  0.71347417
   0.41678266  0.61657536  0.80487751
   0.39393362  0.68778406  0.90186157
   0.40420641  0.79539880  0.97077018
   0.38957390  0.90302027  0.07176786
   0.37726569  0.97822693  0.18701275
   0.50775735  0.07325476  0.39143163
   0.49389601  0.18602616  0.48075860
   0.50730316  0.29437418  0.59421846
   0.48932463  0.42871025  0.70774092
   0.51605237  0.50229122  0.79570975
   0.50818237  0.58887435  0.88711435
   0.48363109  0.69637268  0.00054548
   0.48910999  0.80849974  0.09566396
   0.49749256  0.88008411  0.17834099
   0.48590223  0.00352046  0.28381680
   0.61381971  0.08100725  0.49725397
   0.58798056  0.19133539  0.60529971
   0.57351510  0.31200010  0.69547062
   0.61195548  0.41333176  0.80655802
   0.59525781  0.51066235  0.91112619
   0.59880053  0.60682537  0.01353898
   0.58614465  0.68606174  0.11483335
   0.60380796  0.81844478  0.18498559
   0.58613063  0.89422486  0.28380989
   0.58935726  0.99168440  0.38039951
   0.69991428  0.09361985  0.59450391
   0.68735182  0.20426894  0.70165317
   0.68615188  0.30362393  0.82194353
   0.69545674  0.40020980  0.90530159
   0.68981464  0.48344979  0.99843621
   0.69909205  0.60238951  0.10679292
   0.69643662  0.69493056  0.18830686
   0.69625331  0.79379109  0.29421212
   0.68713695  0.91376462  0.38878578
   0.69918052  0.00035086  0.51017804
   0.81093289  0.10924862  0.69353171
   0.78342271  0.21739844  0.81980588
   0.80535818  0.29126767  0.90693776
   0.79162307  0.40681346  0.99313026
   0.79411484  0.49732439  0.10104824
   0.80137172  0.60016799  0.17294057
   0.78269610  0.70145092  0.28433985
   0.80539695  0.79985066  0.39976465
   0.79177543  0.90106712  0.50207893
   0.81281852  0.98859898  0.59469844
   0.90167804  0.11287684  0.80023243
   0.91375216  0.19638987  0.89302131
   0.89826792  0.28871300  0.99952753
   0.90086952  0.39953961  0.08219596
   0.88852442  0.50214953  0.18722766
   0.88539765  0.60154355  0.30438082
   0.88732297  0.70731070  0.40880505
   0.89170098  0.79150296  0.50388121
   0.89401516  0.88955149  0.59663724
   0.90822809  0.99903107  0.69714565
   0.00937851  0.10260452  0.90470598
   0.00317052  0.20348718  0.99625617
   0.99086076  0.29740061  0.09906815
   0.99339334  0.40834454  0.19923320
   0.97387190  0.50579536  0.29315023
   0.98901840  0.60932257  0.40384657
   0.99089779  0.69340447  0.49793185
   0.01165109  0.78966939  0.60732851
   0.99428915  0.90961921  0.69870591
   0.98586146  0.00577233  0.80350749
   0.22891749  0.18052511  0.00333438
   0.21011234  0.29104825  0.08698224
   0.21608717  0.39257494  0.20506293
   0.19415515  0.48439597  0.27757373
   0.21989443  0.61054103  0.38298656
   0.20415322  0.71455364  0.47967982
   0.18081625  0.80529906  0.61343879
   0.19255218  0.89094943  0.70036314
   0.18962643  0.00733068  0.78439523
   0.19710283  0.08322992  0.89823069
   0.31033385  0.17870924  0.10503181
   0.30890022  0.29668221  0.19660903
   0.30344451  0.38018846  0.29912917
   0.29793783  0.51074267  0.37740715
   0.30505656  0.60347286  0.51177635
   0.26587649  0.72132027  0.60990661
   0.30459853  0.79295825  0.70095911
   0.29123011  0.90126560  0.78831077
   0.30058316  0.99725010  0.89692471
   0.30128114  0.09293878  0.98947418
   0.39904459  0.19160617  0.20407063
   0.41305356  0.27811210  0.29622589
   0.38184598  0.40683198  0.40450150
   0.39947059  0.49163120  0.48890689
   0.39136302  0.60126886  0.60987092
   0.40185811  0.72241631  0.70282534
   0.39030287  0.79657567  0.80963707
   0.41019626  0.90751062  0.87922073
   0.39041176  0.00036422  0.99634273
   0.38888045  0.09376278  0.08771583
   0.49972334  0.17541083  0.30585180
   0.49766562  0.29420607  0.40525039
   0.51143775  0.39369879  0.46555108
   0.49025726  0.50750474  0.61548293
   0.48983606  0.59757042  0.70328063
   0.50110170  0.69720170  0.80143593
   0.51195987  0.79465893  0.89776487
   0.50783434  0.89464844  0.99557194
   0.50990539  0.99406970  0.10273349
   0.49127413  0.07206664  0.18727310
   0.59069853  0.18682419  0.39164753
   0.58668698  0.28813997  0.49073555
   0.60111825  0.40308472  0.60205734
   0.60190659  0.51648381  0.71230676
   0.62085708  0.61307088  0.80919914
   0.59884161  0.70070019  0.89947803
   0.58458380  0.78253562  0.01087289
   0.58738211  0.89346020  0.07604693
   0.62546607  0.00872806  0.17961696
   0.60031380  0.09535250  0.28315439
   0.69875038  0.19057333  0.49353749
   0.67162099  0.28165754  0.59791922
   0.69155096  0.38898494  0.71497756
   0.70968490  0.49918260  0.79519667
   0.71093721  0.61780460  0.90641368
   0.71319631  0.71766075  0.00385048
   0.68842495  0.80547056  0.10647935
   0.69916996  0.90196833  0.18550613
   0.70138906  0.99234967  0.30269401
   0.69049858  0.08886250  0.39886747
   0.80344214  0.18590520  0.60166543
   0.78585763  0.30215834  0.70768369
   0.80196523  0.41473233  0.81227949
   0.79716742  0.50373279  0.90667686
   0.80135899  0.59867256  0.01809044
   0.79736072  0.72020532  0.09774823
   0.81078632  0.80192454  0.20755300
   0.80003839  0.89244107  0.29584548
   0.81707877  0.99225317  0.39910593
   0.80334657  0.09873101  0.47716322
   0.89892461  0.20425837  0.70945566
   0.89749342  0.29385396  0.80287526
   0.88847624  0.40195721  0.90250199
   0.89049696  0.49777731  0.99757831
   0.91217862  0.58358629  0.10777171
   0.90879726  0.68676047  0.19543087
   0.90348217  0.78236060  0.30420217
   0.90102923  0.89829985  0.40224688
   0.91561881  0.99996267  0.50217426
   0.91024991  0.09833063  0.60001973
   0.01865969  0.18438067  0.80663223
   0.00044404  0.30437321  0.87628241
   0.00244374  0.37629354  0.98417173
   0.00119247  0.49173044  0.09095296
   0.00944768  0.59137402  0.19865979
   0.99932405  0.68456909  0.32320570
   0.99819763  0.79800441  0.40710302
   0.98752847  0.89070266  0.51709566
   0.99882921  0.00430176  0.58859300
   0.00159532  0.09326763  0.70718813
   0.10949874  0.20966142  0.89496848
   0.10248764  0.31529590  0.00718617
   0.09508236  0.40387699  0.09028210
   0.10965464  0.49056850  0.19561731
   0.11018929  0.59242382  0.28691458
   0.09233454  0.68920233  0.39857251
   0.09037092  0.78301044  0.47529388
   0.08383109  0.89437570  0.59672591
   0.08301248  0.01422627  0.69293011
   0.11186332  0.08783666  0.80845960
   0.30742557  0.30595216  0.02073345
   0.31842132  0.40694824  0.10149239
   0.31113895  0.51009795  0.21161870
   0.31419810  0.59624069  0.28796418
   0.30349593  0.69873127  0.40286351
   0.32633436  0.79872005  0.51343718
   0.29824847  0.89714965  0.60569289
   0.31454419  0.00029851  0.69650005
   0.29842567  0.08392160  0.81627114
   0.31553274  0.19218577  0.89478898
   0.40140273  0.29643439  0.08312283
   0.38950840  0.40204554  0.20028535
   0.41611589  0.50661126  0.27528628
   0.39123679  0.59954028  0.37424594
   0.40071879  0.70187115  0.51125388
   0.39520565  0.81032248  0.60567569
   0.38920797  0.89231808  0.70405438
   0.38750989  0.00994149  0.79681850
   0.41775341  0.09437315  0.91493501
   0.39253743  0.21250488  0.00129153
   0.49692222  0.30068597  0.19871506
   0.49439340  0.38169190  0.30395840
   0.49380618  0.49906502  0.38071454
   0.50180835  0.57854188  0.50433136
   0.51325797  0.68742650  0.59624394
   0.49284964  0.78691095  0.69279765
   0.48830946  0.88546262  0.79783436
   0.51173301  0.99792813  0.89476842
   0.51101728  0.09711832  0.02302913
   0.50182082  0.19930245  0.09998937
   0.60272800  0.28333585  0.28856062
   0.60359633  0.39900904  0.38563716
   0.59299288  0.49681938  0.48591696
   0.59733580  0.57860385  0.62106198
   0.58814310  0.70159017  0.69176291
   0.60976091  0.81581206  0.79845973
   0.59121785  0.87956105  0.90689144
   0.61493270  0.99612057  0.00146297
   0.61562761  0.09813393  0.09499758
   0.58381509  0.18866177  0.20924883
   0.70097523  0.29293256  0.39776462
   0.69678493  0.37883146  0.50616374
   0.69257438  0.48420923  0.59777411
   0.70132136  0.59617840  0.69001606
   0.68474184  0.69411319  0.79974514
   0.68769035  0.78578199  0.89396365
   0.71529654  0.89589354  0.98850551
   0.70350194  0.98731996  0.09592864
   0.71359521  0.10672261  0.18921349
   0.70025941  0.18327284  0.28658492
   0.80789273  0.29819603  0.51866714
   0.81876319  0.38601454  0.61446709
   0.80900175  0.49671493  0.68258200
   0.80225615  0.58126030  0.81771884
   0.80300741  0.69392904  0.90666633
   0.78457131  0.80416914  0.00002555
   0.80182576  0.88938726  0.10408137
   0.81421154  0.98158660  0.18490789
   0.80673454  0.08836144  0.28306822
   0.79659397  0.18540358  0.40025911
   0.92739025  0.30401043  0.60867615
   0.91657509  0.40554849  0.70631783
   0.89840667  0.50298147  0.79404104
   0.88216552  0.59521799  0.93502399
   0.89452117  0.69587132  0.01350662
   0.90461600  0.80060828  0.09235243
   0.91624529  0.89282653  0.21055183
   0.88815816  0.98261587  0.29292511
   0.92500199  0.07788333  0.39645798
   0.91119025  0.19737268  0.49237272
   0.02379851  0.30183231  0.71976998
   0.00594540  0.41211568  0.79895488
   0.99173746  0.48343724  0.90954704
   0.99833342  0.60210044  0.99766649
   0.00651004  0.69638253  0.09812304
   0.00691713  0.79660524  0.20770674
   0.99768852  0.89307839  0.31153610
   0.00123583  0.00252099  0.40310533
   0.01207925  0.11772273  0.48327279
   0.99406652  0.21468180  0.61079230
   0.11748784  0.31142215  0.78600757
   0.10530642  0.40182570  0.86741512
   0.08652877  0.50657034  0.99179641
   0.08161702  0.58298851  0.10080073
   0.10851195  0.70161906  0.19416692
   0.09573043  0.79191883  0.32297702
   0.10124268  0.90889145  0.40509205
   0.09258379  0.00569661  0.49023737
   0.10266211  0.12265129  0.58114238
   0.13324124  0.20647682  0.70631772
   0.22086748  0.28707753  0.92303333
   0.19702022  0.41831906  0.01008510
   0.20765301  0.49927745  0.11465138
   0.20533057  0.61044080  0.19496021
   0.21848013  0.71039216  0.29827782
   0.21865274  0.79144127  0.40007878
   0.20218374  0.88245741  0.50216377
   0.17575742  0.99603557  0.59288826
   0.19782433  0.09175206  0.69095604
   0.19580842  0.20356350  0.80381102
   0.38647311  0.42152141  0.02005049
   0.41721606  0.51344275  0.12183324
   0.40963298  0.62431821  0.21810906
   0.41205793  0.71831796  0.30185695
   0.40555291  0.80625164  0.39046302
   0.39623763  0.90607352  0.51021176
   0.41203370  0.01591701  0.60709122
   0.41074089  0.10946390  0.71219106
   0.40790359  0.20662392  0.80305794
   0.39608930  0.30193253  0.91768166
   0.48806832  0.38902609  0.09810482
   0.50537244  0.49134813  0.19286176
   0.51988328  0.61748827  0.30264558
   0.51916596  0.69232698  0.41524917
   0.48546109  0.80485577  0.51807017
   0.49621648  0.90954998  0.58198016
   0.49764100  0.98812601  0.71106099
   0.51668300  0.10472641  0.79276560
   0.49141682  0.21091279  0.90227634
   0.47570775  0.32147109  0.99207949
   0.60201347  0.39160917  0.19002707
   0.59132202  0.50771165  0.29818026
   0.60739533  0.58980048  0.39822078
   0.61728919  0.67698203  0.51051147
   0.59167949  0.81293512  0.59728835
   0.59977671  0.90240291  0.69024089
   0.59205805  0.97326617  0.80666211
   0.58903020  0.09549622  0.90207523
   0.57995400  0.20949568  0.99390777
   0.58565124  0.30983795  0.08407786
   0.69599182  0.38842192  0.30518541
   0.72510968  0.48487237  0.39561234
   0.69813924  0.60532299  0.50324855
   0.69694402  0.70308018  0.60409146
   0.69772906  0.81106776  0.71268562
   0.69744385  0.90238452  0.80093083
   0.68802295  0.01304084  0.89145552
   0.70483087  0.10095831  0.99635788
   0.68717494  0.19420538  0.09617011
   0.68254399  0.30107853  0.19356054
   0.81797048  0.38256662  0.40517392
   0.79842360  0.48566801  0.49540513
   0.78263864  0.59641578  0.59061447
   0.79703104  0.69170878  0.70114887
   0.80466495  0.78928308  0.79140958
   0.78769051  0.91201225  0.88723251
   0.80490633  0.99614364  0.99246042
   0.79268866  0.11994546  0.09542731
   0.79285465  0.20058613  0.19239169
   0.78671582  0.29344655  0.29651389
   0.91000928  0.38889319  0.51457293
   0.92511424  0.48973390  0.61008544
   0.89393771  0.60009465  0.68452116
   0.88810429  0.68180431  0.80681686
   0.87887089  0.80077439  0.90464102
   0.90421886  0.91176265  0.99766260
   0.89031850  0.00541118  0.08547980
   0.88683361  0.09688384  0.20941218
   0.89830363  0.19983846  0.30067399
   0.90215941  0.30263929  0.39979592
   0.02279128  0.40189538  0.62656975
   0.00481201  0.50689675  0.70387553
   0.95844964  0.59946382  0.80888755
   0.98379846  0.69872080  0.92041996
   0.00339359  0.81550933  0.00188069
   0.00341825  0.90124055  0.11296933
   0.98877025  0.99076289  0.21353718
   0.99119515  0.09190802  0.28313211
   0.02031452  0.22094068  0.39499845
   0.01753012  0.31148180  0.50733141
   0.12048575  0.42963241  0.70635665
   0.11899950  0.51623990  0.81616646
   0.07901193  0.59385650  0.89785481
   0.10145710  0.67754536  0.01738852
   0.11014447  0.80008111  0.08910732
   0.10262004  0.89106109  0.20384817
   0.08669868  0.99186209  0.29928526
   0.10771655  0.09996696  0.38960460
   0.09111231  0.20305223  0.49660884
   0.13230768  0.30769952  0.62392400
   0.22806124  0.40801493  0.80705662
   0.20715576  0.50842418  0.90405311
   0.19638909  0.59603425  0.00482238
   0.18577495  0.70346665  0.09149186
   0.20397543  0.80979014  0.22054432
   0.19329605  0.89003168  0.31815051
   0.19248682  0.99868415  0.42069748
   0.20649012  0.09249196  0.49926403
   0.20494855  0.21000449  0.58151248
   0.21619050  0.31344869  0.69176141
   0.31088629  0.40963088  0.91160636
   0.31938489  0.51125888  0.99720565
   0.31402676  0.59707732  0.10137127
   0.31623145  0.71022381  0.18269057
   0.30357701  0.79856563  0.31171470
   0.30084801  0.90635143  0.41766192
   0.30284406  0.00563443  0.52565635
   0.29969303  0.10304015  0.60788908
   0.28725187  0.19394302  0.71350188
   0.29443875  0.30363975  0.81012430
