 running on   64 total cores
 distrk:  each k-point on   32 cores,    2 groups
 distr:  one band on   32 cores,    1 groups
 vasp.6.2.1 16May21 (build Nov 23 2021 15:40:41) complex                        
  
 POSCAR found type information on POSCAR Li
 POSCAR found :  1 types and     504 ions
 scaLAPACK will be used
 -----------------------------------------------------------------------------
|                                                                             |
|           W    W    AA    RRRRR   N    N  II  N    N   GGGG   !!!           |
|           W    W   A  A   R    R  NN   N  II  NN   N  G    G  !!!           |
|           W    W  A    A  R    R  N N  N  II  N N  N  G       !!!           |
|           W WW W  AAAAAA  RRRRR   N  N N  II  N  N N  G  GGG   !            |
|           WW  WW  A    A  R   R   N   NN  II  N   NN  G    G                |
|           W    W  A    A  R    R  N    N  II  N    N   GGGG   !!!           |
|                                                                             |
|     For optimal performance we recommend to set                             |
|       NCORE = 2 up to number-of-cores-per-socket                            |
|     NCORE specifies how many cores store one orbital (NPAR=cpu/NCORE).      |
|     This setting can greatly improve the performance of VASP for DFT.       |
|     The default, NCORE=1 might be grossly inefficient on modern             |
|     multi-core architectures or massively parallel machines. Do your        |
|     own testing! More info at https://www.vasp.at/wiki/index.php/NCORE      |
|     Unfortunately you need to use the default for GW and RPA                |
|     calculations (for HF NCORE is supported but not extensively tested      |
|     yet).                                                                   |
|                                                                             |
 -----------------------------------------------------------------------------

 -----------------------------------------------------------------------------
|                                                                             |
|               ----> ADVICE to this user running VASP <----                  |
|                                                                             |
|     You have a (more or less) 'large supercell' and for larger cells it     |
|     might be more efficient to use real-space projection operators.         |
|     Therefore, try LREAL= Auto in the INCAR file.                           |
|     Mind: If you want to do very accurate calculations, keep the            |
|     reciprocal projection scheme (i.e. LREAL=.FALSE.).                      |
|                                                                             |
 -----------------------------------------------------------------------------

 LDA part: xc-table for Pade appr. of Perdew
 POSCAR found type information on POSCAR Li
 POSCAR found :  1 types and     504 ions
 POSCAR, INCAR and KPOINTS ok, starting setup
 FFT: planning ...
 WAVECAR not read
 entering main loop
       N       E                     dE             d eps       ncg     rms          rms(c)
DAV:   1    -0.234870101699E+03   -0.23487E+03   -0.12446E+05  4040   0.662E+02
DAV:   2    -0.867087313019E+03   -0.63222E+03   -0.57731E+03  4652   0.692E+01
DAV:   3    -0.912880448032E+03   -0.45793E+02   -0.41865E+02  5232   0.147E+01
DAV:   4    -0.914448002155E+03   -0.15676E+01   -0.15437E+01  4776   0.297E+00
DAV:   5    -0.914486213949E+03   -0.38212E-01   -0.38130E-01  4952   0.484E-01    0.116E+01
DAV:   6    -0.913356798614E+03    0.11294E+01   -0.17631E+01  4872   0.668E+00    0.108E+01
DAV:   7    -0.898238316330E+03    0.15118E+02   -0.17090E+01  4984   0.607E+00    0.613E+00
DAV:   8    -0.894183798159E+03    0.40545E+01   -0.87931E+00  4792   0.328E+00    0.354E+00
DAV:   9    -0.894118421559E+03    0.65377E-01   -0.45161E+00  4744   0.221E+00    0.297E+00
DAV:  10    -0.893044894558E+03    0.10735E+01   -0.21967E+00  4720   0.154E+00    0.134E+00
DAV:  11    -0.892996593004E+03    0.48302E-01   -0.68715E-01  4440   0.648E-01    0.819E-01
DAV:  12    -0.893005671308E+03   -0.90783E-02   -0.15518E-01  5048   0.445E-01    0.708E-01
DAV:  13    -0.892959656107E+03    0.46015E-01   -0.67189E-02  4872   0.301E-01    0.359E-01
DAV:  14    -0.892960458320E+03   -0.80221E-03   -0.23653E-02  4800   0.181E-01    0.282E-01
DAV:  15    -0.892953857209E+03    0.66011E-02   -0.14247E-02  4840   0.142E-01    0.153E-01
DAV:  16    -0.892952362850E+03    0.14944E-02   -0.53058E-03  4584   0.704E-02    0.658E-02
DAV:  17    -0.892952570917E+03   -0.20807E-03   -0.12179E-03  4688   0.406E-02    0.581E-02
DAV:  18    -0.892952172086E+03    0.39883E-03   -0.67888E-04  4640   0.297E-02    0.264E-02
DAV:  19    -0.892952129054E+03    0.43032E-04   -0.20077E-04  4512   0.134E-02    0.153E-02
DAV:  20    -0.892952105749E+03    0.23305E-04   -0.71430E-05  4496   0.783E-03    0.714E-03
DAV:  21    -0.892952105624E+03    0.12571E-06   -0.12227E-05  2888   0.447E-03
   1 F= -.89295211E+03 E0= -.89289309E+03  d E =-.118032E+00
