Li                                      
           1
   -10.527895   18.234849   -0.000000
   -18.047820  -10.419914    0.000000
    -0.000000    0.000000   22.082050
   Li
   504
Direct configuration=     1
   0.99704236  0.00405875  0.01601483
   0.93369485  0.04010751  0.67345152
   0.88795808  0.08715536  0.33090747
   0.79739342  0.10129607  0.00453279
   0.74120025  0.15747880  0.67367877
   0.66337910  0.19704111  0.32923598
   0.56470584  0.25463713  0.00984081
   0.47731379  0.29189946  0.64727324
   0.40631001  0.34752460  0.30973371
   0.33375060  0.36651233  0.99536840
   0.27375598  0.42673575  0.64260294
   0.21185961  0.42674029  0.33019316
   0.05791315  0.06088941  0.66520861
   0.00876494  0.09954165  0.35153121
   0.92664497  0.11600774  0.01914290
   0.86749359  0.15466341  0.66113353
   0.78981246  0.20347685  0.34779632
   0.70853904  0.25854099  0.99461309
   0.64428265  0.28421053  0.65502863
   0.57635523  0.33306936  0.34269225
   0.47901039  0.36124172  0.00898450
   0.42659643  0.41364993  0.67155847
   0.34854829  0.45436145  0.33002643
   0.28868848  0.51562933  0.99902521
   0.14178846  0.07712818  0.33382015
   0.07115465  0.14192887  0.99780842
   0.99564042  0.18205700  0.67112902
   0.92506290  0.23198621  0.35433448
   0.84517800  0.23565406  0.99689016
   0.81503703  0.29724121  0.67529910
   0.70033521  0.32786791  0.31727072
   0.61980022  0.37503016  0.01072639
   0.58458531  0.40222847  0.66687044
   0.49973704  0.45743103  0.33251021
   0.44728945  0.49454545  0.00102669
   0.35240206  0.53832619  0.67009087
   0.20123697  0.11650364  0.99929067
   0.14671401  0.19268846  0.63596906
   0.09294321  0.21679493  0.33205928
   0.98657257  0.25508133  0.02043307
   0.92358206  0.30074561  0.68320212
   0.84592593  0.36116901  0.32278456
   0.78016896  0.37695340  0.01308953
   0.71638511  0.40840931  0.65842320
   0.64060918  0.46071053  0.31399106
   0.57394150  0.49125484  0.00992491
   0.50605203  0.54920587  0.64926276
   0.45323592  0.57617020  0.34895325
   0.28527058  0.18159656  0.64791818
   0.23081216  0.19603359  0.32746248
   0.13306003  0.25909588  0.98063707
   0.05360259  0.30145377  0.65381920
   0.98380922  0.33932806  0.34261378
   0.91475023  0.38852554  0.00093429
   0.85289081  0.42298320  0.68083366
   0.77136957  0.46431020  0.32359011
   0.72358845  0.50620783  0.96456824
   0.63198661  0.54075663  0.65787489
   0.57482896  0.59602113  0.35272399
   0.49927286  0.61226012  0.97685365
   0.34168050  0.21898299  0.29630873
   0.25856613  0.23320574  0.98084781
   0.22075557  0.30596695  0.65466520
   0.13662104  0.33940308  0.32484983
   0.04968994  0.39277709  0.98895443
   0.99404704  0.43924486  0.68339339
   0.91945397  0.45677906  0.33233842
   0.86680378  0.52035095  0.99485652
   0.77013078  0.55258267  0.65422900
   0.71912373  0.59199832  0.33280906
   0.63179481  0.60719904  0.99389162
   0.58416869  0.66654265  0.64441990
   0.41259111  0.23324934  0.99493575
   0.33491690  0.30866480  0.67116568
   0.28783456  0.31635223  0.31440165
   0.19928238  0.41484179  0.97115687
   0.12579048  0.43398623  0.66243581
   0.06566817  0.44958307  0.33348633
   0.99852988  0.51249778  0.01986844
   0.92375975  0.52433250  0.66909160
   0.85523850  0.58609520  0.31764907
   0.81117434  0.65665863  0.99027349
   0.72792724  0.64837852  0.68299445
   0.62834083  0.72209016  0.33110226
   0.12099691  0.50942823  0.01657614
   0.08301917  0.55097416  0.65045077
   0.02058809  0.56590046  0.32586158
   0.93297480  0.63684275  0.99968204
   0.85978193  0.63762886  0.68013471
   0.77369317  0.72208701  0.34481385
   0.70945059  0.73953990  0.99592666
   0.21939087  0.55126083  0.68007921
   0.15829501  0.54421995  0.33280193
   0.05234877  0.62836507  0.00385443
   0.02106440  0.65151883  0.68441521
   0.93859159  0.70994690  0.33054680
   0.87325413  0.74445226  0.03279816
   0.79880892  0.74878354  0.65863606
   0.31281734  0.56132796  0.33739181
   0.21230902  0.63367613  0.02461030
   0.14137691  0.66462676  0.68071771
   0.09076884  0.67443281  0.36966217
   0.01586291  0.76789435  0.01278214
   0.93395138  0.79652046  0.68284870
   0.86730958  0.81689035  0.33713510
   0.36382996  0.61909415  0.01811348
   0.29521774  0.64288817  0.66453154
   0.26228749  0.69393634  0.36278132
   0.14426655  0.75739492  0.00746078
   0.05666424  0.80490450  0.68483706
   0.99208029  0.82771026  0.35848465
   0.92010348  0.86919988  0.03405710
   0.43939759  0.64504783  0.66712757
   0.36316280  0.67098143  0.34953631
   0.28363113  0.75910563  0.01841889
   0.22321999  0.78271470  0.67643714
   0.14370647  0.83855313  0.36096127
   0.07065530  0.88250930  0.02155824
   0.99232192  0.92838404  0.68843834
   0.94265174  0.97301074  0.33121821
   0.86438629  0.99179772  0.01577557
   0.78977381  0.02506816  0.69421738
   0.70090048  0.07787048  0.34047091
   0.65960720  0.13036674  0.00381571
   0.58372185  0.17247892  0.65856314
   0.51118787  0.20385477  0.32383060
   0.09700660  0.96919282  0.34187101
   0.11554762  0.00095395  0.99194421
   0.20914022  0.05055112  0.67219570
   0.26679806  0.12090571  0.33723390
   0.34043803  0.11966789  0.98118754
   0.43090498  0.16364371  0.65926110
   0.84173464  0.90105173  0.68328373
   0.80888880  0.96867028  0.34673223
   0.70953725  0.98335015  0.99689357
   0.63653370  0.05286239  0.66438360
   0.56819823  0.08181135  0.33242456
   0.51756011  0.12983508  0.00064673
   0.13514929  0.92690172  0.68429818
   0.21343574  0.97819513  0.33043311
   0.27806628  0.99511548  0.97232581
   0.34555498  0.02681709  0.66835178
   0.43502177  0.09244600  0.32259766
   0.77852013  0.84491864  0.02563583
   0.73490659  0.88190817  0.67321656
   0.68010585  0.94178623  0.32621666
   0.58017212  0.99865747  0.00092688
   0.49003484  0.02788567  0.66472878
   0.22123717  0.86807141  0.99522722
   0.28317947  0.93128863  0.67065499
   0.35757135  0.98518802  0.33571589
   0.41131991  0.99142982  0.98968328
   0.71543941  0.85376211  0.35716959
   0.63558346  0.87468434  0.97755121
   0.56857785  0.91436479  0.64840431
   0.51390888  0.94300650  0.31820613
   0.29258779  0.82235372  0.34426266
   0.36285700  0.88394550  0.00306890
   0.42985258  0.90897823  0.63855546
   0.66681585  0.78903807  0.64196318
   0.58244179  0.80845813  0.30928075
   0.49873181  0.86420212  0.98512183
   0.37124141  0.78531033  0.65904977
   0.42644404  0.84479195  0.32070821
   0.57451084  0.75770416  0.99382273
   0.51546435  0.78297354  0.64908739
   0.43600549  0.74493731  0.97212681
   0.49034251  0.71146353  0.34089807
   0.98440801  0.01010563  0.79580655
   0.94369028  0.02092492  0.45930157
   0.85644229  0.08469201  0.11812919
   0.81489527  0.13063981  0.77712380
   0.73211416  0.17133890  0.44500092
   0.61712289  0.18938221  0.11031823
   0.56601758  0.26750875  0.74996044
   0.51257533  0.29245944  0.43913369
   0.42088893  0.32938465  0.11218111
   0.34018888  0.35822720  0.75213755
   0.28720982  0.40550446  0.42631305
   0.23168839  0.47608145  0.10619862
   0.07472870  0.01338555  0.44635874
   0.98413140  0.11226598  0.11898332
   0.92274691  0.12847689  0.78165653
   0.86725141  0.14381670  0.45199131
   0.76071673  0.21164845  0.10954720
   0.71919909  0.26146014  0.77168942
   0.63297288  0.28285120  0.43592040
   0.56694854  0.32844311  0.12992431
   0.46803522  0.37767890  0.76943693
   0.42255250  0.40283340  0.43625274
   0.35978585  0.45143347  0.09794521
   0.28104437  0.49643978  0.76113189
   0.15918891  0.08277545  0.08104061
   0.06908231  0.14066256  0.80623143
   0.02174619  0.14918613  0.42221556
   0.91532336  0.23157272  0.13709261
   0.86631403  0.25341209  0.79336717
   0.79778331  0.30035895  0.44873249
   0.68282524  0.31504802  0.10980507
   0.62588951  0.35501980  0.78541176
   0.57093431  0.40961774  0.43432603
   0.49912954  0.44459686  0.12782188
   0.39107546  0.49969360  0.76483692
   0.37018338  0.51156451  0.43486358
   0.19827745  0.14216007  0.76761757
   0.13774465  0.17040659  0.42270883
   0.07581490  0.22242531  0.11593087
   0.96384310  0.29922498  0.77936281
   0.92196169  0.26528702  0.44544718
   0.84762661  0.33190843  0.11908250
   0.78863172  0.35987749  0.77497925
   0.70082549  0.42451567  0.45568115
   0.65196480  0.47091710  0.09591416
   0.58344083  0.46387283  0.77126096
   0.49127009  0.53924407  0.45958244
   0.41567704  0.59336816  0.12984630
   0.30033402  0.16973608  0.45002447
   0.18956850  0.21796212  0.09141042
   0.11972534  0.26558813  0.76082539
   0.07397276  0.27751548  0.43991842
   0.97533711  0.34610146  0.11311799
   0.91979182  0.40494573  0.79677622
   0.84475851  0.41991800  0.45485761
   0.75557723  0.45088848  0.11796552
   0.74590651  0.49377532  0.76788477
   0.63200460  0.54085061  0.43591561
   0.56662338  0.57791131  0.11376972
   0.51207184  0.59917775  0.76454007
   0.34487989  0.21186493  0.08453781
   0.26856483  0.26765093  0.77908662
   0.20878882  0.28007178  0.43355606
   0.12611601  0.35618099  0.07754185
   0.05086835  0.40002312  0.77210382
   0.99712019  0.41525577  0.43959998
   0.91260316  0.46835765  0.10415524
   0.85110576  0.51515213  0.78865103
   0.78637128  0.50786582  0.44494514
   0.71979723  0.58791180  0.10552576
   0.62743346  0.60782329  0.75243589
   0.60388848  0.67006726  0.45678634
   0.42019715  0.25879500  0.79685396
   0.35273050  0.27485174  0.41668451
   0.28387580  0.31643124  0.07391171
   0.18892500  0.38457125  0.75205913
   0.13409467  0.40436616  0.44904026
   0.04588347  0.45894094  0.15177679
   0.00842717  0.53046857  0.76732956
   0.92189374  0.54123659  0.44915164
   0.85967162  0.59554783  0.12395497
   0.77714045  0.63930190  0.78833858
   0.71885862  0.67059208  0.40153223
   0.62960018  0.70113848  0.12205580
   0.14651290  0.54004168  0.77544664
   0.08917187  0.54296274  0.45136680
   0.99936902  0.59087401  0.12312280
   0.93689299  0.64207931  0.77781043
   0.87424080  0.65836413  0.44310330
   0.79949004  0.72959583  0.13296765
   0.72123913  0.73779351  0.76212659
   0.24038768  0.53365577  0.42906447
   0.11514487  0.58242147  0.12747796
   0.08034708  0.62215499  0.79020259
   0.00227453  0.65618525  0.45205560
   0.94549930  0.68425308  0.12360485
   0.85883955  0.74050864  0.77055656
   0.77978150  0.80655651  0.45206667
   0.28480682  0.61635838  0.11046574
   0.20909753  0.64605956  0.78781050
   0.15676617  0.64711195  0.44250765
   0.07301079  0.72425500  0.12906129
   0.02232032  0.75656390  0.81609130
   0.94503281  0.77037404  0.44366912
   0.87144755  0.82457367  0.12296494
   0.34303915  0.61266440  0.78001997
   0.32143278  0.63348267  0.46277304
   0.19669273  0.70271501  0.12951333
   0.11751145  0.74979834  0.79679465
   0.07216656  0.76140498  0.46626235
   0.00954639  0.83544847  0.14022359
   0.94574331  0.86298273  0.78297397
   0.45779265  0.64432450  0.44862654
   0.33180759  0.73320068  0.12689374
   0.29586097  0.75067463  0.78593951
   0.23556963  0.74220997  0.45829255
   0.15267385  0.85425330  0.14188721
   0.07930299  0.90489507  0.77384907
   0.02048204  0.88699362  0.45206383
   0.94360053  0.95117548  0.11515575
   0.85255855  0.95802306  0.78929694
   0.79333578  0.04355931  0.44125791
   0.70295801  0.05013867  0.07892835
   0.67637849  0.15015846  0.79012007
   0.57324464  0.15575685  0.45085260
   0.48585303  0.22096835  0.12241973
   0.08676688  0.97874653  0.10196666
   0.14126822  0.02058761  0.78623858
   0.20178222  0.03890085  0.45162914
   0.27931521  0.07928002  0.07548418
   0.33167691  0.13154369  0.75943870
   0.45689344  0.21384194  0.42556694
   0.89542329  0.89091394  0.44947379
   0.80288865  0.94969790  0.13422863
   0.71654423  0.99196350  0.78906335
   0.65388412  0.02608588  0.44509905
   0.58733587  0.06606379  0.09513589
   0.49661619  0.14424163  0.77459006
   0.16960243  0.88970124  0.44854490
   0.24356662  0.98239284  0.11802724
   0.28074827  0.99376833  0.77527667
   0.33593588  0.07080019  0.42662187
   0.42284767  0.11471500  0.09323314
   0.80531078  0.84045775  0.80700217
   0.71550691  0.93940815  0.44703543
   0.62215854  0.94310838  0.08048720
   0.56650046  0.02780396  0.76125254
   0.50503380  0.06185600  0.42519238
   0.20102293  0.88511065  0.78410964
   0.28451429  0.88024559  0.43085750
   0.35964854  0.97723498  0.13954834
   0.45069284  0.01087330  0.75748444
   0.72464323  0.81436553  0.10474281
   0.65893642  0.87619031  0.77177244
   0.59963610  0.92994110  0.42782197
   0.46342546  0.97163069  0.11016936
   0.26368491  0.85837721  0.12540595
   0.36847900  0.87739711  0.74036094
   0.41222124  0.94208750  0.42301798
   0.65506897  0.79639783  0.43886825
   0.54024970  0.83617072  0.10186284
   0.51057571  0.87042717  0.73149627
   0.38354846  0.76591742  0.44984395
   0.41010398  0.83091873  0.08822218
   0.60933720  0.73794166  0.77831455
   0.51867922  0.79534074  0.44035041
   0.46236558  0.73329791  0.76813596
   0.47650666  0.68506565  0.08546357
   0.04223714  0.02514481  0.25149705
   0.92412846  0.05184342  0.89201473
   0.86139104  0.08100672  0.56234446
   0.78758478  0.12365768  0.24013232
   0.71575441  0.16969817  0.90085010
   0.64133195  0.18383799  0.54379510
   0.56389876  0.24401983  0.24990020
   0.48087996  0.30110175  0.89324943
   0.41049653  0.33176242  0.53024755
   0.32078169  0.37018501  0.19857396
   0.28033132  0.40961382  0.87496584
   0.20361170  0.45023555  0.55096423
   0.04939736  0.04360260  0.89861001
   0.99955097  0.10781464  0.56817520
   0.93195704  0.12843451  0.24349535
   0.86723853  0.16768816  0.90765400
   0.79808612  0.20865488  0.54908366
   0.68218986  0.24419091  0.23479032
   0.61380755  0.27903794  0.89596058
   0.57337618  0.30986817  0.54279231
   0.47728220  0.36067207  0.23343509
   0.40675109  0.44605668  0.88166674
   0.37094544  0.45814272  0.55707605
   0.28432717  0.49470170  0.22809889
   0.13839021  0.09256408  0.55451242
   0.09428280  0.15092111  0.21217982
   0.97464926  0.18977277  0.89448853
   0.92961542  0.22409212  0.56373046
   0.82562348  0.25132491  0.24268941
   0.76437554  0.27783728  0.88162028
   0.72423432  0.32043876  0.55147440
   0.62631874  0.37297489  0.23468920
   0.55447994  0.39008438  0.88598992
   0.48750826  0.43686477  0.54759433
   0.40809106  0.47946020  0.22397980
   0.33629386  0.54158176  0.89945200
   0.21359760  0.13029667  0.18254364
   0.13324358  0.16843709  0.89336721
   0.08186137  0.22967488  0.54802163
   0.00290421  0.23722199  0.22855129
   0.91093574  0.30156255  0.90324377
   0.86773830  0.33856124  0.56939080
   0.75476448  0.37454328  0.20675995
   0.66457332  0.42204669  0.89403260
   0.62841755  0.44088380  0.54453220
   0.55663899  0.50651030  0.24335805
   0.50254424  0.52067692  0.86089891
   0.42533777  0.57816321  0.54805275
   0.28430903  0.17580891  0.87556266
   0.22696359  0.20181164  0.53158215
   0.16791286  0.26609074  0.22268671
   0.04853082  0.30164788  0.90106148
   0.99219334  0.33157375  0.54278296
   0.89577629  0.37693553  0.21568590
   0.81925839  0.41290606  0.90173955
   0.77961801  0.46476017  0.57260799
   0.71998244  0.50338562  0.21502364
   0.62114303  0.53767762  0.88387519
   0.55456378  0.58775191  0.55736268
   0.49963055  0.62963162  0.23453752
   0.34625672  0.22402059  0.57048577
   0.29063209  0.25485316  0.20246016
   0.18111890  0.30734687  0.88706976
   0.14854206  0.33512593  0.53621229
   0.06038074  0.35979498  0.20696078
   0.97533659  0.43714143  0.88024066
   0.89831524  0.48277891  0.55805254
   0.86276847  0.48910377  0.20749175
   0.77836540  0.54148998  0.88896934
   0.68315050  0.58617001  0.53233217
   0.64592853  0.62579284  0.24366831
   0.57199285  0.67859167  0.89214068
   0.43751305  0.25460971  0.23049648
   0.32628971  0.28937936  0.88592331
   0.30789731  0.33976863  0.54686642
   0.22027463  0.38548151  0.20896785
   0.11922187  0.43593791  0.88371249
   0.06311339  0.44971224  0.55577064
   0.98011544  0.50454397  0.23745695
   0.91376388  0.56478885  0.86994457
   0.83100631  0.57196428  0.56552935
   0.79439553  0.62778734  0.22106234
   0.71071961  0.65317391  0.88393104
   0.67426412  0.70408156  0.56548771
   0.13385507  0.48148912  0.22237672
   0.05437573  0.56569190  0.89271079
   0.99645649  0.58984827  0.55326992
   0.95703389  0.61441989  0.22257043
   0.86382261  0.66884207  0.88399767
   0.80872243  0.69949259  0.54302921
   0.70917099  0.76120016  0.23917751
   0.19598191  0.54424711  0.91003121
   0.17020469  0.60335556  0.55855324
   0.07453490  0.63201219  0.24469258
   0.01550916  0.68351103  0.90007961
   0.93466281  0.71192664  0.57376778
   0.85004035  0.76399199  0.22582832
   0.79676928  0.76457382  0.90831448
   0.28943920  0.55231220  0.56741749
   0.20932935  0.62377329  0.22570434
   0.14056576  0.67118738  0.91155093
   0.08158554  0.70496301  0.55703262
   0.01039237  0.75881877  0.24943846
   0.91699076  0.78865422  0.90412480
   0.86173296  0.81627265  0.55483893
   0.36654204  0.59846779  0.23486673
   0.28472421  0.64450373  0.90888970
   0.23701291  0.71824529  0.56896743
   0.16027036  0.77922738  0.24622895
   0.06408540  0.83421632  0.90575223
   0.99773082  0.83369680  0.54464736
   0.93532389  0.89702339  0.23490534
   0.43976802  0.64142756  0.88722379
   0.36907073  0.68392427  0.56590941
   0.28319399  0.75780030  0.22249400
   0.20276603  0.74859064  0.88621834
   0.13619715  0.81509681  0.57300856
   0.07130743  0.88878277  0.23113853
   0.98430792  0.92361193  0.91005519
   0.94197453  0.96224886  0.55949409
   0.87536211  0.00746754  0.23186529
   0.77542004  0.05995616  0.89695170
   0.72273385  0.07697213  0.56451161
   0.62796729  0.12670949  0.22624899
   0.54298803  0.17272579  0.88710101
   0.49773675  0.23308408  0.55796223
   0.08311268  0.96082559  0.56299354
   0.19299053  0.99173844  0.19845074
   0.21376098  0.06959795  0.90012164
   0.29362732  0.08990090  0.55336621
   0.34577448  0.13706563  0.21238102
   0.41478680  0.15127315  0.89288623
   0.85855892  0.89662695  0.92178420
   0.80414069  0.95761776  0.56362599
   0.73796578  0.01526281  0.21863796
   0.64651434  0.03757772  0.89184070
   0.56737662  0.08652000  0.56499866
   0.48468535  0.12175475  0.21181247
   0.15917034  0.93210846  0.88746516
   0.21786219  0.95862758  0.57551222
   0.31553265  0.01941202  0.21755475
   0.36662761  0.04706440  0.86561321
   0.44132890  0.10473828  0.54398204
   0.80234486  0.86122916  0.23417834
   0.73375004  0.87926986  0.89480032
   0.67399502  0.97596765  0.58280324
   0.58010636  0.99706025  0.21205436
   0.52099100  0.04169519  0.87608609
   0.22909191  0.91658790  0.24083280
   0.29348807  0.88654914  0.86692992
   0.36204704  0.96463346  0.52546391
   0.45589656  0.99607192  0.21162201
   0.72671291  0.84237252  0.55463140
   0.64414119  0.85148940  0.19550423
   0.59198382  0.90501695  0.86419831
   0.49670527  0.96583607  0.52235643
   0.30410854  0.80893236  0.54777200
   0.35035823  0.88175098  0.21182487
   0.44536944  0.89341005  0.85397756
   0.68145537  0.76701256  0.88226440
   0.60632556  0.83547078  0.54844376
   0.49984354  0.87155804  0.21041004
   0.36529630  0.78440444  0.90494746
   0.43950600  0.82827032  0.54115106
   0.55474285  0.73848655  0.20434554
   0.51931224  0.78148081  0.86139605
   0.43408059  0.73789054  0.22029667
   0.51095967  0.72348244  0.54072009
