 500 500   0   0
  0.1852332E+02  0.2100050E-08  0.2100050E-08  0.2100050E-08  0.5000000E-15
  1.000000000000000E-004
  CAR 
 Li                                      
      4.03475905     -3.33048978  301      0.64331247      1.00000000
     -3.330  0.0000E+00  0.0000E+00
     -3.306  0.0000E+00  0.0000E+00
     -3.281  0.0000E+00  0.0000E+00
     -3.257  0.0000E+00  0.0000E+00
     -3.232  0.0000E+00  0.0000E+00
     -3.208  0.0000E+00  0.0000E+00
     -3.183  0.0000E+00  0.0000E+00
     -3.159  0.6331E-12  0.1554E-13
     -3.134  0.2753E-08  0.6760E-10
     -3.110  0.3230E-05  0.7938E-07
     -3.085  0.1031E-02  0.2540E-04
     -3.060  0.9098E-01  0.2259E-02
     -3.036  0.2266E+01  0.5789E-01
     -3.011  0.1637E+02  0.4598E+00
     -2.987  0.3521E+02  0.1324E+01
     -2.962  0.2285E+02  0.1885E+01
     -2.938  0.4866E+01  0.2004E+01
     -2.913  0.8394E+01  0.2211E+01
     -2.889  0.4931E+02  0.3421E+01
     -2.864  0.1001E+03  0.5879E+01
     -2.839  0.6919E+02  0.7577E+01
     -2.815  0.1642E+02  0.7980E+01
     -2.790  0.9004E+01  0.8201E+01
     -2.766  0.4826E+02  0.9386E+01
     -2.741  0.9975E+02  0.1184E+02
     -2.717  0.7029E+02  0.1356E+02
     -2.692  0.1713E+02  0.1398E+02
     -2.668  0.1128E+02  0.1426E+02
     -2.643  0.6139E+02  0.1577E+02
     -2.619  0.1286E+03  0.1892E+02
     -2.594  0.9663E+02  0.2130E+02
     -2.569  0.2717E+02  0.2196E+02
     -2.545  0.1844E+02  0.2242E+02
     -2.520  0.8833E+02  0.2458E+02
     -2.496  0.1824E+03  0.2906E+02
     -2.471  0.1485E+03  0.3271E+02
     -2.447  0.4723E+02  0.3387E+02
     -2.422  0.1116E+02  0.3414E+02
     -2.398  0.4305E+02  0.3520E+02
     -2.373  0.1008E+03  0.3767E+02
     -2.348  0.7552E+02  0.3953E+02
     -2.324  0.1876E+02  0.3999E+02
     -2.299  0.1462E+02  0.4035E+02
     -2.275  0.7756E+02  0.4225E+02
     -2.250  0.1734E+03  0.4651E+02
     -2.226  0.1580E+03  0.5039E+02
     -2.201  0.5911E+02  0.5184E+02
     -2.177  0.3001E+02  0.5257E+02
     -2.152  0.1165E+03  0.5544E+02
     -2.127  0.2447E+03  0.6144E+02
     -2.103  0.2315E+03  0.6712E+02
     -2.078  0.9888E+02  0.6955E+02
     -2.054  0.2174E+02  0.7009E+02
     -2.029  0.3420E+02  0.7093E+02
     -2.005  0.8772E+02  0.7308E+02
     -1.980  0.8550E+02  0.7518E+02
     -1.956  0.3069E+02  0.7593E+02
     -1.931  0.1761E+02  0.7636E+02
     -1.907  0.8411E+02  0.7843E+02
     -1.882  0.1949E+03  0.8321E+02
     -1.857  0.1883E+03  0.8784E+02
     -1.833  0.7652E+02  0.8972E+02
     -1.808  0.2745E+02  0.9039E+02
     -1.784  0.9838E+02  0.9281E+02
     -1.759  0.2337E+03  0.9854E+02
     -1.735  0.2455E+03  0.1046E+03
     -1.710  0.1162E+03  0.1074E+03
     -1.686  0.2526E+02  0.1080E+03
     -1.661  0.3668E+02  0.1089E+03
     -1.636  0.1332E+03  0.1122E+03
     -1.612  0.1883E+03  0.1168E+03
     -1.587  0.1063E+03  0.1194E+03
     -1.563  0.4368E+02  0.1205E+03
     -1.538  0.1071E+03  0.1232E+03
     -1.514  0.2257E+03  0.1287E+03
     -1.489  0.2362E+03  0.1345E+03
     -1.465  0.1180E+03  0.1374E+03
     -1.440  0.3548E+02  0.1383E+03
     -1.416  0.8053E+02  0.1402E+03
     -1.391  0.2100E+03  0.1454E+03
     -1.366  0.2513E+03  0.1516E+03
     -1.342  0.1421E+03  0.1551E+03
     -1.317  0.4190E+02  0.1561E+03
     -1.293  0.5502E+02  0.1574E+03
     -1.268  0.1494E+03  0.1611E+03
     -1.244  0.1759E+03  0.1654E+03
     -1.219  0.8941E+02  0.1676E+03
     -1.195  0.3967E+02  0.1686E+03
     -1.170  0.8167E+02  0.1706E+03
     -1.145  0.1282E+03  0.1737E+03
     -1.121  0.1337E+03  0.1770E+03
     -1.096  0.9336E+02  0.1793E+03
     -1.072  0.5503E+02  0.1807E+03
     -1.047  0.1301E+03  0.1839E+03
     -1.023  0.2860E+03  0.1909E+03
     -0.998  0.3680E+03  0.1999E+03
     -0.974  0.2773E+03  0.2067E+03
     -0.949  0.1256E+03  0.2098E+03
     -0.925  0.1045E+03  0.2124E+03
     -0.900  0.2047E+03  0.2174E+03
     -0.875  0.2364E+03  0.2232E+03
     -0.851  0.1506E+03  0.2269E+03
     -0.826  0.6546E+02  0.2285E+03
     -0.802  0.5306E+02  0.2298E+03
     -0.777  0.9613E+02  0.2322E+03
     -0.753  0.1802E+03  0.2366E+03
     -0.728  0.1757E+03  0.2409E+03
     -0.704  0.1515E+03  0.2446E+03
     -0.679  0.2078E+03  0.2497E+03
     -0.654  0.2342E+03  0.2555E+03
     -0.630  0.2353E+03  0.2613E+03
     -0.605  0.1501E+03  0.2649E+03
     -0.581  0.4054E+02  0.2659E+03
     -0.556  0.1890E+02  0.2664E+03
     -0.532  0.6767E+02  0.2681E+03
     -0.507  0.1013E+03  0.2705E+03
     -0.483  0.5923E+02  0.2720E+03
     -0.458  0.6774E+02  0.2737E+03
     -0.433  0.1774E+03  0.2780E+03
     -0.409  0.2828E+03  0.2850E+03
     -0.384  0.3283E+03  0.2930E+03
     -0.360  0.3221E+03  0.3009E+03
     -0.335  0.2272E+03  0.3065E+03
     -0.311  0.1483E+03  0.3101E+03
     -0.286  0.1987E+03  0.3150E+03
     -0.262  0.2836E+03  0.3220E+03
     -0.237  0.2925E+03  0.3292E+03
     -0.213  0.2096E+03  0.3343E+03
     -0.188  0.1122E+03  0.3371E+03
     -0.163  0.6082E+02  0.3386E+03
     -0.139  0.1051E+03  0.3411E+03
     -0.114  0.1712E+03  0.3454E+03
     -0.090  0.1986E+03  0.3502E+03
     -0.065  0.1663E+03  0.3543E+03
     -0.041  0.1180E+03  0.3572E+03
     -0.016  0.1525E+03  0.3610E+03
      0.008  0.1855E+03  0.3655E+03
      0.033  0.1865E+03  0.3701E+03
      0.058  0.1955E+03  0.3749E+03
      0.082  0.2403E+03  0.3808E+03
      0.107  0.2975E+03  0.3881E+03
      0.131  0.2709E+03  0.3947E+03
      0.156  0.2062E+03  0.3998E+03
      0.180  0.2162E+03  0.4051E+03
      0.205  0.2302E+03  0.4108E+03
      0.229  0.1564E+03  0.4146E+03
      0.254  0.6343E+02  0.4162E+03
      0.278  0.7980E+02  0.4181E+03
      0.303  0.1876E+03  0.4227E+03
      0.328  0.2688E+03  0.4293E+03
      0.352  0.2843E+03  0.4363E+03
      0.377  0.2544E+03  0.4425E+03
      0.401  0.1941E+03  0.4473E+03
      0.426  0.1631E+03  0.4513E+03
      0.450  0.1945E+03  0.4561E+03
      0.475  0.2217E+03  0.4615E+03
      0.499  0.2400E+03  0.4674E+03
      0.524  0.2290E+03  0.4731E+03
      0.549  0.1765E+03  0.4774E+03
      0.573  0.1713E+03  0.4816E+03
      0.598  0.2444E+03  0.4876E+03
      0.622  0.2820E+03  0.4945E+03
      0.647  0.2571E+03  0.5008E+03
      0.671  0.2218E+03  0.5063E+03
      0.696  0.2081E+03  0.5114E+03
      0.720  0.2239E+03  0.5169E+03
      0.745  0.2270E+03  0.5224E+03
      0.769  0.2304E+03  0.5281E+03
      0.794  0.2585E+03  0.5344E+03
      0.819  0.2851E+03  0.5414E+03
      0.843  0.3119E+03  0.5491E+03
      0.868  0.3338E+03  0.5573E+03
      0.892  0.3403E+03  0.5657E+03
      0.917  0.3301E+03  0.5738E+03
      0.941  0.3119E+03  0.5814E+03
      0.966  0.2984E+03  0.5887E+03
      0.990  0.3061E+03  0.5963E+03
      1.015  0.2990E+03  0.6036E+03
      1.040  0.2470E+03  0.6097E+03
      1.064  0.1648E+03  0.6137E+03
      1.089  0.7509E+02  0.6156E+03
      1.113  0.2577E+02  0.6162E+03
      1.138  0.4970E+02  0.6174E+03
      1.162  0.1059E+03  0.6200E+03
      1.187  0.1302E+03  0.6232E+03
      1.211  0.1598E+03  0.6271E+03
      1.236  0.1877E+03  0.6317E+03
      1.261  0.2040E+03  0.6367E+03
      1.285  0.2379E+03  0.6426E+03
      1.310  0.2565E+03  0.6489E+03
      1.334  0.2376E+03  0.6547E+03
      1.359  0.2173E+03  0.6600E+03
      1.383  0.2377E+03  0.6659E+03
      1.408  0.2644E+03  0.6724E+03
      1.432  0.2810E+03  0.6793E+03
      1.457  0.2929E+03  0.6865E+03
      1.481  0.2888E+03  0.6936E+03
      1.506  0.2668E+03  0.7001E+03
      1.531  0.2302E+03  0.7058E+03
      1.555  0.2025E+03  0.7107E+03
      1.580  0.1816E+03  0.7152E+03
      1.604  0.1685E+03  0.7193E+03
      1.629  0.1809E+03  0.7238E+03
      1.653  0.2032E+03  0.7288E+03
      1.678  0.1993E+03  0.7337E+03
      1.702  0.1917E+03  0.7384E+03
      1.727  0.2042E+03  0.7434E+03
      1.752  0.2168E+03  0.7487E+03
      1.776  0.2117E+03  0.7539E+03
      1.801  0.1873E+03  0.7585E+03
      1.825  0.1662E+03  0.7626E+03
      1.850  0.1642E+03  0.7666E+03
      1.874  0.1553E+03  0.7704E+03
      1.899  0.1371E+03  0.7738E+03
      1.923  0.1518E+03  0.7775E+03
      1.948  0.1743E+03  0.7818E+03
      1.972  0.1597E+03  0.7857E+03
      1.997  0.1178E+03  0.7886E+03
      2.022  0.7855E+02  0.7905E+03
      2.046  0.9318E+02  0.7928E+03
      2.071  0.1376E+03  0.7962E+03
      2.095  0.1702E+03  0.8004E+03
      2.120  0.1920E+03  0.8051E+03
      2.144  0.2085E+03  0.8102E+03
      2.169  0.2284E+03  0.8158E+03
      2.193  0.2427E+03  0.8218E+03
      2.218  0.2409E+03  0.8277E+03
      2.243  0.2439E+03  0.8337E+03
      2.267  0.2461E+03  0.8397E+03
      2.292  0.2453E+03  0.8457E+03
      2.316  0.2256E+03  0.8513E+03
      2.341  0.2091E+03  0.8564E+03
      2.365  0.2036E+03  0.8614E+03
      2.390  0.1811E+03  0.8658E+03
      2.414  0.1419E+03  0.8693E+03
      2.439  0.1397E+03  0.8728E+03
      2.464  0.1476E+03  0.8764E+03
      2.488  0.1114E+03  0.8791E+03
      2.513  0.7923E+02  0.8811E+03
      2.537  0.1155E+03  0.8839E+03
      2.562  0.1559E+03  0.8877E+03
      2.586  0.1651E+03  0.8918E+03
      2.611  0.1552E+03  0.8956E+03
      2.635  0.1311E+03  0.8988E+03
      2.660  0.1213E+03  0.9018E+03
      2.684  0.1407E+03  0.9052E+03
      2.709  0.1536E+03  0.9090E+03
      2.734  0.1508E+03  0.9127E+03
      2.758  0.1536E+03  0.9165E+03
      2.783  0.1405E+03  0.9199E+03
      2.807  0.1048E+03  0.9225E+03
      2.832  0.1039E+03  0.9251E+03
      2.856  0.1334E+03  0.9283E+03
      2.881  0.1544E+03  0.9321E+03
      2.905  0.1458E+03  0.9357E+03
      2.930  0.1340E+03  0.9390E+03
      2.955  0.1255E+03  0.9421E+03
      2.979  0.9169E+02  0.9443E+03
      3.004  0.6572E+02  0.9459E+03
      3.028  0.7574E+02  0.9478E+03
      3.053  0.9923E+02  0.9502E+03
      3.077  0.9921E+02  0.9527E+03
      3.102  0.1064E+03  0.9553E+03
      3.126  0.1423E+03  0.9588E+03
      3.151  0.1667E+03  0.9629E+03
      3.175  0.1691E+03  0.9670E+03
      3.200  0.1685E+03  0.9712E+03
      3.225  0.1683E+03  0.9753E+03
      3.249  0.1698E+03  0.9795E+03
      3.274  0.1531E+03  0.9832E+03
      3.298  0.1115E+03  0.9860E+03
      3.323  0.6201E+02  0.9875E+03
      3.347  0.1896E+02  0.9879E+03
      3.372  0.2223E+01  0.9880E+03
      3.396  0.8319E-01  0.9880E+03
      3.421  0.9165E-03  0.9880E+03
      3.446  0.2911E-04  0.9880E+03
      3.470  0.5444E-02  0.9880E+03
      3.495  0.3254E+00  0.9880E+03
      3.519  0.5845E+01  0.9882E+03
      3.544  0.3393E+02  0.9890E+03
      3.568  0.7547E+02  0.9908E+03
      3.593  0.9851E+02  0.9933E+03
      3.617  0.1131E+03  0.9960E+03
      3.642  0.9788E+02  0.9984E+03
      3.666  0.6020E+02  0.9999E+03
      3.691  0.4026E+02  0.1001E+04
      3.716  0.3118E+02  0.1002E+04
      3.740  0.1200E+02  0.1002E+04
      3.765  0.1527E+01  0.1002E+04
      3.789  0.5780E-01  0.1002E+04
      3.814  0.6223E-03  0.1002E+04
      3.838  0.1858E-05  0.1002E+04
      3.863  0.1513E-08  0.1002E+04
      3.887  0.3346E-12  0.1002E+04
      3.912  0.0000E+00  0.1002E+04
      3.937  0.0000E+00  0.1002E+04
      3.961  0.0000E+00  0.1002E+04
      3.986  0.0000E+00  0.1002E+04
      4.010  0.0000E+00  0.1002E+04
      4.035  0.0000E+00  0.1002E+04
