       N       E                     dE             d eps       ncg     rms          rms(c)
DAV:   1    -0.267644607283E+03   -0.26764E+03   -0.12452E+05  4008   0.665E+02
DAV:   2    -0.887718515762E+03   -0.62007E+03   -0.56846E+03  4612   0.698E+01
DAV:   3    -0.930400441492E+03   -0.42682E+02   -0.38742E+02  5128   0.144E+01
DAV:   4    -0.931791714906E+03   -0.13913E+01   -0.13695E+01  4608   0.285E+00
DAV:   5    -0.931822499815E+03   -0.30785E-01   -0.30734E-01  4736   0.452E-01    0.751E+00
DAV:   6    -0.929069203609E+03    0.27533E+01   -0.67595E+00  4496   0.348E+00    0.603E+00
DAV:   7    -0.926182864126E+03    0.28863E+01   -0.55276E+00  4576   0.328E+00    0.437E+00
DAV:   8    -0.924058483498E+03    0.21244E+01   -0.28312E+00  4528   0.190E+00    0.235E+00
DAV:   9    -0.923625794437E+03    0.43269E+00   -0.14896E+00  4432   0.101E+00    0.125E+00
DAV:  10    -0.923702004761E+03   -0.76210E-01   -0.40020E-01  4632   0.692E-01    0.122E+00
DAV:  11    -0.923535561559E+03    0.16644E+00   -0.20354E-01  4560   0.506E-01    0.536E-01
DAV:  12    -0.923527463646E+03    0.80979E-02   -0.54883E-02  4344   0.203E-01    0.276E-01
DAV:  13    -0.923528047026E+03   -0.58338E-03   -0.15724E-02  4712   0.153E-01    0.230E-01
DAV:  14    -0.923523219873E+03    0.48272E-02   -0.51366E-03  4552   0.952E-02    0.994E-02
DAV:  15    -0.923522638812E+03    0.58106E-03   -0.17700E-03  4504   0.468E-02    0.518E-02
DAV:  16    -0.923522836641E+03   -0.19783E-03   -0.75494E-04  4624   0.343E-02    0.527E-02
DAV:  17    -0.923522427927E+03    0.40871E-03   -0.44929E-04  4552   0.248E-02    0.147E-02
DAV:  18    -0.923522403569E+03    0.24358E-04   -0.14340E-04  4320   0.937E-03    0.842E-03
DAV:  19    -0.923522397682E+03    0.58862E-05   -0.18655E-05  2992   0.509E-03
   1 F= -.92352240E+03 E0= -.92346772E+03  d E =-.109349E+00
