Li                                      
           1
    21.000500    0.000000    0.000000
     0.000000   21.000500    0.000000
     0.000000    0.000000   21.000500
   Li
   500
Direct configuration=     1
   0.00798712  0.00365086  0.99986413
   0.00217253  0.10633350  0.09681981
   0.00807295  0.21762566  0.19390982
   0.00685701  0.30318496  0.29619789
   0.00878880  0.39727890  0.40738182
   0.00388547  0.49350461  0.51025855
   0.00827262  0.59173824  0.60331741
   0.99736042  0.69596419  0.71159344
   0.00515406  0.80758532  0.79544509
   0.00501707  0.90375425  0.89792379
   0.09734114  0.00375746  0.09819666
   0.10336450  0.10223256  0.20039907
   0.09060685  0.20363852  0.30393304
   0.11140929  0.30784712  0.39354531
   0.11526956  0.39070637  0.49849261
   0.09640413  0.49490917  0.59932301
   0.09602692  0.59189696  0.69920757
   0.11117091  0.71188818  0.80431096
   0.09900806  0.80257857  0.90113402
   0.08651556  0.91331463  0.99589414
   0.20758807  0.01147939  0.19220188
   0.19637609  0.10842134  0.32101098
   0.19957423  0.21905155  0.39483783
   0.21655636  0.30732968  0.50190587
   0.20098057  0.39970991  0.61180013
   0.18500710  0.50864096  0.71305153
   0.20271279  0.59455378  0.82027608
   0.19737990  0.71136968  0.90674649
   0.19730979  0.80160267  0.00758352
   0.19296992  0.89137590  0.09435890
   0.30309237  0.99914713  0.31060240
   0.29998831  0.10368819  0.40084802
   0.30863739  0.19659554  0.48491107
   0.31091282  0.29859054  0.59873659
   0.30413120  0.40618397  0.71269485
   0.30811220  0.49847600  0.79835402
   0.30788847  0.59109311  0.91069492
   0.29484826  0.69838552  0.99945775
   0.29244354  0.79841899  0.09284785
   0.29936091  0.89456828  0.19000620
   0.39462839  0.00289856  0.39843879
   0.39477902  0.11020993  0.49269227
   0.40953434  0.20344114  0.58742807
   0.39583753  0.31389855  0.69398856
   0.40905263  0.39726305  0.80245086
   0.41325429  0.49048684  0.90562438
   0.41116096  0.60600637  0.01217483
   0.40582687  0.69973223  0.10707788
   0.41505201  0.78073493  0.20277329
   0.39837756  0.87959316  0.31671518
   0.49455748  0.99526396  0.50592890
   0.49884705  0.09145436  0.59615511
   0.49415932  0.20708064  0.68445026
   0.48207768  0.31045331  0.80317799
   0.49833105  0.40748955  0.90686979
   0.50021247  0.49398637  0.01957999
   0.52043171  0.59104485  0.11162181
   0.50885894  0.69607859  0.19139892
   0.50907084  0.78658046  0.30268736
   0.49544219  0.88954840  0.41135578
   0.59635441  0.98862035  0.59928857
   0.60202350  0.10286252  0.70793250
   0.59848644  0.22081186  0.80935989
   0.59652000  0.32034411  0.88525546
   0.60457040  0.39315730  0.00956366
   0.60220010  0.50709868  0.10330945
   0.62447807  0.61548054  0.21824827
   0.59817988  0.70431207  0.30665190
   0.58797354  0.79535124  0.40246870
   0.60464918  0.88872384  0.49596350
   0.70762060  0.99202952  0.69461600
   0.68345554  0.09323549  0.80017233
   0.70643788  0.20212344  0.87997716
   0.70503355  0.29911698  0.99360465
   0.70361268  0.40899889  0.11865073
   0.70737451  0.49183118  0.22014547
   0.70774905  0.59230133  0.29717215
   0.69231216  0.69923596  0.40753739
   0.69470823  0.78208289  0.51853155
   0.68841579  0.88093854  0.60260611
   0.80335242  0.00380132  0.79708317
   0.80028405  0.10306054  0.90940475
   0.79354357  0.20021682  0.99863960
   0.77884700  0.30045265  0.10589762
   0.81445674  0.40563324  0.21091814
   0.80241509  0.46873597  0.30320122
   0.79919517  0.59367281  0.39382550
   0.81362375  0.70779562  0.49720705
   0.80391000  0.79849391  0.59814838
   0.81264360  0.89342798  0.69518461
   0.90330032  0.00092246  0.89010886
   0.89161654  0.09920066  0.00149416
   0.88909577  0.20681724  0.09407158
   0.89732917  0.30479770  0.19872910
   0.91679075  0.40558740  0.30872219
   0.89756391  0.49848750  0.40545683
   0.90082325  0.58711796  0.49376816
   0.91955653  0.71292596  0.59405946
   0.90051336  0.80730511  0.70002803
   0.90624964  0.91771154  0.79966885
   0.11591864  0.10155174  0.99773896
   0.08819533  0.19806025  0.10183657
   0.10758866  0.28334881  0.19623730
   0.09868129  0.41497950  0.28910840
   0.10787703  0.50590474  0.39997582
   0.10448530  0.60176697  0.50638811
   0.10554973  0.70522479  0.61169076
   0.10391376  0.80140541  0.70771998
   0.11104076  0.90743600  0.80247717
   0.10593383  0.01001113  0.89532631
   0.20916085  0.10023940  0.08968570
   0.20340726  0.18672249  0.20204684
   0.19778772  0.30997929  0.26854836
   0.21067186  0.40850644  0.37875138
   0.20454501  0.49414336  0.49379521
   0.18989021  0.60900079  0.59919346
   0.20608363  0.69043219  0.71917592
   0.20445595  0.79536866  0.80809780
   0.20058139  0.90509406  0.90570534
   0.18942482  0.99746304  0.99171040
   0.30253164  0.10483434  0.21374204
   0.30983196  0.19993330  0.29922063
   0.30313116  0.30463794  0.38679426
   0.28800619  0.40772175  0.51157828
   0.29350377  0.49649955  0.60727497
   0.28839557  0.60478190  0.71386540
   0.31390718  0.70389780  0.80914942
   0.30074242  0.79575340  0.91023895
   0.28744486  0.90781128  0.00395777
   0.30497375  0.98842271  0.09120412
   0.41243438  0.10288359  0.29892448
   0.41426812  0.19969629  0.40214900
   0.39098794  0.31291807  0.48665526
   0.40218380  0.41363651  0.60526940
   0.39105045  0.50767602  0.69082450
   0.39594244  0.60545342  0.80524675
   0.40692970  0.69601034  0.90290690
   0.40916390  0.79748842  0.01446770
   0.41911544  0.89324964  0.09276041
   0.39847607  0.98354688  0.20260115
   0.50108609  0.09222243  0.41425740
   0.48819246  0.19462233  0.50649024
   0.50126302  0.30111971  0.58873228
   0.49751171  0.42135891  0.70456956
   0.49560900  0.50553542  0.80695444
   0.50591412  0.58721570  0.90913291
   0.50368330  0.69107468  0.00226811
   0.50761952  0.80412363  0.09968768
   0.49797868  0.89966065  0.21151553
   0.49418646  0.99087431  0.28697442
   0.59343738  0.10181594  0.49248486
   0.58717847  0.19204243  0.58651956
   0.59658139  0.29844763  0.69974655
   0.58808402  0.40691244  0.79659812
   0.59031234  0.49241417  0.90957543
   0.61348713  0.59703919  0.99345831
   0.60760067  0.68574317  0.10599880
   0.59736558  0.79249114  0.19311920
   0.61388205  0.89959200  0.29414834
   0.58476907  0.98909123  0.39755375
   0.69656214  0.09672703  0.61157652
   0.69767959  0.20228139  0.69287616
   0.71203921  0.30238434  0.78755763
   0.70916348  0.39634641  0.89632385
   0.70400223  0.47492012  0.00240667
   0.70947705  0.58599064  0.10116094
   0.71877728  0.70693013  0.20886848
   0.70975386  0.79987006  0.30431534
   0.69097593  0.89575857  0.40274721
   0.67198667  0.00137317  0.50539533
   0.80028421  0.10674270  0.71082377
   0.79953108  0.19473010  0.78990953
   0.80465191  0.28842117  0.90357399
   0.79830149  0.39097776  0.99635559
   0.80614269  0.50032321  0.10165425
   0.80728538  0.59979447  0.21807376
   0.79360904  0.69873417  0.32294208
   0.81209627  0.79638715  0.40386083
   0.78947447  0.90056714  0.50578306
   0.79661017  0.00247412  0.59013325
   0.89986871  0.08992115  0.78793467
   0.89894360  0.19023588  0.89297820
   0.89328113  0.29260961  0.98851503
   0.90190293  0.39928500  0.10745647
   0.90494478  0.49845544  0.19631077
   0.89854944  0.59342104  0.30677281
   0.90826151  0.68477968  0.41430444
   0.90919027  0.79828222  0.49881231
   0.89941526  0.90714129  0.59196142
   0.90872660  0.98441995  0.68514801
   0.01481141  0.10001193  0.91703274
   0.00382122  0.18929295  0.99363603
   0.99139446  0.29189093  0.09203053
   0.02081834  0.38946999  0.17757318
   0.99657896  0.50672943  0.28694422
   0.99791538  0.59335697  0.40935822
   0.00711843  0.70175295  0.50841984
   0.00208671  0.80133619  0.61686280
   0.00980765  0.91547682  0.70728368
   0.00621020  0.01048086  0.81316441
   0.19673821  0.19880260  0.99717288
   0.21016928  0.29965130  0.10905376
   0.19848398  0.41225262  0.19442065
   0.19727190  0.51246151  0.28445068
   0.19458848  0.61432709  0.39944053
   0.19705898  0.70626867  0.51138249
   0.21260931  0.79619800  0.60821593
   0.20100888  0.90820721  0.70551561
   0.20721835  0.99584461  0.78919795
   0.21406688  0.11040870  0.89063199
   0.29913318  0.19789955  0.09078921
   0.30686044  0.28837484  0.18681369
   0.30444195  0.40735513  0.27925771
   0.28113770  0.50854504  0.38141482
   0.29705755  0.59658016  0.50041803
   0.30649902  0.69776267  0.59680587
   0.30743536  0.80440099  0.70695544
   0.30467524  0.90295329  0.80351897
   0.30455078  0.00065793  0.88734094
   0.30274639  0.10075852  0.99333496
   0.38756269  0.20039747  0.19749900
   0.39860918  0.30867299  0.29459439
   0.38948923  0.42923559  0.39286513
   0.38323201  0.50419235  0.49409754
   0.39456261  0.59195648  0.60675792
   0.39350329  0.69209363  0.70493796
   0.38668307  0.80262381  0.80132294
   0.41075600  0.89393715  0.91953711
   0.40201305  0.99829350  0.00109101
   0.38892072  0.08908806  0.10376104
   0.49975922  0.19798045  0.30825250
   0.50197974  0.30324188  0.39282965
   0.47798351  0.40232319  0.50230657
   0.48947578  0.51295407  0.59571460
   0.49833443  0.59803800  0.70636543
   0.48970342  0.69642043  0.81187168
   0.49672989  0.79169931  0.89781818
   0.50847078  0.90163128  0.99989174
   0.50485245  0.00464205  0.09517960
   0.49743986  0.09539415  0.20283226
   0.58564669  0.20265793  0.39748963
   0.59111508  0.29013761  0.49300109
   0.58316864  0.41096416  0.58332803
   0.60831341  0.50618333  0.70844838
   0.58706203  0.60018251  0.80855684
   0.59502836  0.69732735  0.88574124
   0.59299085  0.79915628  0.00182749
   0.59408445  0.89885024  0.10656255
   0.60862079  0.00931738  0.19941898
   0.59095174  0.10141999  0.30843318
   0.69127124  0.20114099  0.50479892
   0.69415999  0.31236564  0.59083100
   0.69541399  0.39917033  0.69385019
   0.69322413  0.50682839  0.80256236
   0.69870993  0.59922407  0.90745270
   0.69180713  0.71425566  0.99572660
   0.69948074  0.80569178  0.10837067
   0.70462737  0.89903181  0.19527896
   0.69122818  0.00503677  0.29708295
   0.70380736  0.09953402  0.39973531
   0.79447812  0.20441154  0.60118309
   0.79557053  0.29931619  0.70103518
   0.78540478  0.39228525  0.80206575
   0.80190163  0.50619970  0.90171168
   0.79453988  0.61006635  0.99816238
   0.80042500  0.70582527  0.10245933
   0.80873111  0.79959739  0.19996750
   0.79269822  0.90476407  0.31687848
   0.78883313  0.00410543  0.40889760
   0.78915712  0.10195230  0.49487641
   0.89323722  0.19060563  0.69601381
   0.89885377  0.29413604  0.79485661
   0.88298199  0.38774184  0.89242319
   0.89560513  0.50497154  0.00123012
   0.90691328  0.60108832  0.09662495
   0.90228698  0.70378126  0.21436773
   0.90367632  0.80575489  0.31719071
   0.89163321  0.90332215  0.39387385
   0.89834625  0.01589804  0.49188631
   0.88466482  0.10199575  0.60611899
   0.99262913  0.18717999  0.79279616
   0.99731351  0.28720261  0.90789182
   0.98026138  0.40008292  0.00681951
   0.00305190  0.49878425  0.09179708
   0.99900231  0.60364159  0.19645895
   0.00506288  0.69872390  0.31530048
   0.99721236  0.80514483  0.40077518
   0.99926394  0.89919648  0.49782344
   0.99730860  0.01170747  0.59512866
   0.00242775  0.10121178  0.70481246
   0.10672361  0.21361297  0.88301041
   0.10447113  0.28564747  0.98789572
   0.09774210  0.38808140  0.09771144
   0.10055176  0.50815430  0.19576336
   0.09743917  0.60410774  0.29523663
   0.10094222  0.70303365  0.39493285
   0.09230030  0.80868587  0.49950476
   0.09431046  0.90725207  0.61115054
   0.08598044  0.00741766  0.70994474
   0.09640179  0.11146488  0.80985368
   0.30266010  0.30854459  0.99750857
   0.30437199  0.39319800  0.10074702
   0.30289396  0.52326952  0.18869630
   0.27483266  0.59222562  0.28755052
   0.29435370  0.70230553  0.40273431
   0.28791977  0.80640979  0.51391749
   0.28674340  0.90489291  0.61121110
   0.30503581  0.00011909  0.69704229
   0.30695319  0.10368223  0.78259243
   0.30933685  0.21441656  0.89311452
   0.40216422  0.29982874  0.10658403
   0.39500310  0.39861011  0.20579002
   0.40214392  0.50307139  0.29473820
   0.37641112  0.59733002  0.37099924
   0.38733220  0.70006511  0.49653604
   0.39182376  0.79870530  0.59895311
   0.39097138  0.90819179  0.70215645
   0.41470113  0.99730091  0.79543267
   0.40255077  0.10724346  0.89242152
   0.40030662  0.21046779  0.98172244
   0.50909697  0.29618648  0.19718098
   0.49073010  0.40710439  0.30102588
   0.50213830  0.50596337  0.40040238
   0.47608478  0.59828893  0.48988846
   0.48339321  0.68918293  0.59583861
   0.47993596  0.79356251  0.70355463
   0.49489241  0.89345843  0.80910209
   0.50165397  0.98278381  0.90037649
   0.49325070  0.10401871  0.99691429
   0.50877535  0.19927746  0.09312437
   0.59963225  0.29515432  0.29742554
   0.59201089  0.40396093  0.39195344
   0.59161731  0.50422403  0.49986779
   0.58758310  0.60224943  0.59908679
   0.59311792  0.69352737  0.69139512
   0.58983746  0.79770315  0.79631448
   0.61236741  0.90469024  0.89682976
   0.60024993  0.99241797  0.00805692
   0.61220036  0.09888449  0.09249569
   0.60944368  0.19657462  0.20005677
   0.70307452  0.29871685  0.40552947
   0.69931368  0.39040061  0.48262893
   0.69769252  0.51011357  0.59626470
   0.69689157  0.59481951  0.69705677
   0.70821309  0.69300961  0.79547021
   0.68598378  0.79899395  0.88721534
   0.70142842  0.89570198  0.99180505
   0.70335159  0.01375059  0.09149171
   0.69423118  0.11088132  0.20657175
   0.70512909  0.19586068  0.29673936
   0.81789100  0.29455017  0.50484952
   0.81335145  0.40309008  0.59179375
   0.80353647  0.50662362  0.69577408
   0.79037597  0.60697352  0.80453989
   0.78836256  0.70371790  0.90751496
   0.81567682  0.80858044  0.98781207
   0.81096609  0.91033839  0.08842408
   0.79392410  0.99735670  0.20243206
   0.80469340  0.08475227  0.30447562
   0.78528516  0.20433110  0.38147675
   0.90803444  0.29699358  0.61446494
   0.89336376  0.40284654  0.70490095
   0.87987700  0.51113927  0.80068397
   0.89262105  0.60213224  0.89866081
   0.90119717  0.70351518  0.00669163
   0.90269966  0.81321830  0.09398892
   0.90499384  0.89792886  0.20948321
   0.90517024  0.99432696  0.31221906
   0.91134779  0.10264938  0.39363264
   0.89891253  0.19326276  0.49588297
   0.01167430  0.29561238  0.69558319
   0.99250353  0.39655232  0.81507189
   0.98458252  0.50377195  0.89864500
   0.00316678  0.59802463  0.99186850
   0.99000306  0.70283178  0.10291156
   0.99818226  0.78927926  0.20685925
   0.00312509  0.90335529  0.30404982
   0.00077463  0.99938330  0.38894398
   0.00534510  0.11101483  0.49626229
   0.00048138  0.19073584  0.59765308
   0.09286697  0.30693587  0.78429182
   0.09956416  0.39292737  0.90858500
   0.09916596  0.49548198  0.99566960
   0.10764260  0.58934897  0.08853700
   0.08887530  0.69770437  0.20490657
   0.11295584  0.81606184  0.29507524
   0.09693082  0.89748115  0.40181553
   0.10067140  0.00193496  0.50144530
   0.10595798  0.10044142  0.59159900
   0.10278628  0.19649712  0.69638096
   0.21411448  0.31968152  0.88667063
   0.21271737  0.37749786  0.00259835
   0.22053342  0.49752884  0.09083944
   0.19133258  0.60094987  0.18906253
   0.19280257  0.70141895  0.29211295
   0.19332959  0.80676462  0.39751057
   0.18823867  0.89774722  0.51088496
   0.19468453  0.01336988  0.60365324
   0.18621035  0.10551784  0.70160497
   0.21427500  0.20321053  0.78981497
   0.40684405  0.38451905  0.00601397
   0.40176105  0.49310700  0.10754775
   0.40222114  0.60664034  0.19412936
   0.39916024  0.69063370  0.30068551
   0.40143829  0.80028726  0.40644709
   0.39442957  0.89207973  0.49912345
   0.38521438  0.99621498  0.58689846
   0.41198994  0.09619180  0.69229854
   0.40128007  0.20365912  0.79599627
   0.40330799  0.31217613  0.89957369
   0.50180908  0.39365266  0.11438404
   0.50235659  0.50213102  0.19621172
   0.51127796  0.59001879  0.28257004
   0.49623425  0.68653907  0.40805875
   0.49241237  0.77937885  0.51420038
   0.50662041  0.89818591  0.59677280
   0.50012570  0.98433714  0.70215895
   0.50252526  0.09944463  0.78239071
   0.49790362  0.20013700  0.89800872
   0.50471317  0.29694576  0.00627473
   0.59219715  0.41374239  0.21555807
   0.60009012  0.49539550  0.30061522
   0.60713150  0.60008526  0.39107477
   0.59637485  0.68136826  0.50968372
   0.58064778  0.78808965  0.60102913
   0.58958646  0.87808224  0.70721796
   0.60370567  0.99305114  0.80118752
   0.59341171  0.08691152  0.89935462
   0.59866979  0.21693224  0.98719554
   0.61321794  0.31458533  0.12040440
   0.68630679  0.39003138  0.30162110
   0.70101757  0.49281420  0.38930087
   0.70584599  0.60585544  0.49954951
   0.70137928  0.69521575  0.61485339
   0.69195337  0.80783463  0.69231447
   0.69098517  0.90718357  0.79452871
   0.71705059  0.99483868  0.90038669
   0.69706763  0.09194137  0.99716122
   0.69099415  0.18908622  0.09837516
   0.69056153  0.30996836  0.20486420
   0.80838777  0.38449380  0.40562721
   0.80211179  0.47999812  0.48716756
   0.80446167  0.60098115  0.59745093
   0.80532604  0.70225385  0.69147019
   0.79644367  0.79955711  0.80094810
   0.79888180  0.89237962  0.87833258
   0.81074033  0.99858375  0.99475764
   0.80401628  0.07738938  0.12240917
   0.81104536  0.19560270  0.20480266
   0.79850040  0.30694552  0.28775680
   0.90061892  0.40879016  0.49373699
   0.90790193  0.50440573  0.60780619
   0.88337705  0.60067110  0.69372987
   0.89999593  0.68883148  0.79212989
   0.89616080  0.80548158  0.87759160
   0.91193474  0.90501723  0.98582979
   0.90369752  0.00448445  0.09837227
   0.91973085  0.10493229  0.20888092
   0.89429780  0.20005006  0.30192899
   0.90979215  0.29578474  0.40333433
   0.00012069  0.39344810  0.60558740
   0.99917050  0.49953366  0.71252048
   0.00308883  0.60837289  0.80026794
   0.98663726  0.70424458  0.89827193
   0.99025553  0.80424900  0.00187459
   0.99816097  0.89591599  0.11174190
   0.99902208  0.00727520  0.20192937
   0.00069812  0.10024813  0.31578034
   0.00404770  0.22458097  0.39935516
   0.01061087  0.30347262  0.51825349
   0.09199307  0.39760258  0.70644608
   0.09055211  0.50803758  0.81144325
   0.10068411  0.60000608  0.90874390
   0.09747716  0.69145106  0.00138800
   0.09509124  0.79512810  0.09770102
   0.09183102  0.90527254  0.19213420
   0.10216155  0.98990296  0.29108325
   0.10187621  0.10369005  0.40778184
   0.10394540  0.21030392  0.50211697
   0.10120106  0.28483723  0.59357972
   0.18720300  0.40130869  0.80808936
   0.21168238  0.49067192  0.91753251
   0.21019824  0.59348584  0.98864863
   0.19804542  0.70316858  0.08685856
   0.19407914  0.80066270  0.18417773
   0.19853150  0.88944918  0.29554409
   0.19342131  0.00104951  0.40968424
   0.20363006  0.10864079  0.49062860
   0.20174028  0.19658606  0.59970861
   0.20623994  0.29827448  0.70348651
   0.31991617  0.40260014  0.90422602
   0.31116239  0.49066931  0.01160084
   0.29312195  0.61157474  0.08978951
   0.29280508  0.70655958  0.20408689
   0.30093369  0.79423953  0.30466279
   0.28949152  0.89513406  0.40690382
   0.29641319  0.99438538  0.49777833
   0.30963377  0.10016305  0.60261787
   0.31018934  0.18953188  0.69550146
   0.30990578  0.30134552  0.79507735
